                               Psi4 1.3.2 release

  ==> Input File <==

--------------------------------------------------------------------------
#psi4
#
memory 32 gb

molecule  {
0 1
  O       -0.8411900    -0.2286010    -0.2822800
  C        2.0174600     0.2824600    -0.5354820
  C       -2.1273367    -0.2170184     0.3467624
  C        1.3918360    -0.8685520     0.1861030
  C        2.7655740     1.2103670     0.4230210
  C        0.0814792    -1.0541002     0.3086067
  C       -3.0226980     0.6919650    -0.4518750
  H        2.7145670    -0.0909720    -1.2924960
  H        1.2438280     0.8410150    -1.0636660
  H       -2.5250500    -1.2529680     0.3825710
  H       -2.0263210     0.1331820     1.3936400
  H        2.0399100    -1.6071390     0.6510050
  H        3.2481390     2.0275410    -0.1185540
  H        2.0757450     1.6393580     1.1523020
  H        3.5397370     0.6653480     0.9697790
  H       -0.3482160    -1.8932280     0.8773390
  H       -4.0255760     0.7295450    -0.0161740
  H       -2.6128620     1.7059100    -0.4684560
  H       -3.0981720     0.3293290    -1.4847820
units angstrom
no_reorient  #important for SAPT in psi4, default
symmetry c1  #important for SAPT in psi4, default
}

set PROPERTIES_ORIGIN ["COM"]
properties('MP2/aug-cc-pvtz', properties = ['dipole'])
--------------------------------------------------------------------------

    Molecular point group: c1
  Charge       = 0
  Multiplicity = 1
  Basis Set: AUG-CC-PVTZ
    Blend: AUG-CC-PVTZ
  Basis Set: (AUG-CC-PVTZ AUX)
    Blend: AUG-CC-PVTZ-JKFIT

    Orbital Energies [Eh]
    ---------------------

    Doubly Occupied:

       1A    -20.571472     2A    -11.287144     3A    -11.277969
       4A    -11.220967     5A    -11.214545     6A    -11.212060
       7A    -11.207348     8A     -1.392394     9A     -1.076401
      10A     -1.026936    11A     -0.968510    12A     -0.851175
      13A     -0.840013    14A     -0.754016    15A     -0.682417
      16A     -0.653175    17A     -0.643458    18A     -0.597702
      19A     -0.561498    20A     -0.557554    21A     -0.542206
      22A     -0.529016    23A     -0.509356    24A     -0.502443
      25A     -0.478330    26A     -0.472460    27A     -0.461985
      28A     -0.327447

  @DF-RHF Final Energy:  -309.14091833559087

   => Energetics <=

    Nuclear Repulsion Energy =            302.2771819188004088
    One-Electron Energy =               -1017.9962028778425065
    Two-Electron Energy =                 406.5781026234512865
    Total Energy =                       -309.1409183355908681
  Basis Set: (AUG-CC-PVTZ AUX)
    Blend: AUG-CC-PVTZ-RI
    Molecular point group: c1

    Geometry (in Angstrom), charge = 0, multiplicity = 1:

       Center              X                  Y                   Z               Mass
    ------------   -----------------  -----------------  -----------------  -----------------
         O           -0.841674640645    -0.229971533599    -0.280289616339    15.994914619570
         C            2.016975359355     0.281089466401    -0.533491616339    12.000000000000
         C           -2.127821340645    -0.218388933599     0.348752783661    12.000000000000
         C            1.391351359355    -0.869922533599     0.188093383661    12.000000000000
         C            2.765089359355     1.208996466401     0.425011383661    12.000000000000
         C            0.080994559355    -1.055470733599     0.310597083661    12.000000000000
         C           -3.023182640645     0.690594466401    -0.449884616339    12.000000000000
         H            2.714082359355    -0.092342533599    -1.290505616339     1.007825032230
         H            1.243343359355     0.839644466401    -1.061675616339     1.007825032230
         H           -2.525534640645    -1.254338533599     0.384561383661     1.007825032230
         H           -2.026805640645     0.131811466401     1.395630383661     1.007825032230
         H            2.039425359355    -1.608509533599     0.652995383661     1.007825032230
         H            3.247654359355     2.026170466401    -0.116563616339     1.007825032230
         H            2.075260359355     1.637987466401     1.154292383661     1.007825032230
         H            3.539252359355     0.663977466401     0.971769383661     1.007825032230
         H           -0.348700640645    -1.894598533599     0.879329383661     1.007825032230
         H           -4.026060640645     0.728174466401    -0.014183616339     1.007825032230
         H           -2.613346640645     1.704539466401    -0.466465616339     1.007825032230
         H           -3.098656640645     0.327958466401    -1.482791616339     1.007825032230

  Basis Set: AUG-CC-PVTZ
    Blend: AUG-CC-PVTZ
  Basis Set: (AUG-CC-PVTZ AUX)
    Blend: AUG-CC-PVTZ-JKFIT
	 Reference Energy          =    -309.1409183355908681 [Eh]
	 Singles Energy            =      -0.0000000000000000 [Eh]
	 Same-Spin Energy          =      -0.3137843558276868 [Eh]
	 Opposite-Spin Energy      =      -1.0989147236302972 [Eh]
	 Correlation Energy        =      -1.4126990794579841 [Eh]
	 Total Energy              =    -310.5536174150488478 [Eh]

	 ================> DF-SCS-MP2 Energies <==================
	-----------------------------------------------------------
	 SCS Same-Spin Scale       =       0.3333333333333333 [-]
	 SCS Opposite-Spin Scale   =       1.2000000000000000 [-]
	 SCS Same-Spin Energy      =      -0.1045947852758956 [Eh]
	 SCS Opposite-Spin Energy  =      -1.3186976683563565 [Eh]
	 SCS Correlation Energy    =      -1.4232924536322522 [Eh]
	 SCS Total Energy          =    -310.5642107892231252 [Eh]
	-----------------------------------------------------------

  Dipole Moment: [D]
     X:    -1.0999      Y:    -0.1690      Z:     0.7146     Total:     1.3225

*** Psi4 exiting successfully. Buy a developer a beer!
