                               Psi4 1.3.2 release

  ==> Input File <==

--------------------------------------------------------------------------
#psi4
#
memory 32 gb

molecule  {
0 1
  O       -0.8411900    -0.2286010    -0.2822800
  C        2.0174600     0.2824600    -0.5354820
  C       -2.1232200    -0.2252560     0.3552070
  C        1.3918360    -0.8685520     0.1861030
  C        2.7655740     1.2103670     0.4230210
  C        0.0733200    -1.0572940     0.3167640
  C       -3.0226980     0.6919650    -0.4518750
  H        2.7145670    -0.0909720    -1.2924960
  H        1.2438280     0.8410150    -1.0636660
  H       -2.5250500    -1.2529680     0.3825710
  H       -2.0263210     0.1331820     1.3936400
  H        1.9206730    -1.4712488     0.5654692
  H        3.2481390     2.0275410    -0.1185540
  H        2.0757450     1.6393580     1.1523020
  H        3.5397370     0.6653480     0.9697790
  H       -0.3482160    -1.8932280     0.8773390
  H       -4.0255760     0.7295450    -0.0161740
  H       -2.6128620     1.7059100    -0.4684560
  H       -3.0981720     0.3293290    -1.4847820
units angstrom
no_reorient  #important for SAPT in psi4, default
symmetry c1  #important for SAPT in psi4, default
}

set PROPERTIES_ORIGIN ["COM"]
properties('MP2/aug-cc-pvtz', properties = ['dipole'])
--------------------------------------------------------------------------

    Molecular point group: c1
  Charge       = 0
  Multiplicity = 1
  Basis Set: AUG-CC-PVTZ
    Blend: AUG-CC-PVTZ
  Basis Set: (AUG-CC-PVTZ AUX)
    Blend: AUG-CC-PVTZ-JKFIT

    Orbital Energies [Eh]
    ---------------------

    Doubly Occupied:

       1A    -20.571528     2A    -11.285961     3A    -11.277361
       4A    -11.220758     5A    -11.212655     6A    -11.207094
       7A    -11.189032     8A     -1.392496     9A     -1.081195
      10A     -1.024924    11A     -0.972691    12A     -0.853527
      13A     -0.841489    14A     -0.776717    15A     -0.688391
      16A     -0.655274    17A     -0.650898    18A     -0.597851
      19A     -0.574423    20A     -0.556670    21A     -0.541998
      22A     -0.530907    23A     -0.508825    24A     -0.501257
      25A     -0.477761    26A     -0.475802    27A     -0.464816
      28A     -0.325015

  @DF-RHF Final Energy:  -309.10555807612820

   => Energetics <=

    Nuclear Repulsion Energy =            303.2398588439585296
    One-Electron Energy =               -1019.7762056454636195
    Two-Electron Energy =                 407.4307887253768286
    Total Energy =                       -309.1055580761282044
  Basis Set: (AUG-CC-PVTZ AUX)
    Blend: AUG-CC-PVTZ-RI
    Molecular point group: c1

    Geometry (in Angstrom), charge = 0, multiplicity = 1:

       Center              X                  Y                   Z               Mass
    ------------   -----------------  -----------------  -----------------  -----------------
         O           -0.839989337114    -0.229969303032    -0.281418790259    15.994914619570
         C            2.018660662886     0.281091696968    -0.534620790259    12.000000000000
         C           -2.122019337114    -0.226624303032     0.356068209741    12.000000000000
         C            1.393036662886    -0.869920303032     0.186964209741    12.000000000000
         C            2.766774662886     1.208998696968     0.423882209741    12.000000000000
         C            0.074520662886    -1.058662303032     0.317625209741    12.000000000000
         C           -3.021497337114     0.690596696968    -0.451013790259    12.000000000000
         H            2.715767662886    -0.092340303032    -1.291634790259     1.007825032230
         H            1.245028662886     0.839646696968    -1.062804790259     1.007825032230
         H           -2.523849337114    -1.254336303032     0.383432209741     1.007825032230
         H           -2.025120337114     0.131813696968     1.394501209741     1.007825032230
         H            1.921873662886    -1.472617103032     0.566330409741     1.007825032230
         H            3.249339662886     2.026172696968    -0.117692790259     1.007825032230
         H            2.076945662886     1.637989696968     1.153163209741     1.007825032230
         H            3.540937662886     0.663979696968     0.970640209741     1.007825032230
         H           -0.347015337114    -1.894596303032     0.878200209741     1.007825032230
         H           -4.024375337114     0.728176696968    -0.015312790259     1.007825032230
         H           -2.611661337114     1.704541696968    -0.467594790259     1.007825032230
         H           -3.096971337114     0.327960696968    -1.483920790259     1.007825032230

  Basis Set: AUG-CC-PVTZ
    Blend: AUG-CC-PVTZ
  Basis Set: (AUG-CC-PVTZ AUX)
    Blend: AUG-CC-PVTZ-JKFIT
	 Reference Energy          =    -309.1055580761282044 [Eh]
	 Singles Energy            =      -0.0000000000000000 [Eh]
	 Same-Spin Energy          =      -0.3137463288866492 [Eh]
	 Opposite-Spin Energy      =      -1.0988477012641624 [Eh]
	 Correlation Energy        =      -1.4125940301508115 [Eh]
	 Total Energy              =    -310.5181521062789898 [Eh]

	 ================> DF-SCS-MP2 Energies <==================
	-----------------------------------------------------------
	 SCS Same-Spin Scale       =       0.3333333333333333 [-]
	 SCS Opposite-Spin Scale   =       1.2000000000000000 [-]
	 SCS Same-Spin Energy      =      -0.1045821096288831 [Eh]
	 SCS Opposite-Spin Energy  =      -1.3186172415169948 [Eh]
	 SCS Correlation Energy    =      -1.4231993511458778 [Eh]
	 SCS Total Energy          =    -310.5287574272740585 [Eh]
	-----------------------------------------------------------

  Dipole Moment: [D]
     X:    -1.0915      Y:    -0.2433      Z:     0.7579     Total:     1.3510

*** Psi4 exiting successfully. Buy a developer a beer!
