                               Psi4 1.4a3.dev225

  ==> Input File <==

--------------------------------------------------------------------------
#psi4
#
memory 32 gb

molecule  {
0 1
  O        0.9059480     0.1295110    -0.3069180
  C       -1.9753050    -0.3336000    -0.5537270
  C        2.1190110     0.1892690     0.4520280
  C       -1.3184330     0.9429980    -0.1246110
  C       -2.9908880    -0.8293550     0.4787900
  C       -0.0465365     1.1066972     0.0118618
  C        3.0576820    -0.8509900    -0.1177330
  H       -2.4824890    -0.1840060    -1.5158280
  H       -1.2045440    -1.0918590    -0.7184600
  H        2.5525890     1.1965710     0.3749050
  H        1.9047370    -0.0062780     1.5110790
  H       -1.9523440     1.7996160     0.0958850
  H       -3.4787570    -1.7495600     0.1429400
  H       -2.4987140    -1.0317260     1.4340660
  H       -3.7695180    -0.0804100     0.6542360
  H        0.4396010     2.0570360     0.3475940
  H        4.0048870    -0.8497230     0.4289840
  H        2.6101410    -1.8440700    -0.0412770
  H        3.2577670    -0.6398860    -1.1701900
units angstrom
no_reorient  #important for SAPT in psi4, default
symmetry c1  #important for SAPT in psi4, default
}

set PROPERTIES_ORIGIN ["COM"]
properties('MP2/aug-cc-pvtz', properties = ['dipole'])
--------------------------------------------------------------------------

    Molecular point group: c1
  Charge       = 0
  Multiplicity = 1
  Basis Set: AUG-CC-PVTZ
    Blend: AUG-CC-PVTZ
  Basis Set: (AUG-CC-PVTZ AUX)
    Blend: AUG-CC-PVTZ-JKFIT

    Orbital Energies [Eh]
    ---------------------

    Doubly Occupied:

       1A    -20.566518     2A    -11.282067     3A    -11.275150
       4A    -11.217991     5A    -11.217540     6A    -11.210476
       7A    -11.210060     8A     -1.378600     9A     -1.082219
      10A     -1.023412    11A     -0.975462    12A     -0.849505
      13A     -0.839486    14A     -0.751011    15A     -0.680906
      16A     -0.647255    17A     -0.641382    18A     -0.599493
      19A     -0.563295    20A     -0.557311    21A     -0.537612
      22A     -0.526998    23A     -0.509356    24A     -0.499520
      25A     -0.481216    26A     -0.471516    27A     -0.456253
      28A     -0.341143

  @DF-RHF Final Energy:  -309.13838738902109

   => Energetics <=

    Nuclear Repulsion Energy =            301.3496085341934076
    One-Electron Energy =               -1016.1904888161824374
    Two-Electron Energy =                 405.7024928929679390
    Total Energy =                       -309.1383873890210907
  Basis Set: (AUG-CC-PVTZ AUX)
    Blend: AUG-CC-PVTZ-RI
    Molecular point group: c1

    Geometry (in Angstrom), charge = 0, multiplicity = 1:

       Center              X                  Y                   Z               Mass
    ------------   -----------------  -----------------  -----------------  -----------------
         O            0.905793560659     0.106246836061    -0.290994080111    15.994914619570
         C           -1.975459439341    -0.356864163939    -0.537803080111    12.000000000000
         C            2.118856560659     0.166004836061     0.467951919889    12.000000000000
         C           -1.318587439341     0.919733836061    -0.108687080111    12.000000000000
         C           -2.991042439341    -0.852619163939     0.494713919889    12.000000000000
         C           -0.046690939341     1.083433036061     0.027785719889    12.000000000000
         C            3.057527560659    -0.874254163939    -0.101809080111    12.000000000000
         H           -2.482643439341    -0.207270163939    -1.499904080111     1.007825032230
         H           -1.204698439341    -1.115123163939    -0.702536080111     1.007825032230
         H            2.552434560659     1.173306836061     0.390828919889     1.007825032230
         H            1.904582560659    -0.029542163939     1.527002919889     1.007825032230
         H           -1.952498439341     1.776351836061     0.111808919889     1.007825032230
         H           -3.478911439341    -1.772824163939     0.158863919889     1.007825032230
         H           -2.498868439341    -1.054990163939     1.449989919889     1.007825032230
         H           -3.769672439341    -0.103674163939     0.670159919889     1.007825032230
         H            0.439446560659     2.033771836061     0.363517919889     1.007825032230
         H            4.004732560659    -0.872987163939     0.444907919889     1.007825032230
         H            2.609986560659    -1.867334163939    -0.025353080111     1.007825032230
         H            3.257612560659    -0.663150163939    -1.154266080111     1.007825032230

  Basis Set: AUG-CC-PVTZ
    Blend: AUG-CC-PVTZ
  Basis Set: (AUG-CC-PVTZ AUX)
    Blend: AUG-CC-PVTZ-JKFIT
	 Reference Energy          =    -309.1383873890210907 [Eh]
	 Singles Energy            =      -0.0000000000000000 [Eh]
	 Same-Spin Energy          =      -0.3133360972675324 [Eh]
	 Opposite-Spin Energy      =      -1.0982474568869700 [Eh]
	 Correlation Energy        =      -1.4115835541545023 [Eh]
	 Total Energy              =    -310.5499709431755946 [Eh]

	 ================> DF-SCS-MP2 Energies <==================
	-----------------------------------------------------------
	 SCS Same-Spin Scale       =       0.3333333333333333 [-]
	 SCS Opposite-Spin Scale   =       1.2000000000000000 [-]
	 SCS Same-Spin Energy      =      -0.1044453657558441 [Eh]
	 SCS Opposite-Spin Energy  =      -1.3178969482643639 [Eh]
	 SCS Correlation Energy    =      -1.4223423140202081 [Eh]
	 SCS Total Energy          =    -310.5607297030413179 [Eh]
	-----------------------------------------------------------

  Dipole Moment: [D]
     X:     0.7882      Y:     0.3326      Z:     0.7716     Total:     1.1520

*** Psi4 exiting successfully. Buy a developer a beer!
