                               Psi4 1.3.2 release

  ==> Input File <==

--------------------------------------------------------------------------
#psi4
#
memory 32 gb

molecule  {
0 1
  O       -0.8411900    -0.2286010    -0.2822800
  C        2.0174600     0.2824600    -0.5354820
  C       -2.1232200    -0.2252560     0.3552070
  C        1.3918360    -0.8685520     0.1861030
  C        2.7655740     1.2103670     0.4230210
  C        0.0733200    -1.0572940     0.3167640
  C       -3.0226980     0.6919650    -0.4518750
  H        2.7145670    -0.0909720    -1.2924960
  H        1.2438280     0.8410150    -1.0636660
  H       -2.5250500    -1.2529680     0.3825710
  H       -2.0263210     0.1331820     1.3936400
  H        1.9802915    -1.5391939     0.6082371
  H        3.2481390     2.0275410    -0.1185540
  H        2.0757450     1.6393580     1.1523020
  H        3.5397370     0.6653480     0.9697790
  H       -0.3482160    -1.8932280     0.8773390
  H       -4.0255760     0.7295450    -0.0161740
  H       -2.6128620     1.7059100    -0.4684560
  H       -3.0981720     0.3293290    -1.4847820
units angstrom
no_reorient  #important for SAPT in psi4, default
symmetry c1  #important for SAPT in psi4, default
}

set PROPERTIES_ORIGIN ["COM"]
properties('MP2/aug-cc-pvtz', properties = ['dipole'])
--------------------------------------------------------------------------

    Molecular point group: c1
  Charge       = 0
  Multiplicity = 1
  Basis Set: AUG-CC-PVTZ
    Blend: AUG-CC-PVTZ
  Basis Set: (AUG-CC-PVTZ AUX)
    Blend: AUG-CC-PVTZ-JKFIT

    Orbital Energies [Eh]
    ---------------------

    Doubly Occupied:

       1A    -20.571781     2A    -11.286120     3A    -11.277587
       4A    -11.220877     5A    -11.213544     6A    -11.207239
       7A    -11.201231     8A     -1.392750     9A     -1.077126
      10A     -1.024882    11A     -0.969150    12A     -0.852062
      13A     -0.841406    14A     -0.764003    15A     -0.685827
      16A     -0.654410    17A     -0.647065    18A     -0.597644
      19A     -0.568003    20A     -0.556846    21A     -0.542071
      22A     -0.529635    23A     -0.509183    24A     -0.501412
      25A     -0.478271    26A     -0.474787    27A     -0.464504
      28A     -0.325157

  @DF-RHF Final Energy:  -309.13472709862253

   => Energetics <=

    Nuclear Repulsion Energy =            302.6471268033386082
    One-Electron Energy =               -1018.6945669881255299
    Two-Electron Energy =                 406.9127130861643309
    Total Energy =                       -309.1347270986225340
  Basis Set: (AUG-CC-PVTZ AUX)
    Blend: AUG-CC-PVTZ-RI
    Molecular point group: c1

    Geometry (in Angstrom), charge = 0, multiplicity = 1:

       Center              X                  Y                   Z               Mass
    ------------   -----------------  -----------------  -----------------  -----------------
         O           -0.840589654109    -0.229285142943    -0.281849433385    15.994914619570
         C            2.018060345891     0.281775857057    -0.535051433385    12.000000000000
         C           -2.122619654109    -0.225940142943     0.355637566615    12.000000000000
         C            1.392436345891    -0.869236142943     0.186533566615    12.000000000000
         C            2.766174345891     1.209682857057     0.423451566615    12.000000000000
         C            0.073920345891    -1.057978142943     0.317194566615    12.000000000000
         C           -3.022097654109     0.691280857057    -0.451444433385    12.000000000000
         H            2.715167345891    -0.091656142943    -1.292065433385     1.007825032230
         H            1.244428345891     0.840330857057    -1.063235433385     1.007825032230
         H           -2.524449654109    -1.253652142943     0.383001566615     1.007825032230
         H           -2.025720654109     0.132497857057     1.394070566615     1.007825032230
         H            1.980891845891    -1.539878042943     0.608667666615     1.007825032230
         H            3.248739345891     2.026856857057    -0.118123433385     1.007825032230
         H            2.076345345891     1.638673857057     1.152732566615     1.007825032230
         H            3.540337345891     0.664663857057     0.970209566615     1.007825032230
         H           -0.347615654109    -1.893912142943     0.877769566615     1.007825032230
         H           -4.024975654109     0.728860857057    -0.015743433385     1.007825032230
         H           -2.612261654109     1.705225857057    -0.468025433385     1.007825032230
         H           -3.097571654109     0.328644857057    -1.484351433385     1.007825032230

  Basis Set: AUG-CC-PVTZ
    Blend: AUG-CC-PVTZ
  Basis Set: (AUG-CC-PVTZ AUX)
    Blend: AUG-CC-PVTZ-JKFIT
	 Reference Energy          =    -309.1347270986225340 [Eh]
	 Singles Energy            =      -0.0000000000000000 [Eh]
	 Same-Spin Energy          =      -0.3137389131647929 [Eh]
	 Opposite-Spin Energy      =      -1.0987985895987644 [Eh]
	 Correlation Energy        =      -1.4125375027635574 [Eh]
	 Total Energy              =    -310.5472646013860754 [Eh]

	 ================> DF-SCS-MP2 Energies <==================
	-----------------------------------------------------------
	 SCS Same-Spin Scale       =       0.3333333333333333 [-]
	 SCS Opposite-Spin Scale   =       1.2000000000000000 [-]
	 SCS Same-Spin Energy      =      -0.1045796377215976 [Eh]
	 SCS Opposite-Spin Energy  =      -1.3185583075185172 [Eh]
	 SCS Correlation Energy    =      -1.4231379452401147 [Eh]
	 SCS Total Energy          =    -310.5578650438626482 [Eh]
	-----------------------------------------------------------

  Dipole Moment: [D]
     X:    -1.0899      Y:    -0.2209      Z:     0.7442     Total:     1.3381

*** Psi4 exiting successfully. Buy a developer a beer!
