                               Psi4 1.3.2 release

  ==> Input File <==

--------------------------------------------------------------------------
#psi4
#
memory 32 gb

molecule  {
0 1
  O       -0.8411900    -0.2286010    -0.2822800
  C        2.0174600     0.2824600    -0.5354820
  C       -2.1232200    -0.2252560     0.3552070
  C        1.3918360    -0.8685520     0.1861030
  C        2.7655740     1.2103670     0.4230210
  C       -0.0600071    -0.9364782     0.2294289
  C       -3.0226980     0.6919650    -0.4518750
  H        2.7145670    -0.0909720    -1.2924960
  H        1.2438280     0.8410150    -1.0636660
  H       -2.5250500    -1.2529680     0.3825710
  H       -2.0263210     0.1331820     1.3936400
  H        2.0399100    -1.6071390     0.6510050
  H        3.2481390     2.0275410    -0.1185540
  H        2.0757450     1.6393580     1.1523020
  H        3.5397370     0.6653480     0.9697790
  H       -0.3482160    -1.8932280     0.8773390
  H       -4.0255760     0.7295450    -0.0161740
  H       -2.6128620     1.7059100    -0.4684560
  H       -3.0981720     0.3293290    -1.4847820
units angstrom
no_reorient  #important for SAPT in psi4, default
symmetry c1  #important for SAPT in psi4, default
}

set PROPERTIES_ORIGIN ["COM"]
properties('MP2/aug-cc-pvtz', properties = ['dipole'])
--------------------------------------------------------------------------

    Molecular point group: c1
  Charge       = 0
  Multiplicity = 1
  Basis Set: AUG-CC-PVTZ
    Blend: AUG-CC-PVTZ
  Basis Set: (AUG-CC-PVTZ AUX)
    Blend: AUG-CC-PVTZ-JKFIT

    Orbital Energies [Eh]
    ---------------------

    Doubly Occupied:

       1A    -20.608772     2A    -11.310830     3A    -11.298676
       4A    -11.236244     5A    -11.201200     6A    -11.200499
       7A    -11.196478     8A     -1.514521     9A     -1.076271
      10A     -1.035895    11A     -0.940647    12A     -0.880139
      13A     -0.836585    14A     -0.774732    15A     -0.716585
      16A     -0.686852    17A     -0.656288    18A     -0.603210
      19A     -0.580160    20A     -0.564576    21A     -0.547208
      22A     -0.533709    23A     -0.518027    24A     -0.507432
      25A     -0.487720    26A     -0.464997    27A     -0.433423
      28A     -0.278616

  @DF-RHF Final Energy:  -309.08085714136030

   => Energetics <=

    Nuclear Repulsion Energy =            304.8136262178048810
    One-Electron Energy =               -1022.4083827919683927
    Two-Electron Energy =                 408.5138994328032140
    Total Energy =                       -309.0808571413602976
  Basis Set: (AUG-CC-PVTZ AUX)
    Blend: AUG-CC-PVTZ-RI
    Molecular point group: c1

    Geometry (in Angstrom), charge = 0, multiplicity = 1:

       Center              X                  Y                   Z               Mass
    ------------   -----------------  -----------------  -----------------  -----------------
         O           -0.825204916232    -0.243086013973    -0.271809164253    15.994914619570
         C            2.033445083768     0.267974986027    -0.525011164253    12.000000000000
         C           -2.107234916232    -0.239741013973     0.365677835747    12.000000000000
         C            1.407821083768    -0.883037013973     0.196573835747    12.000000000000
         C            2.781559083768     1.195881986027     0.433491835747    12.000000000000
         C           -0.044022016232    -0.950963213973     0.239899735747    12.000000000000
         C           -3.006712916232     0.677479986027    -0.441404164253    12.000000000000
         H            2.730552083768    -0.105457013973    -1.282025164253     1.007825032230
         H            1.259813083768     0.826529986027    -1.053195164253     1.007825032230
         H           -2.509064916232    -1.267453013973     0.393041835747     1.007825032230
         H           -2.010335916232     0.118696986027     1.404110835747     1.007825032230
         H            2.055895083768    -1.621624013973     0.661475835747     1.007825032230
         H            3.264124083768     2.013055986027    -0.108083164253     1.007825032230
         H            2.091730083768     1.624872986027     1.162772835747     1.007825032230
         H            3.555722083768     0.650862986027     0.980249835747     1.007825032230
         H           -0.332230916232    -1.907713013973     0.887809835747     1.007825032230
         H           -4.009590916232     0.715059986027    -0.005703164253     1.007825032230
         H           -2.596876916232     1.691424986027    -0.457985164253     1.007825032230
         H           -3.082186916232     0.314843986027    -1.474311164253     1.007825032230

  Basis Set: AUG-CC-PVTZ
    Blend: AUG-CC-PVTZ
  Basis Set: (AUG-CC-PVTZ AUX)
    Blend: AUG-CC-PVTZ-JKFIT
	 Reference Energy          =    -309.0808571413602976 [Eh]
	 Singles Energy            =      -0.0000000000000000 [Eh]
	 Same-Spin Energy          =      -0.3164550278337891 [Eh]
	 Opposite-Spin Energy      =      -1.1012232742000878 [Eh]
	 Correlation Energy        =      -1.4176783020338770 [Eh]
	 Total Energy              =    -310.4985354433941893 [Eh]

	 ================> DF-SCS-MP2 Energies <==================
	-----------------------------------------------------------
	 SCS Same-Spin Scale       =       0.3333333333333333 [-]
	 SCS Opposite-Spin Scale   =       1.2000000000000000 [-]
	 SCS Same-Spin Energy      =      -0.1054850092779297 [Eh]
	 SCS Opposite-Spin Energy  =      -1.3214679290401052 [Eh]
	 SCS Correlation Energy    =      -1.4269529383180350 [Eh]
	 SCS Total Energy          =    -310.5078100796783360 [Eh]
	-----------------------------------------------------------

  Dipole Moment: [D]
     X:    -2.6173      Y:     0.2745      Z:     0.4162     Total:     2.6644

*** Psi4 exiting successfully. Buy a developer a beer!
