                               Psi4 1.3.2 release

  ==> Input File <==

--------------------------------------------------------------------------
#psi4
#
memory 32 gb

molecule  {
0 1
  O       -0.7864557    -0.1894615    -0.3073889
  C        2.0174600     0.2824600    -0.5354820
  C       -2.1232200    -0.2252560     0.3552070
  C        1.3918360    -0.8685520     0.1861030
  C        2.7655740     1.2103670     0.4230210
  C        0.0733200    -1.0572940     0.3167640
  C       -3.0226980     0.6919650    -0.4518750
  H        2.7145670    -0.0909720    -1.2924960
  H        1.2438280     0.8410150    -1.0636660
  H       -2.5250500    -1.2529680     0.3825710
  H       -2.0263210     0.1331820     1.3936400
  H        2.0399100    -1.6071390     0.6510050
  H        3.2481390     2.0275410    -0.1185540
  H        2.0757450     1.6393580     1.1523020
  H        3.5397370     0.6653480     0.9697790
  H       -0.2949847    -1.9094737     0.8902306
  H       -4.0255760     0.7295450    -0.0161740
  H       -2.6128620     1.7059100    -0.4684560
  H       -3.0981720     0.3293290    -1.4847820
units angstrom
no_reorient  #important for SAPT in psi4, default
symmetry c1  #important for SAPT in psi4, default
}

set PROPERTIES_ORIGIN ["COM"]
properties('MP2/aug-cc-pvtz', properties = ['dipole'])
--------------------------------------------------------------------------

    Molecular point group: c1
  Charge       = 0
  Multiplicity = 1
  Basis Set: AUG-CC-PVTZ
    Blend: AUG-CC-PVTZ
  Basis Set: (AUG-CC-PVTZ AUX)
    Blend: AUG-CC-PVTZ-JKFIT

    Orbital Energies [Eh]
    ---------------------

    Doubly Occupied:

       1A    -20.575039     2A    -11.292525     3A    -11.274321
       4A    -11.223304     5A    -11.211617     6A    -11.208636
       7A    -11.205550     8A     -1.379367     9A     -1.070578
      10A     -1.025166    11A     -0.965433    12A     -0.846969
      13A     -0.843311    14A     -0.745167    15A     -0.680191
      16A     -0.651671    17A     -0.636477    18A     -0.593954
      19A     -0.560644    20A     -0.554211    21A     -0.543564
      22A     -0.518152    23A     -0.508845    24A     -0.507460
      25A     -0.478846    26A     -0.475756    27A     -0.465009
      28A     -0.322033

  @DF-RHF Final Energy:  -309.13403517753966

   => Energetics <=

    Nuclear Repulsion Energy =            301.6063826133049020
    One-Electron Energy =               -1016.7532403450727543
    Two-Electron Energy =                 406.0128225542281371
    Total Energy =                       -309.1340351775396584
  Basis Set: (AUG-CC-PVTZ AUX)
    Blend: AUG-CC-PVTZ-RI
    Molecular point group: c1

    Geometry (in Angstrom), charge = 0, multiplicity = 1:

       Center              X                  Y                   Z               Mass
    ------------   -----------------  -----------------  -----------------  -----------------
         O           -0.795738609381    -0.195552674338    -0.303506202652    15.994914619570
         C            2.008177090619     0.276368825662    -0.531599302652    12.000000000000
         C           -2.132502909381    -0.231347174338     0.359089697348    12.000000000000
         C            1.382553090619    -0.874643174338     0.189985697348    12.000000000000
         C            2.756291090619     1.204275825662     0.426903697348    12.000000000000
         C            0.064037090619    -1.063385174338     0.320646697348    12.000000000000
         C           -3.031980909381     0.685873825662    -0.447992302652    12.000000000000
         H            2.705284090619    -0.097063174338    -1.288613302652     1.007825032230
         H            1.234545090619     0.834923825662    -1.059783302652     1.007825032230
         H           -2.534332909381    -1.259059174338     0.386453697348     1.007825032230
         H           -2.035603909381     0.127090825662     1.397522697348     1.007825032230
         H            2.030627090619    -1.613230174338     0.654887697348     1.007825032230
         H            3.238856090619     2.021449825662    -0.114671302652     1.007825032230
         H            2.066462090619     1.633266825662     1.156184697348     1.007825032230
         H            3.530454090619     0.659256825662     0.973661697348     1.007825032230
         H           -0.304267609381    -1.915564874338     0.894113297348     1.007825032230
         H           -4.034858909381     0.723453825662    -0.012291302652     1.007825032230
         H           -2.622144909381     1.699818825662    -0.464573302652     1.007825032230
         H           -3.107454909381     0.323237825662    -1.480899302652     1.007825032230

  Basis Set: AUG-CC-PVTZ
    Blend: AUG-CC-PVTZ
  Basis Set: (AUG-CC-PVTZ AUX)
    Blend: AUG-CC-PVTZ-JKFIT
	 Reference Energy          =    -309.1340351775396584 [Eh]
	 Singles Energy            =      -0.0000000000000000 [Eh]
	 Same-Spin Energy          =      -0.3144758606236489 [Eh]
	 Opposite-Spin Energy      =      -1.1013907546300830 [Eh]
	 Correlation Energy        =      -1.4158666152537318 [Eh]
	 Total Energy              =    -310.5499017927933778 [Eh]

	 ================> DF-SCS-MP2 Energies <==================
	-----------------------------------------------------------
	 SCS Same-Spin Scale       =       0.3333333333333333 [-]
	 SCS Opposite-Spin Scale   =       1.2000000000000000 [-]
	 SCS Same-Spin Energy      =      -0.1048252868745496 [Eh]
	 SCS Opposite-Spin Energy  =      -1.3216689055560995 [Eh]
	 SCS Correlation Energy    =      -1.4264941924306491 [Eh]
	 SCS Total Energy          =    -310.5605293699703111 [Eh]
	-----------------------------------------------------------

  Dipole Moment: [D]
     X:    -1.3845      Y:    -0.2476      Z:     0.7995     Total:     1.6178

*** Psi4 exiting successfully. Buy a developer a beer!
