                               Psi4 1.3.2 release

  ==> Input File <==

--------------------------------------------------------------------------
#psi4
#
memory 32 gb

molecule  {
0 1
  S        0.5359083     0.1338790    -0.4038181
  O        0.4618440     1.4999320     0.3808610
  C       -0.9006320    -0.8029080     0.1982360
  C       -2.2205860    -0.0702240     0.0038050
  C        1.7957500    -0.8220170     0.1767170
  H       -0.8762000    -1.7584740    -0.3375620
  H       -0.7074950    -0.9824750     1.2615930
  H       -2.1837960     0.8971170     0.5089180
  H       -2.4261330     0.1003720    -1.0566290
  H       -3.0437480    -0.6541480     0.4226370
  H        2.7394370    -0.3531110    -0.1078930
  H        1.7290630    -1.8181940    -0.2685240
  H        1.7339310    -0.8776290     1.2666040
units angstrom
no_reorient  #important for SAPT in psi4, default
symmetry c1  #important for SAPT in psi4, default
}

set PROPERTIES_ORIGIN ["COM"]
properties('MP2/aug-cc-pvtz', properties = ['dipole'])
--------------------------------------------------------------------------

    Molecular point group: c1
  Charge       = 0
  Multiplicity = 1
  Basis Set: AUG-CC-PVTZ
    Blend: AUG-CC-PVTZ
  Basis Set: (AUG-CC-PVTZ AUX)
    Blend: AUG-CC-PVTZ-JKFIT

    Orbital Energies [Eh]
    ---------------------

    Doubly Occupied:

       1A    -92.058331     2A    -20.497944     3A    -11.271319
       4A    -11.265682     5A    -11.232011     6A     -9.047961
       7A     -6.729997     8A     -6.729347     9A     -6.727996
      10A     -1.290891    11A     -1.095688    12A     -1.035895
      13A     -0.894327    14A     -0.801477    15A     -0.658658
      16A     -0.642040    17A     -0.620783    18A     -0.615576
      19A     -0.562786    20A     -0.532094    21A     -0.523060
      22A     -0.512630    23A     -0.484497    24A     -0.413723
      25A     -0.361576

  @DF-RHF Final Energy:  -590.68732530698344

   => Energetics <=

    Nuclear Repulsion Energy =            252.6100408513823368
    One-Electron Energy =               -1313.3821571570824744
    Two-Electron Energy =                 470.0847909987166986
    Total Energy =                       -590.6873253069834391
  Basis Set: (AUG-CC-PVTZ AUX)
    Blend: AUG-CC-PVTZ-RI
    Molecular point group: c1

    Geometry (in Angstrom), charge = 0, multiplicity = 1:

       Center              X                  Y                   Z               Mass
    ------------   -----------------  -----------------  -----------------  -----------------
         S            0.475526107866     0.107357922052    -0.397607007719    31.972071174400
         O            0.401461807866     1.473410922052     0.387072092281    15.994914619570
         C           -0.961014192134    -0.829429077948     0.204447092281    12.000000000000
         C           -2.280968192134    -0.096745077948     0.010016092281    12.000000000000
         C            1.735367807866    -0.848538077948     0.182928092281    12.000000000000
         H           -0.936582192134    -1.784995077948    -0.331350907719     1.007825032230
         H           -0.767877192134    -1.008996077948     1.267804092281     1.007825032230
         H           -2.244178192134     0.870595922052     0.515129092281     1.007825032230
         H           -2.486515192134     0.073850922052    -1.050417907719     1.007825032230
         H           -3.104130192134    -0.680669077948     0.428848092281     1.007825032230
         H            2.679054807866    -0.379632077948    -0.101681907719     1.007825032230
         H            1.668680807866    -1.844715077948    -0.262312907719     1.007825032230
         H            1.673548807866    -0.904150077948     1.272815092281     1.007825032230

  Basis Set: AUG-CC-PVTZ
    Blend: AUG-CC-PVTZ
  Basis Set: (AUG-CC-PVTZ AUX)
    Blend: AUG-CC-PVTZ-JKFIT
	 Reference Energy          =    -590.6873253069834391 [Eh]
	 Singles Energy            =      -0.0000000000000000 [Eh]
	 Same-Spin Energy          =      -0.2547493264128208 [Eh]
	 Opposite-Spin Energy      =      -0.8386247570569194 [Eh]
	 Correlation Energy        =      -1.0933740834697403 [Eh]
	 Total Energy              =    -591.7806993904531510 [Eh]

	 ================> DF-SCS-MP2 Energies <==================
	-----------------------------------------------------------
	 SCS Same-Spin Scale       =       0.3333333333333333 [-]
	 SCS Opposite-Spin Scale   =       1.2000000000000000 [-]
	 SCS Same-Spin Energy      =      -0.0849164421376069 [Eh]
	 SCS Opposite-Spin Energy  =      -1.0063497084683033 [Eh]
	 SCS Correlation Energy    =      -1.0912661506059103 [Eh]
	 SCS Total Energy          =    -591.7785914575893003 [Eh]
	-----------------------------------------------------------

  Dipole Moment: [D]
     X:    -0.0146      Y:    -4.5466      Z:    -0.3917     Total:     4.5635

*** Psi4 exiting successfully. Buy a developer a beer!
