                               Psi4 1.3.2 release

  ==> Input File <==

--------------------------------------------------------------------------
#psi4
#
memory 32 gb

molecule  {
0 1
  S        0.4132600     0.2703921    -0.4539923
  O        0.4618440     1.4999320     0.3808610
  C       -0.9006320    -0.8029080     0.1982360
  C       -2.2205860    -0.0702240     0.0038050
  C        1.7957500    -0.8220170     0.1767170
  H       -0.8762000    -1.7584740    -0.3375620
  H       -0.7074950    -0.9824750     1.2615930
  H       -2.1837960     0.8971170     0.5089180
  H       -2.4261330     0.1003720    -1.0566290
  H       -3.0437480    -0.6541480     0.4226370
  H        2.7394370    -0.3531110    -0.1078930
  H        1.7290630    -1.8181940    -0.2685240
  H        1.7339310    -0.8776290     1.2666040
units angstrom
no_reorient  #important for SAPT in psi4, default
symmetry c1  #important for SAPT in psi4, default
}

set PROPERTIES_ORIGIN ["COM"]
properties('MP2/aug-cc-pvtz', properties = ['dipole'])
--------------------------------------------------------------------------

    Molecular point group: c1
  Charge       = 0
  Multiplicity = 1
  Basis Set: AUG-CC-PVTZ
    Blend: AUG-CC-PVTZ
  Basis Set: (AUG-CC-PVTZ AUX)
    Blend: AUG-CC-PVTZ-JKFIT

    Orbital Energies [Eh]
    ---------------------

    Doubly Occupied:

       1A    -92.068048     2A    -20.504518     3A    -11.265758
       4A    -11.262362     5A    -11.230564     6A     -9.054349
       7A     -6.735881     8A     -6.735756     9A     -6.734412
      10A     -1.339480    11A     -1.078739    12A     -1.002302
      13A     -0.889921    14A     -0.801917    15A     -0.651825
      16A     -0.634917    17A     -0.604991    18A     -0.598326
      19A     -0.572857    20A     -0.531579    21A     -0.530448
      22A     -0.519923    23A     -0.506631    24A     -0.410718
      25A     -0.366886

  @DF-RHF Final Energy:  -590.69893697932628

   => Energetics <=

    Nuclear Repulsion Energy =            252.2752345257778757
    One-Electron Energy =               -1312.6821284969435055
    Two-Electron Energy =                 469.7079569918393531
    Total Energy =                       -590.6989369793261631
  Basis Set: (AUG-CC-PVTZ AUX)
    Blend: AUG-CC-PVTZ-RI
    Molecular point group: c1

    Geometry (in Angstrom), charge = 0, multiplicity = 1:

       Center              X                  Y                   Z               Mass
    ------------   -----------------  -----------------  -----------------  -----------------
         S            0.395487150636     0.196444898164    -0.430350149270    31.972071174400
         O            0.444071150636     1.425984798164     0.404503150730    15.994914619570
         C           -0.918404849364    -0.876855201836     0.221878150730    12.000000000000
         C           -2.238358849364    -0.144171201836     0.027447150730    12.000000000000
         C            1.777977150636    -0.895964201836     0.200359150730    12.000000000000
         H           -0.893972849364    -1.832421201836    -0.313919849270     1.007825032230
         H           -0.725267849364    -1.056422201836     1.285235150730     1.007825032230
         H           -2.201568849364     0.823169798164     0.532560150730     1.007825032230
         H           -2.443905849364     0.026424798164    -1.032986849270     1.007825032230
         H           -3.061520849364    -0.728095201836     0.446279150730     1.007825032230
         H            2.721664150636    -0.427058201836    -0.084250849270     1.007825032230
         H            1.711290150636    -1.892141201836    -0.244881849270     1.007825032230
         H            1.716158150636    -0.951576201836     1.290246150730     1.007825032230

  Basis Set: AUG-CC-PVTZ
    Blend: AUG-CC-PVTZ
  Basis Set: (AUG-CC-PVTZ AUX)
    Blend: AUG-CC-PVTZ-JKFIT
	 Reference Energy          =    -590.6989369793262767 [Eh]
	 Singles Energy            =      -0.0000000000000000 [Eh]
	 Same-Spin Energy          =      -0.2533537456458502 [Eh]
	 Opposite-Spin Energy      =      -0.8375183197800403 [Eh]
	 Correlation Energy        =      -1.0908720654258905 [Eh]
	 Total Energy              =    -591.7898090447521326 [Eh]

	 ================> DF-SCS-MP2 Energies <==================
	-----------------------------------------------------------
	 SCS Same-Spin Scale       =       0.3333333333333333 [-]
	 SCS Opposite-Spin Scale   =       1.2000000000000000 [-]
	 SCS Same-Spin Energy      =      -0.0844512485486167 [Eh]
	 SCS Opposite-Spin Energy  =      -1.0050219837360483 [Eh]
	 SCS Correlation Energy    =      -1.0894732322846652 [Eh]
	 SCS Total Energy          =    -591.7884102116109943 [Eh]
	-----------------------------------------------------------

  Dipole Moment: [D]
     X:    -0.3939      Y:    -3.7745      Z:    -0.4672     Total:     3.8237

*** Psi4 exiting successfully. Buy a developer a beer!
