                               Psi4 1.3.2 release

  ==> Input File <==

--------------------------------------------------------------------------
#psi4
#
memory 32 gb

molecule  {
0 1
  S        0.4558120     0.2261230    -0.4380360
  O        0.4618440     1.4999320     0.3808610
  C       -0.9006320    -0.8029080     0.1982360
  C       -2.2205860    -0.0702240     0.0038050
  C        1.7957500    -0.8220170     0.1767170
  H       -0.8762000    -1.7584740    -0.3375620
  H       -0.7074950    -0.9824750     1.2615930
  H       -2.1837960     0.8971170     0.5089180
  H       -2.4261330     0.1003720    -1.0566290
  H       -3.0437480    -0.6541480     0.4226370
  H        2.7394370    -0.3531110    -0.1078930
  H        1.7290630    -1.8181940    -0.2685240
  H        1.7339310    -0.8776290     1.2666040
units angstrom
no_reorient  #important for SAPT in psi4, default
symmetry c1  #important for SAPT in psi4, default
}

set PROPERTIES_ORIGIN ["COM"]
properties('MP2/aug-cc-pvtz', properties = ['dipole'])
--------------------------------------------------------------------------

    Molecular point group: c1
  Charge       = 0
  Multiplicity = 1
  Basis Set: AUG-CC-PVTZ
    Blend: AUG-CC-PVTZ
  Basis Set: (AUG-CC-PVTZ AUX)
    Blend: AUG-CC-PVTZ-JKFIT

    Orbital Energies [Eh]
    ---------------------

    Doubly Occupied:

       1A    -92.065550     2A    -20.502100     3A    -11.267594
       4A    -11.263804     5A    -11.230996     6A     -9.052549
       7A     -6.734229     8A     -6.733968     9A     -6.732668
      10A     -1.323097    11A     -1.081883    12A     -1.014648
      13A     -0.891374    14A     -0.801693    15A     -0.653116
      16A     -0.635963    17A     -0.609859    18A     -0.603979
      19A     -0.569519    20A     -0.529156    21A     -0.526808
      22A     -0.519976    23A     -0.501401    24A     -0.413788
      25A     -0.365440

  @DF-RHF Final Energy:  -590.70077877066933

   => Energetics <=

    Nuclear Repulsion Energy =            252.3413543101996197
    One-Electron Energy =               -1312.8339496241446795
    Two-Electron Energy =                 469.7918165432756155
    Total Energy =                       -590.7007787706693307
  Basis Set: (AUG-CC-PVTZ AUX)
    Blend: AUG-CC-PVTZ-RI
    Molecular point group: c1

    Geometry (in Angstrom), charge = 0, multiplicity = 1:

       Center              X                  Y                   Z               Mass
    ------------   -----------------  -----------------  -----------------  -----------------
         S            0.423256126709     0.167555361158    -0.419937240055    31.972071174400
         O            0.429288126709     1.441364361158     0.398959759945    15.994914619570
         C           -0.933187873291    -0.861475638842     0.216334759945    12.000000000000
         C           -2.253141873291    -0.128791638842     0.021903759945    12.000000000000
         C            1.763194126709    -0.880584638842     0.194815759945    12.000000000000
         H           -0.908755873291    -1.817041638842    -0.319463240055     1.007825032230
         H           -0.740050873291    -1.041042638842     1.279691759945     1.007825032230
         H           -2.216351873291     0.838549361158     0.527016759945     1.007825032230
         H           -2.458688873291     0.041804361158    -1.038530240055     1.007825032230
         H           -3.076303873291    -0.712715638842     0.440735759945     1.007825032230
         H            2.706881126709    -0.411678638842    -0.089794240055     1.007825032230
         H            1.696507126709    -1.876761638842    -0.250425240055     1.007825032230
         H            1.701375126709    -0.936196638842     1.284702759945     1.007825032230

  Basis Set: AUG-CC-PVTZ
    Blend: AUG-CC-PVTZ
  Basis Set: (AUG-CC-PVTZ AUX)
    Blend: AUG-CC-PVTZ-JKFIT
	 Reference Energy          =    -590.7007787706693307 [Eh]
	 Singles Energy            =      -0.0000000000000000 [Eh]
	 Same-Spin Energy          =      -0.2536685079764476 [Eh]
	 Opposite-Spin Energy      =      -0.8375570942865476 [Eh]
	 Correlation Energy        =      -1.0912256022629951 [Eh]
	 Total Energy              =    -591.7920043729322970 [Eh]

	 ================> DF-SCS-MP2 Energies <==================
	-----------------------------------------------------------
	 SCS Same-Spin Scale       =       0.3333333333333333 [-]
	 SCS Opposite-Spin Scale   =       1.2000000000000000 [-]
	 SCS Same-Spin Energy      =      -0.0845561693254825 [Eh]
	 SCS Opposite-Spin Energy  =      -1.0050685131438570 [Eh]
	 SCS Correlation Energy    =      -1.0896246824693396 [Eh]
	 SCS Total Energy          =    -591.7904034531386515 [Eh]
	-----------------------------------------------------------

  Dipole Moment: [D]
     X:    -0.2606      Y:    -4.0287      Z:    -0.4391     Total:     4.0609

*** Psi4 exiting successfully. Buy a developer a beer!
