                               Psi4 1.3.2 release

  ==> Input File <==

--------------------------------------------------------------------------
#psi4
#
memory 32 gb

molecule  {
0 1
  S        0.4764714     0.2035149    -0.4297659
  O        0.4618440     1.4999320     0.3808610
  C       -0.9006320    -0.8029080     0.1982360
  C       -2.2205860    -0.0702240     0.0038050
  C        1.7957500    -0.8220170     0.1767170
  H       -0.8762000    -1.7584740    -0.3375620
  H       -0.7074950    -0.9824750     1.2615930
  H       -2.1837960     0.8971170     0.5089180
  H       -2.4261330     0.1003720    -1.0566290
  H       -3.0437480    -0.6541480     0.4226370
  H        2.7394370    -0.3531110    -0.1078930
  H        1.7290630    -1.8181940    -0.2685240
  H        1.7339310    -0.8776290     1.2666040
units angstrom
no_reorient  #important for SAPT in psi4, default
symmetry c1  #important for SAPT in psi4, default
}

set PROPERTIES_ORIGIN ["COM"]
properties('MP2/aug-cc-pvtz', properties = ['dipole'])
--------------------------------------------------------------------------

    Molecular point group: c1
  Charge       = 0
  Multiplicity = 1
  Basis Set: AUG-CC-PVTZ
    Blend: AUG-CC-PVTZ
  Basis Set: (AUG-CC-PVTZ AUX)
    Blend: AUG-CC-PVTZ-JKFIT

    Orbital Energies [Eh]
    ---------------------

    Doubly Occupied:

       1A    -92.064060     2A    -20.500970     3A    -11.268534
       4A    -11.264403     5A    -11.231238     6A     -9.051551
       7A     -6.733309     8A     -6.732974     9A     -6.731674
      10A     -1.314853    11A     -1.084241    12A     -1.020611
      13A     -0.892110    14A     -0.801630    15A     -0.654085
      16A     -0.636931    17A     -0.612554    18A     -0.606880
      19A     -0.567745    20A     -0.528739    21A     -0.525527
      22A     -0.519321    23A     -0.497898    24A     -0.414505
      25A     -0.364576

  @DF-RHF Final Energy:  -590.69971951161267

   => Energetics <=

    Nuclear Repulsion Energy =            252.3884046772415104
    One-Electron Energy =               -1312.9344103685527898
    Two-Electron Energy =                 469.8462861796984953
    Total Energy =                       -590.6997195116126704
  Basis Set: (AUG-CC-PVTZ AUX)
    Blend: AUG-CC-PVTZ-RI
    Molecular point group: c1

    Geometry (in Angstrom), charge = 0, multiplicity = 1:

       Center              X                  Y                   Z               Mass
    ------------   -----------------  -----------------  -----------------  -----------------
         S            0.436738228238     0.152801559035    -0.414540262028    31.972071174400
         O            0.422110828238     1.449218659035     0.396086637972    15.994914619570
         C           -0.940365171762    -0.853621340965     0.213461637972    12.000000000000
         C           -2.260319171762    -0.120937340965     0.019030637972    12.000000000000
         C            1.756016828238    -0.872730340965     0.191942637972    12.000000000000
         H           -0.915933171762    -1.809187340965    -0.322336362028     1.007825032230
         H           -0.747228171762    -1.033188340965     1.276818637972     1.007825032230
         H           -2.223529171762     0.846403659035     0.524143637972     1.007825032230
         H           -2.465866171762     0.049658659035    -1.041403362028     1.007825032230
         H           -3.083481171762    -0.704861340965     0.437862637972     1.007825032230
         H            2.699703828238    -0.403824340965    -0.092667362028     1.007825032230
         H            1.689329828238    -1.868907340965    -0.253298362028     1.007825032230
         H            1.694197828238    -0.928342340965     1.281829637972     1.007825032230

  Basis Set: AUG-CC-PVTZ
    Blend: AUG-CC-PVTZ
  Basis Set: (AUG-CC-PVTZ AUX)
    Blend: AUG-CC-PVTZ-JKFIT
	 Reference Energy          =    -590.6997195116126704 [Eh]
	 Singles Energy            =      -0.0000000000000000 [Eh]
	 Same-Spin Energy          =      -0.2538850013399615 [Eh]
	 Opposite-Spin Energy      =      -0.8377046018695192 [Eh]
	 Correlation Energy        =      -1.0915896032094807 [Eh]
	 Total Energy              =    -591.7913091148221838 [Eh]

	 ================> DF-SCS-MP2 Energies <==================
	-----------------------------------------------------------
	 SCS Same-Spin Scale       =       0.3333333333333333 [-]
	 SCS Opposite-Spin Scale   =       1.2000000000000000 [-]
	 SCS Same-Spin Energy      =      -0.0846283337799872 [Eh]
	 SCS Opposite-Spin Energy  =      -1.0052455222434231 [Eh]
	 SCS Correlation Energy    =      -1.0898738560234102 [Eh]
	 SCS Total Energy          =    -591.7895933676360301 [Eh]
	-----------------------------------------------------------

  Dipole Moment: [D]
     X:    -0.1969      Y:    -4.1571      Z:    -0.4259     Total:     4.1835

*** Psi4 exiting successfully. Buy a developer a beer!
