                               Psi4 1.3.2 release

  ==> Input File <==

--------------------------------------------------------------------------
#psi4
#
memory 32 gb

molecule  {
0 1
  S        0.5733550     0.0860166    -0.3855983
  O        0.4618440     1.4999320     0.3808610
  C       -0.9006320    -0.8029080     0.1982360
  C       -2.2205860    -0.0702240     0.0038050
  C        1.7957500    -0.8220170     0.1767170
  H       -0.8762000    -1.7584740    -0.3375620
  H       -0.7074950    -0.9824750     1.2615930
  H       -2.1837960     0.8971170     0.5089180
  H       -2.4261330     0.1003720    -1.0566290
  H       -3.0437480    -0.6541480     0.4226370
  H        2.7394370    -0.3531110    -0.1078930
  H        1.7290630    -1.8181940    -0.2685240
  H        1.7339310    -0.8776290     1.2666040
units angstrom
no_reorient  #important for SAPT in psi4, default
symmetry c1  #important for SAPT in psi4, default
}

set PROPERTIES_ORIGIN ["COM"]
properties('MP2/aug-cc-pvtz', properties = ['dipole'])
--------------------------------------------------------------------------

    Molecular point group: c1
  Charge       = 0
  Multiplicity = 1
  Basis Set: AUG-CC-PVTZ
    Blend: AUG-CC-PVTZ
  Basis Set: (AUG-CC-PVTZ AUX)
    Blend: AUG-CC-PVTZ-JKFIT

    Orbital Energies [Eh]
    ---------------------

    Doubly Occupied:

       1A    -92.053253     2A    -20.496258     3A    -11.273050
       4A    -11.266119     5A    -11.232522     6A     -9.044938
       7A     -6.727216     8A     -6.726218     9A     -6.724829
      10A     -1.276604    11A     -1.107206    12A     -1.042878
      13A     -0.895789    14A     -0.801292    15A     -0.663522
      16A     -0.647708    17A     -0.625771    18A     -0.620926
      19A     -0.560249    20A     -0.536045    21A     -0.522134
      22A     -0.505298    23A     -0.473915    24A     -0.411371
      25A     -0.359270

  @DF-RHF Final Energy:  -590.67012326506051

   => Energetics <=

    Nuclear Repulsion Energy =            252.8440243133129286
    One-Electron Energy =               -1313.8395331625401923
    Two-Electron Energy =                 470.3253855841666677
    Total Energy =                       -590.6701232650605107
  Basis Set: (AUG-CC-PVTZ AUX)
    Blend: AUG-CC-PVTZ-RI
    Molecular point group: c1

    Geometry (in Angstrom), charge = 0, multiplicity = 1:

       Center              X                  Y                   Z               Mass
    ------------   -----------------  -----------------  -----------------  -----------------
         S            0.499963420244     0.076123436237    -0.385716962827    31.972071174400
         O            0.388452420244     1.490038836237     0.380742337173    15.994914619570
         C           -0.974023579756    -0.812801163763     0.198117337173    12.000000000000
         C           -2.293977579756    -0.080117163763     0.003686337173    12.000000000000
         C            1.722358420244    -0.831910163763     0.176598337173    12.000000000000
         H           -0.949591579756    -1.768367163763    -0.337680662827     1.007825032230
         H           -0.780886579756    -0.992368163763     1.261474337173     1.007825032230
         H           -2.257187579756     0.887223836237     0.508799337173     1.007825032230
         H           -2.499524579756     0.090478836237    -1.056747662827     1.007825032230
         H           -3.117139579756    -0.664041163763     0.422518337173     1.007825032230
         H            2.666045420244    -0.363004163763    -0.108011662827     1.007825032230
         H            1.655671420244    -1.828087163763    -0.268642662827     1.007825032230
         H            1.660539420244    -0.887522163763     1.266485337173     1.007825032230

  Basis Set: AUG-CC-PVTZ
    Blend: AUG-CC-PVTZ
  Basis Set: (AUG-CC-PVTZ AUX)
    Blend: AUG-CC-PVTZ-JKFIT
	 Reference Energy          =    -590.6701232650605107 [Eh]
	 Singles Energy            =      -0.0000000000000000 [Eh]
	 Same-Spin Energy          =      -0.2554859419748227 [Eh]
	 Opposite-Spin Energy      =      -0.8396084882274333 [Eh]
	 Correlation Energy        =      -1.0950944302022561 [Eh]
	 Total Energy              =    -591.7652176952627769 [Eh]

	 ================> DF-SCS-MP2 Energies <==================
	-----------------------------------------------------------
	 SCS Same-Spin Scale       =       0.3333333333333333 [-]
	 SCS Opposite-Spin Scale   =       1.2000000000000000 [-]
	 SCS Same-Spin Energy      =      -0.0851619806582742 [Eh]
	 SCS Opposite-Spin Energy  =      -1.0075301858729200 [Eh]
	 SCS Correlation Energy    =      -1.0926921665311942 [Eh]
	 SCS Total Energy          =    -591.7628154315916618 [Eh]
	-----------------------------------------------------------

  Dipole Moment: [D]
     X:     0.1029      Y:    -4.8108      Z:    -0.3751     Total:     4.8265

*** Psi4 exiting successfully. Buy a developer a beer!
