                               Psi4 1.3.2 release

  ==> Input File <==

--------------------------------------------------------------------------
#psi4
#
memory 32 gb

molecule  {
0 1
  S        0.4347394     0.2484177    -0.4461123
  O        0.4618440     1.4999320     0.3808610
  C       -0.9006320    -0.8029080     0.1982360
  C       -2.2205860    -0.0702240     0.0038050
  C        1.7957500    -0.8220170     0.1767170
  H       -0.8762000    -1.7584740    -0.3375620
  H       -0.7074950    -0.9824750     1.2615930
  H       -2.1837960     0.8971170     0.5089180
  H       -2.4261330     0.1003720    -1.0566290
  H       -3.0437480    -0.6541480     0.4226370
  H        2.7394370    -0.3531110    -0.1078930
  H        1.7290630    -1.8181940    -0.2685240
  H        1.7339310    -0.8776290     1.2666040
units angstrom
no_reorient  #important for SAPT in psi4, default
symmetry c1  #important for SAPT in psi4, default
}

set PROPERTIES_ORIGIN ["COM"]
properties('MP2/aug-cc-pvtz', properties = ['dipole'])
--------------------------------------------------------------------------

    Molecular point group: c1
  Charge       = 0
  Multiplicity = 1
  Basis Set: AUG-CC-PVTZ
    Blend: AUG-CC-PVTZ
  Basis Set: (AUG-CC-PVTZ AUX)
    Blend: AUG-CC-PVTZ-JKFIT

    Orbital Energies [Eh]
    ---------------------

    Doubly Occupied:

       1A    -92.066871     2A    -20.503285     3A    -11.266665
       4A    -11.263121     5A    -11.230770     6A     -9.053476
       7A     -6.735081     8A     -6.734888     9A     -6.733575
      10A     -1.331330    11A     -1.080083    12A     -1.008501
      13A     -0.890643    14A     -0.801785    15A     -0.652370
      16A     -0.635300    17A     -0.607313    18A     -0.601123
      19A     -0.571249    20A     -0.530164    21A     -0.528511
      22A     -0.520041    23A     -0.504313    24A     -0.412523
      25A     -0.366217

  @DF-RHF Final Energy:  -590.70048445606017

   => Energetics <=

    Nuclear Repulsion Energy =            252.3043308886215641
    One-Electron Energy =               -1312.7512368752818475
    Two-Electron Energy =                 469.7464215306001734
    Total Energy =                       -590.7004844560601668
  Basis Set: (AUG-CC-PVTZ AUX)
    Blend: AUG-CC-PVTZ-RI
    Molecular point group: c1

    Geometry (in Angstrom), charge = 0, multiplicity = 1:

       Center              X                  Y                   Z               Mass
    ------------   -----------------  -----------------  -----------------  -----------------
         S            0.409504375318     0.182104641823    -0.425207746293    31.972071174400
         O            0.436608975318     1.433618941823     0.401765553707    15.994914619570
         C           -0.925867024682    -0.869221058177     0.219140553707    12.000000000000
         C           -2.245821024682    -0.136537058177     0.024709553707    12.000000000000
         C            1.770514975318    -0.888330058177     0.197621553707    12.000000000000
         H           -0.901435024682    -1.824787058177    -0.316657446293     1.007825032230
         H           -0.732730024682    -1.048788058177     1.282497553707     1.007825032230
         H           -2.209031024682     0.830803941823     0.529822553707     1.007825032230
         H           -2.451368024682     0.034058941823    -1.035724446293     1.007825032230
         H           -3.068983024682    -0.720461058177     0.443541553707     1.007825032230
         H            2.714201975318    -0.419424058177    -0.086988446293     1.007825032230
         H            1.703827975318    -1.884507058177    -0.247619446293     1.007825032230
         H            1.708695975318    -0.943942058177     1.287508553707     1.007825032230

  Basis Set: AUG-CC-PVTZ
    Blend: AUG-CC-PVTZ
  Basis Set: (AUG-CC-PVTZ AUX)
    Blend: AUG-CC-PVTZ-JKFIT
	 Reference Energy          =    -590.7004844560601668 [Eh]
	 Singles Energy            =      -0.0000000000000000 [Eh]
	 Same-Spin Energy          =      -0.2534908754317713 [Eh]
	 Opposite-Spin Energy      =      -0.8374940563188642 [Eh]
	 Correlation Energy        =      -1.0909849317506355 [Eh]
	 Total Energy              =    -591.7914693878108210 [Eh]

	 ================> DF-SCS-MP2 Energies <==================
	-----------------------------------------------------------
	 SCS Same-Spin Scale       =       0.3333333333333333 [-]
	 SCS Opposite-Spin Scale   =       1.2000000000000000 [-]
	 SCS Same-Spin Energy      =      -0.0844969584772571 [Eh]
	 SCS Opposite-Spin Energy  =      -1.0049928675826370 [Eh]
	 SCS Correlation Energy    =      -1.0894898260598940 [Eh]
	 SCS Total Energy          =    -591.7899742821200562 [Eh]
	-----------------------------------------------------------

  Dipole Moment: [D]
     X:    -0.3262      Y:    -3.9011      Z:    -0.4530     Total:     3.9409

*** Psi4 exiting successfully. Buy a developer a beer!
