                               Psi4 1.3.2 release

  ==> Input File <==

--------------------------------------------------------------------------
#psi4
#
memory 32 gb

molecule  {
0 1
  S        0.3691072     0.3133536    -0.4691540
  O        0.4618440     1.4999320     0.3808610
  C       -0.9006320    -0.8029080     0.1982360
  C       -2.2205860    -0.0702240     0.0038050
  C        1.7957500    -0.8220170     0.1767170
  H       -0.8762000    -1.7584740    -0.3375620
  H       -0.7074950    -0.9824750     1.2615930
  H       -2.1837960     0.8971170     0.5089180
  H       -2.4261330     0.1003720    -1.0566290
  H       -3.0437480    -0.6541480     0.4226370
  H        2.7394370    -0.3531110    -0.1078930
  H        1.7290630    -1.8181940    -0.2685240
  H        1.7339310    -0.8776290     1.2666040
units angstrom
no_reorient  #important for SAPT in psi4, default
symmetry c1  #important for SAPT in psi4, default
}

set PROPERTIES_ORIGIN ["COM"]
properties('MP2/aug-cc-pvtz', properties = ['dipole'])
--------------------------------------------------------------------------

    Molecular point group: c1
  Charge       = 0
  Multiplicity = 1
  Basis Set: AUG-CC-PVTZ
    Blend: AUG-CC-PVTZ
  Basis Set: (AUG-CC-PVTZ AUX)
    Blend: AUG-CC-PVTZ-JKFIT

    Orbital Energies [Eh]
    ---------------------

    Doubly Occupied:

       1A    -92.070077     2A    -20.507103     3A    -11.264048
       4A    -11.260643     5A    -11.230237     6A     -9.056005
       7A     -6.737413     8A     -6.737390     9A     -6.735955
      10A     -1.355272    11A     -1.077102    12A     -0.990133
      13A     -0.888514    14A     -0.802354    15A     -0.651274
      16A     -0.634891    17A     -0.601359    18A     -0.592935
      19A     -0.575362    20A     -0.536403    21A     -0.533143
      22A     -0.519970    23A     -0.509775    24A     -0.405699
      25A     -0.367746

  @DF-RHF Final Energy:  -590.69246736695220

   => Energetics <=

    Nuclear Repulsion Energy =            252.2323026529819003
    One-Electron Energy =               -1312.5679288686135351
    Two-Electron Energy =                 469.6431588486794908
    Total Energy =                       -590.6924673669522008
  Basis Set: (AUG-CC-PVTZ AUX)
    Blend: AUG-CC-PVTZ-RI
    Molecular point group: c1

    Geometry (in Angstrom), charge = 0, multiplicity = 1:

       Center              X                  Y                   Z               Mass
    ------------   -----------------  -----------------  -----------------  -----------------
         S            0.366673509755     0.224481109518    -0.440244511098    31.972071174400
         O            0.459410309755     1.411059509518     0.409770488902    15.994914619570
         C           -0.903065690245    -0.891780490482     0.227145488902    12.000000000000
         C           -2.223019690245    -0.159096490482     0.032714488902    12.000000000000
         C            1.793316309755    -0.910889490482     0.205626488902    12.000000000000
         H           -0.878633690245    -1.847346490482    -0.308652511098     1.007825032230
         H           -0.709928690245    -1.071347490482     1.290502488902     1.007825032230
         H           -2.186229690245     0.808244509518     0.537827488902     1.007825032230
         H           -2.428566690245     0.011499509518    -1.027719511098     1.007825032230
         H           -3.046181690245    -0.743020490482     0.451546488902     1.007825032230
         H            2.737003309755    -0.441983490482    -0.078983511098     1.007825032230
         H            1.726629309755    -1.907066490482    -0.239614511098     1.007825032230
         H            1.731497309755    -0.966501490482     1.295513488902     1.007825032230

  Basis Set: AUG-CC-PVTZ
    Blend: AUG-CC-PVTZ
  Basis Set: (AUG-CC-PVTZ AUX)
    Blend: AUG-CC-PVTZ-JKFIT
	 Reference Energy          =    -590.6924673669522008 [Eh]
	 Singles Energy            =      -0.0000000000000000 [Eh]
	 Same-Spin Energy          =      -0.2532066683992973 [Eh]
	 Opposite-Spin Energy      =      -0.8378393680033093 [Eh]
	 Correlation Energy        =      -1.0910460364026067 [Eh]
	 Total Energy              =    -591.7835134033548457 [Eh]

	 ================> DF-SCS-MP2 Energies <==================
	-----------------------------------------------------------
	 SCS Same-Spin Scale       =       0.3333333333333333 [-]
	 SCS Opposite-Spin Scale   =       1.2000000000000000 [-]
	 SCS Same-Spin Energy      =      -0.0844022227997658 [Eh]
	 SCS Opposite-Spin Energy  =      -1.0054072416039710 [Eh]
	 SCS Correlation Energy    =      -1.0898094644037368 [Eh]
	 SCS Total Energy          =    -591.7822768313559436 [Eh]
	-----------------------------------------------------------

  Dipole Moment: [D]
     X:    -0.5361      Y:    -3.5251      Z:    -0.4960     Total:     3.6000

*** Psi4 exiting successfully. Buy a developer a beer!
