                               Psi4 1.3.2 release

  ==> Input File <==

--------------------------------------------------------------------------
#psi4
#
memory 32 gb

molecule  {
0 1
  S        0.3234075     0.3549551    -0.4835026
  O        0.4618440     1.4999320     0.3808610
  C       -0.9006320    -0.8029080     0.1982360
  C       -2.2205860    -0.0702240     0.0038050
  C        1.7957500    -0.8220170     0.1767170
  H       -0.8762000    -1.7584740    -0.3375620
  H       -0.7074950    -0.9824750     1.2615930
  H       -2.1837960     0.8971170     0.5089180
  H       -2.4261330     0.1003720    -1.0566290
  H       -3.0437480    -0.6541480     0.4226370
  H        2.7394370    -0.3531110    -0.1078930
  H        1.7290630    -1.8181940    -0.2685240
  H        1.7339310    -0.8776290     1.2666040
units angstrom
no_reorient  #important for SAPT in psi4, default
symmetry c1  #important for SAPT in psi4, default
}

set PROPERTIES_ORIGIN ["COM"]
properties('MP2/aug-cc-pvtz', properties = ['dipole'])
--------------------------------------------------------------------------

    Molecular point group: c1
  Charge       = 0
  Multiplicity = 1
  Basis Set: AUG-CC-PVTZ
    Blend: AUG-CC-PVTZ
  Basis Set: (AUG-CC-PVTZ AUX)
    Blend: AUG-CC-PVTZ-JKFIT

    Orbital Energies [Eh]
    ---------------------

    Doubly Occupied:

       1A    -92.071832     2A    -20.509804     3A    -11.262536
       4A    -11.258715     5A    -11.230056     6A     -9.057647
       7A     -6.739069     8A     -6.738881     9A     -6.737437
      10A     -1.369990    11A     -1.076520    12A     -0.978682
      13A     -0.887178    14A     -0.803095    15A     -0.651369
      16A     -0.635686    17A     -0.599557    18A     -0.587847
      19A     -0.576423    20A     -0.541973    21A     -0.535047
      22A     -0.520641    23A     -0.511632    24A     -0.399622
      25A     -0.367445

  @DF-RHF Final Energy:  -590.68212191455666

   => Energetics <=

    Nuclear Repulsion Energy =            252.1955416368152498
    One-Electron Energy =               -1312.4579548908427569
    Two-Electron Energy =                 469.5802913394708185
    Total Energy =                       -590.6821219145566602
  Basis Set: (AUG-CC-PVTZ AUX)
    Blend: AUG-CC-PVTZ-RI
    Molecular point group: c1

    Geometry (in Angstrom), charge = 0, multiplicity = 1:

       Center              X                  Y                   Z               Mass
    ------------   -----------------  -----------------  -----------------  -----------------
         S            0.336850378625     0.251629799547    -0.449608252640    31.972071174400
         O            0.475286878625     1.396606699547     0.414755347360    15.994914619570
         C           -0.887189121375    -0.906233300453     0.232130347360    12.000000000000
         C           -2.207143121375    -0.173549300453     0.037699347360    12.000000000000
         C            1.809192878625    -0.925342300453     0.210611347360    12.000000000000
         H           -0.862757121375    -1.861799300453    -0.303667652640     1.007825032230
         H           -0.694052121375    -1.085800300453     1.295487347360     1.007825032230
         H           -2.170353121375     0.793791699547     0.542812347360     1.007825032230
         H           -2.412690121375    -0.002953300453    -1.022734652640     1.007825032230
         H           -3.030305121375    -0.757473300453     0.456531347360     1.007825032230
         H            2.752879878625    -0.456436300453    -0.073998652640     1.007825032230
         H            1.742505878625    -1.921519300453    -0.234629652640     1.007825032230
         H            1.747373878625    -0.980954300453     1.300498347360     1.007825032230

  Basis Set: AUG-CC-PVTZ
    Blend: AUG-CC-PVTZ
  Basis Set: (AUG-CC-PVTZ AUX)
    Blend: AUG-CC-PVTZ-JKFIT
	 Reference Energy          =    -590.6821219145566602 [Eh]
	 Singles Energy            =      -0.0000000000000000 [Eh]
	 Same-Spin Energy          =      -0.2532368193617570 [Eh]
	 Opposite-Spin Energy      =      -0.8385397655675917 [Eh]
	 Correlation Energy        =      -1.0917765849293488 [Eh]
	 Total Energy              =    -591.7738984994859948 [Eh]

	 ================> DF-SCS-MP2 Energies <==================
	-----------------------------------------------------------
	 SCS Same-Spin Scale       =       0.3333333333333333 [-]
	 SCS Opposite-Spin Scale   =       1.2000000000000000 [-]
	 SCS Same-Spin Energy      =      -0.0844122731205857 [Eh]
	 SCS Opposite-Spin Energy  =      -1.0062477186811101 [Eh]
	 SCS Correlation Energy    =      -1.0906599918016957 [Eh]
	 SCS Total Energy          =    -591.7727819063583183 [Eh]
	-----------------------------------------------------------

  Dipole Moment: [D]
     X:    -0.6877      Y:    -3.2826      Z:    -0.5240     Total:     3.3946

*** Psi4 exiting successfully. Buy a developer a beer!
