                               Psi4 1.3.2 release

  ==> Input File <==

--------------------------------------------------------------------------
#psi4
#
memory 32 gb

molecule  {
0 1
  S        0.4967114     0.1806001    -0.4213045
  O        0.4618440     1.4999320     0.3808610
  C       -0.9006320    -0.8029080     0.1982360
  C       -2.2205860    -0.0702240     0.0038050
  C        1.7957500    -0.8220170     0.1767170
  H       -0.8762000    -1.7584740    -0.3375620
  H       -0.7074950    -0.9824750     1.2615930
  H       -2.1837960     0.8971170     0.5089180
  H       -2.4261330     0.1003720    -1.0566290
  H       -3.0437480    -0.6541480     0.4226370
  H        2.7394370    -0.3531110    -0.1078930
  H        1.7290630    -1.8181940    -0.2685240
  H        1.7339310    -0.8776290     1.2666040
units angstrom
no_reorient  #important for SAPT in psi4, default
symmetry c1  #important for SAPT in psi4, default
}

set PROPERTIES_ORIGIN ["COM"]
properties('MP2/aug-cc-pvtz', properties = ['dipole'])
--------------------------------------------------------------------------

    Molecular point group: c1
  Charge       = 0
  Multiplicity = 1
  Basis Set: AUG-CC-PVTZ
    Blend: AUG-CC-PVTZ
  Basis Set: (AUG-CC-PVTZ AUX)
    Blend: AUG-CC-PVTZ-JKFIT

    Orbital Energies [Eh]
    ---------------------

    Doubly Occupied:

       1A    -92.062376     2A    -20.499898     3A    -11.269475
       4A    -11.264917     5A    -11.231491     6A     -9.050464
       7A     -6.732307     8A     -6.731886     9A     -6.730574
      10A     -1.306677    11A     -1.087268    12A     -1.026238
      13A     -0.892849    14A     -0.801581    15A     -0.655307
      16A     -0.638239    17A     -0.615320    18A     -0.609802
      19A     -0.565995    20A     -0.529192    21A     -0.524534
      22A     -0.517817    23A     -0.493858    24A     -0.414699
      25A     -0.363640

  @DF-RHF Final Energy:  -590.69720097413301

   => Energetics <=

    Nuclear Repulsion Energy =            252.4475419486458918
    One-Electron Energy =               -1313.0566742536775564
    Two-Electron Energy =                 469.9119313308986534
    Total Energy =                       -590.6972009741330112
  Basis Set: (AUG-CC-PVTZ AUX)
    Blend: AUG-CC-PVTZ-RI
    Molecular point group: c1

    Geometry (in Angstrom), charge = 0, multiplicity = 1:

       Center              X                  Y                   Z               Mass
    ------------   -----------------  -----------------  -----------------  -----------------
         S            0.449946633853     0.137847607801    -0.409018443684    31.972071174400
         O            0.415079233853     1.457179507801     0.393147056316    15.994914619570
         C           -0.947396766147    -0.845660492199     0.210522056316    12.000000000000
         C           -2.267350766147    -0.112976492199     0.016091056316    12.000000000000
         C            1.748985233853    -0.864769492199     0.189003056316    12.000000000000
         H           -0.922964766147    -1.801226492199    -0.325275943684     1.007825032230
         H           -0.754259766147    -1.025227492199     1.273879056316     1.007825032230
         H           -2.230560766147     0.854364507801     0.521204056316     1.007825032230
         H           -2.472897766147     0.057619507801    -1.044342943684     1.007825032230
         H           -3.090512766147    -0.696900492199     0.434923056316     1.007825032230
         H            2.692672233853    -0.395863492199    -0.095606943684     1.007825032230
         H            1.682298233853    -1.860946492199    -0.256237943684     1.007825032230
         H            1.687166233853    -0.920381492199     1.278890056316     1.007825032230

  Basis Set: AUG-CC-PVTZ
    Blend: AUG-CC-PVTZ
  Basis Set: (AUG-CC-PVTZ AUX)
    Blend: AUG-CC-PVTZ-JKFIT
	 Reference Energy          =    -590.6972009741330112 [Eh]
	 Singles Energy            =      -0.0000000000000000 [Eh]
	 Same-Spin Energy          =      -0.2541385680647918 [Eh]
	 Opposite-Spin Energy      =      -0.8379336631888826 [Eh]
	 Correlation Energy        =      -1.0920722312536744 [Eh]
	 Total Energy              =    -591.7892732053867348 [Eh]

	 ================> DF-SCS-MP2 Energies <==================
	-----------------------------------------------------------
	 SCS Same-Spin Scale       =       0.3333333333333333 [-]
	 SCS Opposite-Spin Scale   =       1.2000000000000000 [-]
	 SCS Same-Spin Energy      =      -0.0847128560215973 [Eh]
	 SCS Opposite-Spin Energy  =      -1.0055203958266592 [Eh]
	 SCS Correlation Energy    =      -1.0902332518482565 [Eh]
	 SCS Total Energy          =    -591.7874342259813147 [Eh]
	-----------------------------------------------------------

  Dipole Moment: [D]
     X:    -0.1348      Y:    -4.2862      Z:    -0.4134     Total:     4.3082

*** Psi4 exiting successfully. Buy a developer a beer!
