                               Psi4 1.3.2 release

  ==> Input File <==

--------------------------------------------------------------------------
#psi4
#
memory 32 gb

molecule  {
0 1
  N       -1.1198630    -0.0000120     0.0000220
  C       -0.3338800     1.1258240    -0.0000040
  C       -0.3338570    -1.1258310     0.0000200
  C        0.9847800     0.7092440    -0.0000340
  C        0.9847950    -0.7092240    -0.0000090
  H       -2.1306720    -0.0000210     0.0000590
  H       -0.6900534     1.9316760    -0.0000146
  H       -0.7708590    -2.1146210     0.0000440
  H        1.8502120     1.3585970    -0.0000610
  H        1.8502400    -1.3585590    -0.0000200
units angstrom
no_reorient  #important for SAPT in psi4, default
symmetry c1  #important for SAPT in psi4, default
}

set PROPERTIES_ORIGIN ["COM"]
properties('MP2/aug-cc-pvtz', properties = ['dipole'])
--------------------------------------------------------------------------

    Molecular point group: c1
  Charge       = 0
  Multiplicity = 1
  Basis Set: AUG-CC-PVTZ
    Blend: AUG-CC-PVTZ
  Basis Set: (AUG-CC-PVTZ AUX)
    Blend: AUG-CC-PVTZ-JKFIT

    Orbital Energies [Eh]
    ---------------------

    Doubly Occupied:

       1A    -15.607102     2A    -11.253819     3A    -11.230769
       4A    -11.210650     5A    -11.209586     6A     -1.289312
       7A     -1.039841     8A     -0.989783     9A     -0.802809
      10A     -0.774839    11A     -0.755115    12A     -0.602953
      13A     -0.589457    14A     -0.565726    15A     -0.545587
      16A     -0.532421    17A     -0.346657    18A     -0.296681

  @DF-RHF Final Energy:  -208.84907506747831

   => Energetics <=

    Nuclear Repulsion Energy =            161.8292314819023829
    One-Electron Energy =                -602.0704042697793739
    Two-Electron Energy =                 231.3920977203986524
    Total Energy =                       -208.8490750674783101
  Basis Set: (AUG-CC-PVTZ AUX)
    Blend: AUG-CC-PVTZ-RI
    Molecular point group: c1

    Geometry (in Angstrom), charge = 0, multiplicity = 1:

       Center              X                  Y                   Z               Mass
    ------------   -----------------  -----------------  -----------------  -----------------
         N           -1.120612543262     0.002738080646     0.000022126405    14.003074004430
         C           -0.334629543262     1.128574080646    -0.000003873595    12.000000000000
         C           -0.334606543262    -1.123080919354     0.000020126405    12.000000000000
         C            0.984030456738     0.711994080646    -0.000033873595    12.000000000000
         C            0.984045456738    -0.706473919354    -0.000008873595    12.000000000000
         H           -2.131421543262     0.002729080646     0.000059126405     1.007825032230
         H           -0.690802943262     1.934426080646    -0.000014473595     1.007825032230
         H           -0.771608543262    -2.111870919354     0.000044126405     1.007825032230
         H            1.849462456738     1.361347080646    -0.000060873595     1.007825032230
         H            1.849490456738    -1.355808919354    -0.000019873595     1.007825032230

  Basis Set: AUG-CC-PVTZ
    Blend: AUG-CC-PVTZ
  Basis Set: (AUG-CC-PVTZ AUX)
    Blend: AUG-CC-PVTZ-JKFIT
	 Reference Energy          =    -208.8490750674783101 [Eh]
	 Singles Energy            =      -0.0000000000000000 [Eh]
	 Same-Spin Energy          =      -0.2302064535720463 [Eh]
	 Opposite-Spin Energy      =      -0.7225347115698614 [Eh]
	 Correlation Energy        =      -0.9527411651419077 [Eh]
	 Total Energy              =    -209.8018162326202116 [Eh]

	 ================> DF-SCS-MP2 Energies <==================
	-----------------------------------------------------------
	 SCS Same-Spin Scale       =       0.3333333333333333 [-]
	 SCS Opposite-Spin Scale   =       1.2000000000000000 [-]
	 SCS Same-Spin Energy      =      -0.0767354845240154 [Eh]
	 SCS Opposite-Spin Energy  =      -0.8670416538838336 [Eh]
	 SCS Correlation Energy    =      -0.9437771384078490 [Eh]
	 SCS Total Energy          =    -209.7928522058861631 [Eh]
	-----------------------------------------------------------

  Dipole Moment: [D]
     X:    -1.8738      Y:    -0.0046      Z:     0.0001     Total:     1.8738

*** Psi4 exiting successfully. Buy a developer a beer!
