                               Psi4 1.4a3.dev225

  ==> Input File <==

--------------------------------------------------------------------------
#psi4
#
memory 32 gb

molecule  {
0 1
  N       -1.1198630    -0.0000120     0.0000220
  C       -0.3338800     1.1258240    -0.0000040
  C       -0.3338570    -1.1258310     0.0000200
  C        0.9371025     0.7243059    -0.0000329
  C        0.9847950    -0.7092240    -0.0000090
  H       -2.1306720    -0.0000210     0.0000590
  H       -0.7709050     2.1146050    -0.0000170
  H       -0.7708590    -2.1146210     0.0000440
  H        1.8502120     1.3585970    -0.0000610
  H        1.8502400    -1.3585590    -0.0000200
units angstrom
no_reorient  #important for SAPT in psi4, default
symmetry c1  #important for SAPT in psi4, default
}

set PROPERTIES_ORIGIN ["COM"]
properties('MP2/aug-cc-pvtz', properties = ['dipole'])
--------------------------------------------------------------------------

    Molecular point group: c1
  Charge       = 0
  Multiplicity = 1
  Basis Set: AUG-CC-PVTZ
    Blend: AUG-CC-PVTZ
  Basis Set: (AUG-CC-PVTZ AUX)
    Blend: AUG-CC-PVTZ-JKFIT

    Orbital Energies [Eh]
    ---------------------

    Doubly Occupied:

       1A    -15.603633     2A    -11.255325     3A    -11.247744
       4A    -11.210672     5A    -11.208418     6A     -1.290722
       7A     -1.040536     8A     -0.980874     9A     -0.787572
      10A     -0.763647    11A     -0.735831    12A     -0.589383
      13A     -0.581330    14A     -0.568294    15A     -0.552522
      16A     -0.518541    17A     -0.346152    18A     -0.303275

  @DF-RHF Final Energy:  -208.88389585151509

   => Energetics <=

    Nuclear Repulsion Energy =            161.3062067422577002
    One-Electron Energy =                -601.2112640979995604
    Two-Electron Energy =                 231.0211615042267681
    Total Energy =                       -208.8838958515150921
  Basis Set: (AUG-CC-PVTZ AUX)
    Blend: AUG-CC-PVTZ-RI
    Molecular point group: c1

    Geometry (in Angstrom), charge = 0, multiplicity = 1:

       Center              X                  Y                   Z               Mass
    ------------   -----------------  -----------------  -----------------  -----------------
         N           -1.110863246931    -0.002707791206     0.000021965593    14.003074004430
         C           -0.324880246931     1.123128208794    -0.000004034407    12.000000000000
         C           -0.324857246931    -1.128526791206     0.000019965593    12.000000000000
         C            0.946102253069     0.721610108794    -0.000032934407    12.000000000000
         C            0.993794753069    -0.711919791206    -0.000009034407    12.000000000000
         H           -2.121672246931    -0.002716791206     0.000058965593     1.007825032230
         H           -0.761905246931     2.111909208794    -0.000017034407     1.007825032230
         H           -0.761859246931    -2.117316791206     0.000043965593     1.007825032230
         H            1.859211753069     1.355901208794    -0.000061034407     1.007825032230
         H            1.859239753069    -1.361254791206    -0.000020034407     1.007825032230

  Basis Set: AUG-CC-PVTZ
    Blend: AUG-CC-PVTZ
  Basis Set: (AUG-CC-PVTZ AUX)
    Blend: AUG-CC-PVTZ-JKFIT
	 Reference Energy          =    -208.8838958515150921 [Eh]
	 Singles Energy            =      -0.0000000000000000 [Eh]
	 Same-Spin Energy          =      -0.2297087985657549 [Eh]
	 Opposite-Spin Energy      =      -0.7220169661531798 [Eh]
	 Correlation Energy        =      -0.9517257647189348 [Eh]
	 Total Energy              =    -209.8356216162340218 [Eh]

	 ================> DF-SCS-MP2 Energies <==================
	-----------------------------------------------------------
	 SCS Same-Spin Scale       =       0.3333333333333333 [-]
	 SCS Opposite-Spin Scale   =       1.2000000000000000 [-]
	 SCS Same-Spin Energy      =      -0.0765695995219183 [Eh]
	 SCS Opposite-Spin Energy  =      -0.8664203593838157 [Eh]
	 SCS Correlation Energy    =      -0.9429899589057340 [Eh]
	 SCS Total Energy          =    -209.8268858104208334 [Eh]
	-----------------------------------------------------------

  Dipole Moment: [D]
     X:    -1.8443      Y:     0.0113      Z:     0.0001     Total:     1.8443

*** Psi4 exiting successfully. Buy a developer a beer!
