                               Psi4 1.4a3.dev225

  ==> Input File <==

--------------------------------------------------------------------------
#psi4
#
memory 32 gb

molecule  {
0 1
  N       -1.1198630    -0.0000120     0.0000220
  C       -0.3338800     1.1258240    -0.0000040
  C       -0.3338570    -1.1258310     0.0000200
  C        0.9847800     0.7092440    -0.0000340
  C        0.9847950    -0.7092240    -0.0000090
  H       -2.1306720    -0.0000210     0.0000590
  H       -0.7709050     2.1146050    -0.0000170
  H       -0.7708590    -2.1146210     0.0000440
  H        1.8662095     1.3706003    -0.0000615
  H        1.8502400    -1.3585590    -0.0000200
units angstrom
no_reorient  #important for SAPT in psi4, default
symmetry c1  #important for SAPT in psi4, default
}

set PROPERTIES_ORIGIN ["COM"]
properties('MP2/aug-cc-pvtz', properties = ['dipole'])
--------------------------------------------------------------------------

    Molecular point group: c1
  Charge       = 0
  Multiplicity = 1
  Basis Set: AUG-CC-PVTZ
    Blend: AUG-CC-PVTZ
  Basis Set: (AUG-CC-PVTZ AUX)
    Blend: AUG-CC-PVTZ-JKFIT

    Orbital Energies [Eh]
    ---------------------

    Doubly Occupied:

       1A    -15.608311     2A    -11.254286     3A    -11.254239
       4A    -11.213369     5A    -11.211003     6A     -1.289668
       7A     -1.040436     8A     -0.975179     9A     -0.791045
      10A     -0.764168    11A     -0.734517    12A     -0.589518
      13A     -0.582509    14A     -0.566717    15A     -0.543590
      16A     -0.528474    17A     -0.347609    18A     -0.296816

  @DF-RHF Final Energy:  -208.88485319452579

   => Energetics <=

    Nuclear Repulsion Energy =            160.6585590731666571
    One-Electron Energy =                -599.9039172714963115
    Two-Electron Energy =                 230.3605050038038655
    Total Energy =                       -208.8848531945257889
  Basis Set: (AUG-CC-PVTZ AUX)
    Blend: AUG-CC-PVTZ-RI
    Molecular point group: c1

    Geometry (in Angstrom), charge = 0, multiplicity = 1:

       Center              X                  Y                   Z               Mass
    ------------   -----------------  -----------------  -----------------  -----------------
         N           -1.119637611260    -0.000192277457     0.000022170000    14.003074004430
         C           -0.333654611260     1.125643722543    -0.000003830000    12.000000000000
         C           -0.333631611260    -1.126011277457     0.000020170000    12.000000000000
         C            0.985005388740     0.709063722543    -0.000033830000    12.000000000000
         C            0.985020388740    -0.709404277457    -0.000008830000    12.000000000000
         H           -2.130446611260    -0.000201277457     0.000059170000     1.007825032230
         H           -0.770679611260     2.114424722543    -0.000016830000     1.007825032230
         H           -0.770633611260    -2.114801277457     0.000044170000     1.007825032230
         H            1.866434888740     1.370420022543    -0.000061330000     1.007825032230
         H            1.850465388740    -1.358739277457    -0.000019830000     1.007825032230

  Basis Set: AUG-CC-PVTZ
    Blend: AUG-CC-PVTZ
  Basis Set: (AUG-CC-PVTZ AUX)
    Blend: AUG-CC-PVTZ-JKFIT
	 Reference Energy          =    -208.8848531945257889 [Eh]
	 Singles Energy            =      -0.0000000000000000 [Eh]
	 Same-Spin Energy          =      -0.2303852228617339 [Eh]
	 Opposite-Spin Energy      =      -0.7231529576911857 [Eh]
	 Correlation Energy        =      -0.9535381805529196 [Eh]
	 Total Energy              =    -209.8383913750787144 [Eh]

	 ================> DF-SCS-MP2 Energies <==================
	-----------------------------------------------------------
	 SCS Same-Spin Scale       =       0.3333333333333333 [-]
	 SCS Opposite-Spin Scale   =       1.2000000000000000 [-]
	 SCS Same-Spin Energy      =      -0.0767950742872446 [Eh]
	 SCS Opposite-Spin Energy  =      -0.8677835492294228 [Eh]
	 SCS Correlation Energy    =      -0.9445786235166674 [Eh]
	 SCS Total Energy          =    -209.8294318180424511 [Eh]
	-----------------------------------------------------------

  Dipole Moment: [D]
     X:    -1.8742      Y:    -0.0039      Z:     0.0001     Total:     1.8742

*** Psi4 exiting successfully. Buy a developer a beer!
