                               Psi4 1.4a3.dev225

  ==> Input File <==

--------------------------------------------------------------------------
#psi4
#
memory 32 gb

molecule  {
0 1
  N       -1.1198630    -0.0000120     0.0000220
  C       -0.3338800     1.1258240    -0.0000040
  C       -0.3338570    -1.1258310     0.0000200
  C        0.9847800     0.7092440    -0.0000340
  C        0.9847945    -0.6592240    -0.0000099
  H       -2.1306720    -0.0000210     0.0000590
  H       -0.7709050     2.1146050    -0.0000170
  H       -0.7708590    -2.1146210     0.0000440
  H        1.8502120     1.3585970    -0.0000610
  H        1.8502400    -1.3585590    -0.0000200
units angstrom
no_reorient  #important for SAPT in psi4, default
symmetry c1  #important for SAPT in psi4, default
}

set PROPERTIES_ORIGIN ["COM"]
properties('MP2/aug-cc-pvtz', properties = ['dipole'])
--------------------------------------------------------------------------

    Molecular point group: c1
  Charge       = 0
  Multiplicity = 1
  Basis Set: AUG-CC-PVTZ
    Blend: AUG-CC-PVTZ
  Basis Set: (AUG-CC-PVTZ AUX)
    Blend: AUG-CC-PVTZ-JKFIT

    Orbital Energies [Eh]
    ---------------------

    Doubly Occupied:

       1A    -15.610793     2A    -11.253487     3A    -11.252898
       4A    -11.210656     5A    -11.206791     6A     -1.291588
       7A     -1.048786     8A     -0.972085     9A     -0.796446
      10A     -0.761205    11A     -0.734693    12A     -0.589879
      13A     -0.582744    14A     -0.567926    15A     -0.541407
      16A     -0.531380    17A     -0.354222    18A     -0.291423

  @DF-RHF Final Energy:  -208.88096241211804

   => Energetics <=

    Nuclear Repulsion Energy =            161.2518838713397145
    One-Electron Energy =                -601.0688745694967565
    Two-Electron Energy =                 230.9360282860390043
    Total Energy =                       -208.8809624121180377
  Basis Set: (AUG-CC-PVTZ AUX)
    Blend: AUG-CC-PVTZ-RI
    Molecular point group: c1

    Geometry (in Angstrom), charge = 0, multiplicity = 1:

       Center              X                  Y                   Z               Mass
    ------------   -----------------  -----------------  -----------------  -----------------
         N           -1.119397036202    -0.008961422579     0.000022323576    14.003074004430
         C           -0.333414036202     1.116874577421    -0.000003676424    12.000000000000
         C           -0.333391036202    -1.134780422579     0.000020323576    12.000000000000
         C            0.985245963798     0.700294577421    -0.000033676424    12.000000000000
         C            0.985260463798    -0.668173422579    -0.000009576424    12.000000000000
         H           -2.130206036202    -0.008970422579     0.000059323576     1.007825032230
         H           -0.770439036202     2.105655577421    -0.000016676424     1.007825032230
         H           -0.770393036202    -2.123570422579     0.000044323576     1.007825032230
         H            1.850677963798     1.349647577421    -0.000060676424     1.007825032230
         H            1.850705963798    -1.367508422579    -0.000019676424     1.007825032230

  Basis Set: AUG-CC-PVTZ
    Blend: AUG-CC-PVTZ
  Basis Set: (AUG-CC-PVTZ AUX)
    Blend: AUG-CC-PVTZ-JKFIT
	 Reference Energy          =    -208.8809624121180377 [Eh]
	 Singles Energy            =      -0.0000000000000000 [Eh]
	 Same-Spin Energy          =      -0.2312265268529599 [Eh]
	 Opposite-Spin Energy      =      -0.7239045505138845 [Eh]
	 Correlation Energy        =      -0.9551310773668444 [Eh]
	 Total Energy              =    -209.8360934894848810 [Eh]

	 ================> DF-SCS-MP2 Energies <==================
	-----------------------------------------------------------
	 SCS Same-Spin Scale       =       0.3333333333333333 [-]
	 SCS Opposite-Spin Scale   =       1.2000000000000000 [-]
	 SCS Same-Spin Energy      =      -0.0770755089509866 [Eh]
	 SCS Opposite-Spin Energy  =      -0.8686854606166613 [Eh]
	 SCS Correlation Energy    =      -0.9457609695676479 [Eh]
	 SCS Total Energy          =    -209.8267233816856958 [Eh]
	-----------------------------------------------------------

  Dipole Moment: [D]
     X:    -1.8730      Y:     0.0083      Z:     0.0001     Total:     1.8730

*** Psi4 exiting successfully. Buy a developer a beer!
