                               Psi4 1.3.2 release

  ==> Input File <==

--------------------------------------------------------------------------
#psi4
#
memory 32 gb

molecule  {
0 1
  N       -1.1198630    -0.0000120     0.0000220
  C       -0.3338800     1.1258240    -0.0000040
  C       -0.3338570    -1.1258310     0.0000200
  C        0.9847800     0.7092440    -0.0000340
  C        0.9847950    -0.7092240    -0.0000090
  H       -2.1306720    -0.0000210     0.0000590
  H       -0.7709050     2.1146050    -0.0000170
  H       -0.7708590    -2.1146210     0.0000440
  H        1.6902368     1.2385640    -0.0000560
  H        1.8502400    -1.3585590    -0.0000200
units angstrom
no_reorient  #important for SAPT in psi4, default
symmetry c1  #important for SAPT in psi4, default
}

set PROPERTIES_ORIGIN ["COM"]
properties('MP2/aug-cc-pvtz', properties = ['dipole'])
--------------------------------------------------------------------------

    Molecular point group: c1
  Charge       = 0
  Multiplicity = 1
  Basis Set: AUG-CC-PVTZ
    Blend: AUG-CC-PVTZ
  Basis Set: (AUG-CC-PVTZ AUX)
    Blend: AUG-CC-PVTZ-JKFIT

    Orbital Energies [Eh]
    ---------------------

    Doubly Occupied:

       1A    -15.607397     2A    -11.253212     3A    -11.253035
       4A    -11.209505     5A    -11.187162     6A     -1.288536
       7A     -1.046592     8A     -0.977629     9A     -0.813561
      10A     -0.776896    11A     -0.735530    12A     -0.609021
      13A     -0.582205    14A     -0.565565    15A     -0.558577
      16A     -0.529691    17A     -0.346820    18A     -0.295956

  @DF-RHF Final Energy:  -208.84924854168932

   => Energetics <=

    Nuclear Repulsion Energy =            161.8125508004335700
    One-Electron Energy =                -602.0498250208829631
    Two-Electron Energy =                 231.3880256787601013
    Total Energy =                       -208.8492485416893203
  Basis Set: (AUG-CC-PVTZ AUX)
    Blend: AUG-CC-PVTZ-RI
    Molecular point group: c1

    Geometry (in Angstrom), charge = 0, multiplicity = 1:

       Center              X                  Y                   Z               Mass
    ------------   -----------------  -----------------  -----------------  -----------------
         N           -1.116992267070     0.001792584167     0.000022087320    14.003074004430
         C           -0.331009267070     1.127628584167    -0.000003912680    12.000000000000
         C           -0.330986267070    -1.124026415833     0.000020087320    12.000000000000
         C            0.987650732930     0.711048584167    -0.000033912680    12.000000000000
         C            0.987665732930    -0.707419415833    -0.000008912680    12.000000000000
         H           -2.127801267070     0.001783584167     0.000059087320     1.007825032230
         H           -0.768034267070     2.116409584167    -0.000016912680     1.007825032230
         H           -0.767988267070    -2.112816415833     0.000044087320     1.007825032230
         H            1.693107532930     1.240368584167    -0.000055912680     1.007825032230
         H            1.853110732930    -1.356754415833    -0.000019912680     1.007825032230

  Basis Set: AUG-CC-PVTZ
    Blend: AUG-CC-PVTZ
  Basis Set: (AUG-CC-PVTZ AUX)
    Blend: AUG-CC-PVTZ-JKFIT
	 Reference Energy          =    -208.8492485416893203 [Eh]
	 Singles Energy            =      -0.0000000000000000 [Eh]
	 Same-Spin Energy          =      -0.2302729144843735 [Eh]
	 Opposite-Spin Energy      =      -0.7227144652025894 [Eh]
	 Correlation Energy        =      -0.9529873796869630 [Eh]
	 Total Energy              =    -209.8022359213762797 [Eh]

	 ================> DF-SCS-MP2 Energies <==================
	-----------------------------------------------------------
	 SCS Same-Spin Scale       =       0.3333333333333333 [-]
	 SCS Opposite-Spin Scale   =       1.2000000000000000 [-]
	 SCS Same-Spin Energy      =      -0.0767576381614578 [Eh]
	 SCS Opposite-Spin Energy  =      -0.8672573582431072 [Eh]
	 SCS Correlation Energy    =      -0.9440149964045651 [Eh]
	 SCS Total Energy          =    -209.7932635380938962 [Eh]
	-----------------------------------------------------------

  Dipole Moment: [D]
     X:    -1.8648      Y:     0.0217      Z:     0.0001     Total:     1.8649

*** Psi4 exiting successfully. Buy a developer a beer!
