                               Psi4 1.3.2 release

  ==> Input File <==

--------------------------------------------------------------------------
#psi4
#
memory 32 gb

molecule  {
0 1
  N       -1.1198630    -0.0000120     0.0000220
  C       -0.3911234     1.0438289    -0.0000021
  C       -0.3338570    -1.1258310     0.0000200
  C        0.9847800     0.7092440    -0.0000340
  C        0.9847950    -0.7092240    -0.0000090
  H       -2.1306720    -0.0000210     0.0000590
  H       -0.7709050     2.1146050    -0.0000170
  H       -0.7708590    -2.1146210     0.0000440
  H        1.8502120     1.3585970    -0.0000610
  H        1.8502400    -1.3585590    -0.0000200
units angstrom
no_reorient  #important for SAPT in psi4, default
symmetry c1  #important for SAPT in psi4, default
}

set PROPERTIES_ORIGIN ["COM"]
properties('MP2/aug-cc-pvtz', properties = ['dipole'])
--------------------------------------------------------------------------

    Molecular point group: c1
  Charge       = 0
  Multiplicity = 1
  Basis Set: AUG-CC-PVTZ
    Blend: AUG-CC-PVTZ
  Basis Set: (AUG-CC-PVTZ AUX)
    Blend: AUG-CC-PVTZ-JKFIT

    Orbital Energies [Eh]
    ---------------------

    Doubly Occupied:

       1A    -15.614960     2A    -11.256659     3A    -11.245376
       4A    -11.212873     5A    -11.206185     6A     -1.323552
       7A     -1.044664     8A     -0.974017     9A     -0.800681
      10A     -0.773826    11A     -0.728748    12A     -0.607795
      13A     -0.586570    14A     -0.576632    15A     -0.541515
      16A     -0.510551    17A     -0.350766    18A     -0.288949

  @DF-RHF Final Energy:  -208.87313421158456

   => Energetics <=

    Nuclear Repulsion Energy =            162.0493309654923735
    One-Electron Energy =                -602.5562940572393700
    Two-Electron Energy =                 231.6338288801624685
    Total Energy =                       -208.8731342115845564
  Basis Set: (AUG-CC-PVTZ AUX)
    Blend: AUG-CC-PVTZ-RI
    Molecular point group: c1

    Geometry (in Angstrom), charge = 0, multiplicity = 1:

       Center              X                  Y                   Z               Mass
    ------------   -----------------  -----------------  -----------------  -----------------
         N           -1.109151029828     0.014664610274     0.000021822399    14.003074004430
         C           -0.380411429828     1.058505510274    -0.000002277601    12.000000000000
         C           -0.323145029828    -1.111154389726     0.000019822399    12.000000000000
         C            0.995491970172     0.723920610274    -0.000034177601    12.000000000000
         C            0.995506970172    -0.694547389726    -0.000009177601    12.000000000000
         H           -2.119960029828     0.014655610274     0.000058822399     1.007825032230
         H           -0.760193029828     2.129281610274    -0.000017177601     1.007825032230
         H           -0.760147029828    -2.099944389726     0.000043822399     1.007825032230
         H            1.860923970172     1.373273610274    -0.000061177601     1.007825032230
         H            1.860951970172    -1.343882389726    -0.000020177601     1.007825032230

  Basis Set: AUG-CC-PVTZ
    Blend: AUG-CC-PVTZ
  Basis Set: (AUG-CC-PVTZ AUX)
    Blend: AUG-CC-PVTZ-JKFIT
	 Reference Energy          =    -208.8731342115845564 [Eh]
	 Singles Energy            =      -0.0000000000000000 [Eh]
	 Same-Spin Energy          =      -0.2308784112609699 [Eh]
	 Opposite-Spin Energy      =      -0.7223748861980768 [Eh]
	 Correlation Energy        =      -0.9532532974590466 [Eh]
	 Total Energy              =    -209.8263875090435988 [Eh]

	 ================> DF-SCS-MP2 Energies <==================
	-----------------------------------------------------------
	 SCS Same-Spin Scale       =       0.3333333333333333 [-]
	 SCS Opposite-Spin Scale   =       1.2000000000000000 [-]
	 SCS Same-Spin Energy      =      -0.0769594704203233 [Eh]
	 SCS Opposite-Spin Energy  =      -0.8668498634376921 [Eh]
	 SCS Correlation Energy    =      -0.9438093338580154 [Eh]
	 SCS Total Energy          =    -209.8169435454425695 [Eh]
	-----------------------------------------------------------

  Dipole Moment: [D]
     X:    -2.0359      Y:    -0.0014      Z:     0.0001     Total:     2.0359

*** Psi4 exiting successfully. Buy a developer a beer!
