                               Psi4 1.3.2 release

  ==> Input File <==

--------------------------------------------------------------------------
#psi4
#
memory 32 gb

molecule  {
0 1
  N       -0.9978754    -0.0760021     0.0000222
  C       -0.3338800     1.1258240    -0.0000040
  C       -0.3338570    -1.1258310     0.0000200
  C        0.9847800     0.7092440    -0.0000340
  C        0.9847950    -0.7092240    -0.0000090
  H       -2.1306720    -0.0000210     0.0000590
  H       -0.7709050     2.1146050    -0.0000170
  H       -0.7708590    -2.1146210     0.0000440
  H        1.8502120     1.3585970    -0.0000610
  H        1.8502400    -1.3585590    -0.0000200
units angstrom
no_reorient  #important for SAPT in psi4, default
symmetry c1  #important for SAPT in psi4, default
}

set PROPERTIES_ORIGIN ["COM"]
properties('MP2/aug-cc-pvtz', properties = ['dipole'])
--------------------------------------------------------------------------

    Molecular point group: c1
  Charge       = 0
  Multiplicity = 1
  Basis Set: AUG-CC-PVTZ
    Blend: AUG-CC-PVTZ
  Basis Set: (AUG-CC-PVTZ AUX)
    Blend: AUG-CC-PVTZ-JKFIT

    Orbital Energies [Eh]
    ---------------------

    Doubly Occupied:

       1A    -15.619606     2A    -11.245197     3A    -11.244044
       4A    -11.209562     5A    -11.197587     6A     -1.328828
       7A     -1.029140     8A     -0.992295     9A     -0.776194
      10A     -0.761542    11A     -0.744416    12A     -0.614874
      13A     -0.592963    14A     -0.552668    15A     -0.539512
      16A     -0.520375    17A     -0.342963    18A     -0.294667

  @DF-RHF Final Energy:  -208.84966682060232

   => Energetics <=

    Nuclear Repulsion Energy =            163.2487852740921710
    One-Electron Energy =                -604.9840391082105953
    Two-Electron Energy =                 232.8855870135161297
    Total Energy =                       -208.8496668206023230
  Basis Set: (AUG-CC-PVTZ AUX)
    Blend: AUG-CC-PVTZ-RI
    Molecular point group: c1

    Geometry (in Angstrom), charge = 0, multiplicity = 1:

       Center              X                  Y                   Z               Mass
    ------------   -----------------  -----------------  -----------------  -----------------
         N           -1.022889020877    -0.060129917461     0.000022320710    14.003074004430
         C           -0.358893620877     1.141696182539    -0.000003879290    12.000000000000
         C           -0.358870620877    -1.109958817461     0.000020120710    12.000000000000
         C            0.959766379123     0.725116182539    -0.000033879290    12.000000000000
         C            0.959781379123    -0.693351817461    -0.000008879290    12.000000000000
         H           -2.155685620877     0.015851182539     0.000059120710     1.007825032230
         H           -0.795918620877     2.130477182539    -0.000016879290     1.007825032230
         H           -0.795872620877    -2.098748817461     0.000044120710     1.007825032230
         H            1.825198379123     1.374469182539    -0.000060879290     1.007825032230
         H            1.825226379123    -1.342686817461    -0.000019879290     1.007825032230

  Basis Set: AUG-CC-PVTZ
    Blend: AUG-CC-PVTZ
  Basis Set: (AUG-CC-PVTZ AUX)
    Blend: AUG-CC-PVTZ-JKFIT
	 Reference Energy          =    -208.8496668206023230 [Eh]
	 Singles Energy            =      -0.0000000000000000 [Eh]
	 Same-Spin Energy          =      -0.2323865522338472 [Eh]
	 Opposite-Spin Energy      =      -0.7245723214125069 [Eh]
	 Correlation Energy        =      -0.9569588736463541 [Eh]
	 Total Energy              =    -209.8066256942486802 [Eh]

	 ================> DF-SCS-MP2 Energies <==================
	-----------------------------------------------------------
	 SCS Same-Spin Scale       =       0.3333333333333333 [-]
	 SCS Opposite-Spin Scale   =       1.2000000000000000 [-]
	 SCS Same-Spin Energy      =      -0.0774621840779491 [Eh]
	 SCS Opposite-Spin Energy  =      -0.8694867856950083 [Eh]
	 SCS Correlation Energy    =      -0.9469489697729573 [Eh]
	 SCS Total Energy          =    -209.7966157903752844 [Eh]
	-----------------------------------------------------------

  Dipole Moment: [D]
     X:    -2.2388      Y:    -0.0102      Z:     0.0001     Total:     2.2388

*** Psi4 exiting successfully. Buy a developer a beer!
