                               Psi4 1.4a3.dev225

  ==> Input File <==

--------------------------------------------------------------------------
#psi4
#
memory 32 gb

molecule  {
0 1
  N       -1.1198630    -0.0000120     0.0000220
  C       -0.3338800     1.1258240    -0.0000040
  C       -0.3338570    -1.1258310     0.0000200
  C        0.9657090     0.7152687    -0.0000336
  C        0.9847950    -0.7092240    -0.0000090
  H       -2.1306720    -0.0000210     0.0000590
  H       -0.7709050     2.1146050    -0.0000170
  H       -0.7708590    -2.1146210     0.0000440
  H        1.8502120     1.3585970    -0.0000610
  H        1.8502400    -1.3585590    -0.0000200
units angstrom
no_reorient  #important for SAPT in psi4, default
symmetry c1  #important for SAPT in psi4, default
}

set PROPERTIES_ORIGIN ["COM"]
properties('MP2/aug-cc-pvtz', properties = ['dipole'])
--------------------------------------------------------------------------

    Molecular point group: c1
  Charge       = 0
  Multiplicity = 1
  Basis Set: AUG-CC-PVTZ
    Blend: AUG-CC-PVTZ
  Basis Set: (AUG-CC-PVTZ AUX)
    Blend: AUG-CC-PVTZ-JKFIT

    Orbital Energies [Eh]
    ---------------------

    Doubly Occupied:

       1A    -15.606358     2A    -11.254595     3A    -11.251628
       4A    -11.210999     5A    -11.209710     6A     -1.289946
       7A     -1.040531     8A     -0.977479     9A     -0.789944
      10A     -0.764998    11A     -0.735091    12A     -0.589921
      13A     -0.582188    14A     -0.567206    15A     -0.547662
      16A     -0.525741    17A     -0.346803    18A     -0.299351

  @DF-RHF Final Energy:  -208.88569716836469

   => Energetics <=

    Nuclear Repulsion Energy =            160.9683255599220786
    One-Electron Energy =                -600.5277462353142255
    Two-Electron Energy =                 230.6737235070274892
    Total Energy =                       -208.8856971683646861
  Basis Set: (AUG-CC-PVTZ AUX)
    Blend: AUG-CC-PVTZ-RI
    Molecular point group: c1

    Geometry (in Angstrom), charge = 0, multiplicity = 1:

       Center              X                  Y                   Z               Mass
    ------------   -----------------  -----------------  -----------------  -----------------
         N           -1.115983574191    -0.001090207037     0.000022090887    14.003074004430
         C           -0.330000574191     1.124745792963    -0.000003909113    12.000000000000
         C           -0.329977574191    -1.126909207037     0.000020090887    12.000000000000
         C            0.969588425809     0.714190492963    -0.000033509113    12.000000000000
         C            0.988674425809    -0.710302207037    -0.000008909113    12.000000000000
         H           -2.126792574191    -0.001099207037     0.000059090887     1.007825032230
         H           -0.767025574191     2.113526792963    -0.000016909113     1.007825032230
         H           -0.766979574191    -2.115699207037     0.000044090887     1.007825032230
         H            1.854091425809     1.357518792963    -0.000060909113     1.007825032230
         H            1.854119425809    -1.359637207037    -0.000019909113     1.007825032230

  Basis Set: AUG-CC-PVTZ
    Blend: AUG-CC-PVTZ
  Basis Set: (AUG-CC-PVTZ AUX)
    Blend: AUG-CC-PVTZ-JKFIT
	 Reference Energy          =    -208.8856971683646861 [Eh]
	 Singles Energy            =      -0.0000000000000000 [Eh]
	 Same-Spin Energy          =      -0.2300903102760863 [Eh]
	 Opposite-Spin Energy      =      -0.7225921826171887 [Eh]
	 Correlation Energy        =      -0.9526824928932750 [Eh]
	 Total Energy              =    -209.8383796612579602 [Eh]

	 ================> DF-SCS-MP2 Energies <==================
	-----------------------------------------------------------
	 SCS Same-Spin Scale       =       0.3333333333333333 [-]
	 SCS Opposite-Spin Scale   =       1.2000000000000000 [-]
	 SCS Same-Spin Energy      =      -0.0766967700920287 [Eh]
	 SCS Opposite-Spin Energy  =      -0.8671106191406265 [Eh]
	 SCS Correlation Energy    =      -0.9438073892326553 [Eh]
	 SCS Total Energy          =    -209.8295045575973461 [Eh]
	-----------------------------------------------------------

  Dipole Moment: [D]
     X:    -1.8608      Y:     0.0047      Z:     0.0001     Total:     1.8608

*** Psi4 exiting successfully. Buy a developer a beer!
