                               Psi4 1.3.2 release

  ==> Input File <==

--------------------------------------------------------------------------
#psi4
#
memory 32 gb

molecule  {
0 1
  N       -1.1198630    -0.0000120     0.0000220
  C       -0.3338800     1.1258240    -0.0000040
  C       -0.3338570    -1.1258310     0.0000200
  C        0.9847800     0.7092440    -0.0000340
  C        1.1330652    -0.7014519    -0.0000118
  H       -2.1306720    -0.0000210     0.0000590
  H       -0.7709050     2.1146050    -0.0000170
  H       -0.7708590    -2.1146210     0.0000440
  H        1.8502120     1.3585970    -0.0000610
  H        1.8502400    -1.3585590    -0.0000200
units angstrom
no_reorient  #important for SAPT in psi4, default
symmetry c1  #important for SAPT in psi4, default
}

set PROPERTIES_ORIGIN ["COM"]
properties('MP2/aug-cc-pvtz', properties = ['dipole'])
--------------------------------------------------------------------------

    Molecular point group: c1
  Charge       = 0
  Multiplicity = 1
  Basis Set: AUG-CC-PVTZ
    Blend: AUG-CC-PVTZ
  Basis Set: (AUG-CC-PVTZ AUX)
    Blend: AUG-CC-PVTZ-JKFIT

    Orbital Energies [Eh]
    ---------------------

    Doubly Occupied:

       1A    -15.620481     2A    -11.271903     3A    -11.251789
       4A    -11.219368     5A    -11.217584     6A     -1.287402
       7A     -1.037565     8A     -0.964285     9A     -0.809082
      10A     -0.772423    11A     -0.732487    12A     -0.607390
      13A     -0.581660    14A     -0.567486    15A     -0.562842
      16A     -0.498097    17A     -0.350209    18A     -0.281676

  @DF-RHF Final Energy:  -208.85193999026413

   => Energetics <=

    Nuclear Repulsion Energy =            158.7924436866944404
    One-Electron Energy =                -596.0213050069127121
    Two-Electron Energy =                 228.3769213299541150
    Total Energy =                       -208.8519399902641283
  Basis Set: (AUG-CC-PVTZ AUX)
    Blend: AUG-CC-PVTZ-RI
    Molecular point group: c1

    Geometry (in Angstrom), charge = 0, multiplicity = 1:

       Center              X                  Y                   Z               Mass
    ------------   -----------------  -----------------  -----------------  -----------------
         N           -1.145936267047    -0.001402977207     0.000022663660    14.003074004430
         C           -0.359953267047     1.124433022793    -0.000003336340    12.000000000000
         C           -0.359930267047    -1.127221977207     0.000020663660    12.000000000000
         C            0.958706732953     0.707853022793    -0.000033336340    12.000000000000
         C            1.106991932953    -0.702842877207    -0.000011136340    12.000000000000
         H           -2.156745267047    -0.001411977207     0.000059663660     1.007825032230
         H           -0.796978267047     2.113214022793    -0.000016336340     1.007825032230
         H           -0.796932267047    -2.116011977207     0.000044663660     1.007825032230
         H            1.824138732953     1.357206022793    -0.000060336340     1.007825032230
         H            1.824166732953    -1.359949977207    -0.000019336340     1.007825032230

  Basis Set: AUG-CC-PVTZ
    Blend: AUG-CC-PVTZ
  Basis Set: (AUG-CC-PVTZ AUX)
    Blend: AUG-CC-PVTZ-JKFIT
	 Reference Energy          =    -208.8519399902641283 [Eh]
	 Singles Energy            =      -0.0000000000000000 [Eh]
	 Same-Spin Energy          =      -0.2321664183982146 [Eh]
	 Opposite-Spin Energy      =      -0.7271788924934121 [Eh]
	 Correlation Energy        =      -0.9593453108916266 [Eh]
	 Total Energy              =    -209.8112853011557490 [Eh]

	 ================> DF-SCS-MP2 Energies <==================
	-----------------------------------------------------------
	 SCS Same-Spin Scale       =       0.3333333333333333 [-]
	 SCS Opposite-Spin Scale   =       1.2000000000000000 [-]
	 SCS Same-Spin Energy      =      -0.0773888061327382 [Eh]
	 SCS Opposite-Spin Energy  =      -0.8726146709920944 [Eh]
	 SCS Correlation Energy    =      -0.9500034771248327 [Eh]
	 SCS Total Energy          =    -209.8019434673889521 [Eh]
	-----------------------------------------------------------

  Dipole Moment: [D]
     X:    -1.9602      Y:     0.0610      Z:     0.0001     Total:     1.9611

*** Psi4 exiting successfully. Buy a developer a beer!
