                               Psi4 1.3.2 release

  ==> Input File <==

--------------------------------------------------------------------------
#psi4
#
memory 32 gb

molecule  {
0 1
  N       -1.1198630    -0.0000120     0.0000220
  C       -0.3338800     1.1258240    -0.0000040
  C       -0.3338570    -1.1258310     0.0000200
  C        0.9773088     0.6862937    -0.0000331
  C        0.9847950    -0.7092240    -0.0000090
  H       -2.1306720    -0.0000210     0.0000590
  H       -0.7709050     2.1146050    -0.0000170
  H       -0.7708590    -2.1146210     0.0000440
  H        1.8502120     1.3585970    -0.0000610
  H        1.8502400    -1.3585590    -0.0000200
units angstrom
no_reorient  #important for SAPT in psi4, default
symmetry c1  #important for SAPT in psi4, default
}

set PROPERTIES_ORIGIN ["COM"]
properties('MP2/aug-cc-pvtz', properties = ['dipole'])
--------------------------------------------------------------------------

    Molecular point group: c1
  Charge       = 0
  Multiplicity = 1
  Basis Set: AUG-CC-PVTZ
    Blend: AUG-CC-PVTZ
  Basis Set: (AUG-CC-PVTZ AUX)
    Blend: AUG-CC-PVTZ-JKFIT

    Orbital Energies [Eh]
    ---------------------

    Doubly Occupied:

       1A    -15.608740     2A    -11.253698     3A    -11.252842
       4A    -11.210563     5A    -11.208688     6A     -1.290713
       7A     -1.044427     8A     -0.974588     9A     -0.793295
      10A     -0.763168    11A     -0.734942    12A     -0.589606
      13A     -0.582445    14A     -0.567468    15A     -0.540775
      16A     -0.533142    17A     -0.350383    18A     -0.295108

  @DF-RHF Final Energy:  -208.88429205380237

   => Energetics <=

    Nuclear Repulsion Energy =            161.0853706296940402
    One-Electron Energy =                -600.7501464652144705
    Two-Electron Energy =                 230.7804837817180896
    Total Energy =                       -208.8842920538023691
  Basis Set: (AUG-CC-PVTZ AUX)
    Blend: AUG-CC-PVTZ-RI
    Molecular point group: c1

    Geometry (in Angstrom), charge = 0, multiplicity = 1:

       Center              X                  Y                   Z               Mass
    ------------   -----------------  -----------------  -----------------  -----------------
         N           -1.118059842597     0.004096078680     0.000022001391    14.003074004430
         C           -0.332076842597     1.129932078680    -0.000003998609    12.000000000000
         C           -0.332053842597    -1.121722921320     0.000020001391    12.000000000000
         C            0.979111957403     0.690401778680    -0.000033098609    12.000000000000
         C            0.986598157403    -0.705115921320    -0.000008998609    12.000000000000
         H           -2.128868842597     0.004087078680     0.000059001391     1.007825032230
         H           -0.769101842597     2.118713078680    -0.000016998609     1.007825032230
         H           -0.769055842597    -2.110512921320     0.000044001391     1.007825032230
         H            1.852015157403     1.362705078680    -0.000060998609     1.007825032230
         H            1.852043157403    -1.354450921320    -0.000019998609     1.007825032230

  Basis Set: AUG-CC-PVTZ
    Blend: AUG-CC-PVTZ
  Basis Set: (AUG-CC-PVTZ AUX)
    Blend: AUG-CC-PVTZ-JKFIT
	 Reference Energy          =    -208.8842920538023691 [Eh]
	 Singles Energy            =      -0.0000000000000000 [Eh]
	 Same-Spin Energy          =      -0.2306797545306845 [Eh]
	 Opposite-Spin Energy      =      -0.7232537248815015 [Eh]
	 Correlation Energy        =      -0.9539334794121861 [Eh]
	 Total Energy              =    -209.8382255332145689 [Eh]

	 ================> DF-SCS-MP2 Energies <==================
	-----------------------------------------------------------
	 SCS Same-Spin Scale       =       0.3333333333333333 [-]
	 SCS Opposite-Spin Scale   =       1.2000000000000000 [-]
	 SCS Same-Spin Energy      =      -0.0768932515102282 [Eh]
	 SCS Opposite-Spin Energy  =      -0.8679044698578018 [Eh]
	 SCS Correlation Energy    =      -0.9447977213680300 [Eh]
	 SCS Total Energy          =    -209.8290897751703881 [Eh]
	-----------------------------------------------------------

  Dipole Moment: [D]
     X:    -1.8693      Y:    -0.0020      Z:     0.0001     Total:     1.8693

*** Psi4 exiting successfully. Buy a developer a beer!
