                               Psi4 1.4a3.dev225

  ==> Input File <==

--------------------------------------------------------------------------
#psi4
#
memory 32 gb

molecule  {
0 1
  N       -1.1198630    -0.0000120     0.0000220
  C       -0.3338800     1.1258240    -0.0000040
  C       -0.3338570    -1.1258310     0.0000200
  C        0.9847800     0.7092440    -0.0000340
  C        0.9847948    -0.6892240    -0.0000094
  H       -2.1306720    -0.0000210     0.0000590
  H       -0.7709050     2.1146050    -0.0000170
  H       -0.7708590    -2.1146210     0.0000440
  H        1.8502120     1.3585970    -0.0000610
  H        1.8502400    -1.3585590    -0.0000200
units angstrom
no_reorient  #important for SAPT in psi4, default
symmetry c1  #important for SAPT in psi4, default
}

set PROPERTIES_ORIGIN ["COM"]
properties('MP2/aug-cc-pvtz', properties = ['dipole'])
--------------------------------------------------------------------------

    Molecular point group: c1
  Charge       = 0
  Multiplicity = 1
  Basis Set: AUG-CC-PVTZ
    Blend: AUG-CC-PVTZ
  Basis Set: (AUG-CC-PVTZ AUX)
    Blend: AUG-CC-PVTZ-JKFIT

    Orbital Energies [Eh]
    ---------------------

    Doubly Occupied:

       1A    -15.609184     2A    -11.253836     3A    -11.253618
       4A    -11.210969     5A    -11.209160     6A     -1.290317
       7A     -1.043745     8A     -0.974039     9A     -0.793476
      10A     -0.763901    11A     -0.734762    12A     -0.590037
      13A     -0.582560    14A     -0.567076    15A     -0.540420
      16A     -0.533877    17A     -0.350030    18A     -0.294611

  @DF-RHF Final Energy:  -208.88445450575279

   => Energetics <=

    Nuclear Repulsion Energy =            160.9471882826688045
    One-Electron Energy =                -600.4720462566057222
    Two-Electron Energy =                 230.6404034681841608
    Total Energy =                       -208.8844545057527853
  Basis Set: (AUG-CC-PVTZ AUX)
    Blend: AUG-CC-PVTZ-RI
    Molecular point group: c1

    Geometry (in Angstrom), charge = 0, multiplicity = 1:

       Center              X                  Y                   Z               Mass
    ------------   -----------------  -----------------  -----------------  -----------------
         N           -1.119397089900    -0.003591670326     0.000022234080    14.003074004430
         C           -0.333414089900     1.122244329674    -0.000003765920    12.000000000000
         C           -0.333391089900    -1.129410670326     0.000020234080    12.000000000000
         C            0.985245910100     0.705664329674    -0.000033765920    12.000000000000
         C            0.985260710100    -0.692803670326    -0.000009165920    12.000000000000
         H           -2.130206089900    -0.003600670326     0.000059234080     1.007825032230
         H           -0.770439089900     2.111025329674    -0.000016765920     1.007825032230
         H           -0.770393089900    -2.118200670326     0.000044234080     1.007825032230
         H            1.850677910100     1.355017329674    -0.000060765920     1.007825032230
         H            1.850705910100    -1.362138670326    -0.000019765920     1.007825032230

  Basis Set: AUG-CC-PVTZ
    Blend: AUG-CC-PVTZ
  Basis Set: (AUG-CC-PVTZ AUX)
    Blend: AUG-CC-PVTZ-JKFIT
	 Reference Energy          =    -208.8844545057527853 [Eh]
	 Singles Energy            =      -0.0000000000000000 [Eh]
	 Same-Spin Energy          =      -0.2306939012009633 [Eh]
	 Opposite-Spin Energy      =      -0.7233358770039287 [Eh]
	 Correlation Energy        =      -0.9540297782048920 [Eh]
	 Total Energy              =    -209.8384842839576834 [Eh]

	 ================> DF-SCS-MP2 Energies <==================
	-----------------------------------------------------------
	 SCS Same-Spin Scale       =       0.3333333333333333 [-]
	 SCS Opposite-Spin Scale   =       1.2000000000000000 [-]
	 SCS Same-Spin Energy      =      -0.0768979670669878 [Eh]
	 SCS Opposite-Spin Energy  =      -0.8680030524047143 [Eh]
	 SCS Correlation Energy    =      -0.9449010194717021 [Eh]
	 SCS Total Energy          =    -209.8293555252244857 [Eh]
	-----------------------------------------------------------

  Dipole Moment: [D]
     X:    -1.8722      Y:     0.0026      Z:     0.0001     Total:     1.8722

*** Psi4 exiting successfully. Buy a developer a beer!
