                               Psi4 1.3.2 release

  ==> Input File <==

--------------------------------------------------------------------------
#psi4
#
memory 32 gb

molecule  {
0 1
  N       -1.1198630    -0.0000120     0.0000220
  C       -0.2193931     1.2898141    -0.0000078
  C       -0.3338570    -1.1258310     0.0000200
  C        0.9847800     0.7092440    -0.0000340
  C        0.9847950    -0.7092240    -0.0000090
  H       -2.1306720    -0.0000210     0.0000590
  H       -0.7709050     2.1146050    -0.0000170
  H       -0.7708590    -2.1146210     0.0000440
  H        1.8502120     1.3585970    -0.0000610
  H        1.8502400    -1.3585590    -0.0000200
units angstrom
no_reorient  #important for SAPT in psi4, default
symmetry c1  #important for SAPT in psi4, default
}

set PROPERTIES_ORIGIN ["COM"]
properties('MP2/aug-cc-pvtz', properties = ['dipole'])
--------------------------------------------------------------------------

    Molecular point group: c1
  Charge       = 0
  Multiplicity = 1
  Basis Set: AUG-CC-PVTZ
    Blend: AUG-CC-PVTZ
  Basis Set: (AUG-CC-PVTZ AUX)
    Blend: AUG-CC-PVTZ-JKFIT

    Orbital Energies [Eh]
    ---------------------

    Doubly Occupied:

       1A    -15.591711     2A    -11.268116     3A    -11.256753
       4A    -11.223378     5A    -11.208181     6A     -1.244975
       7A     -1.040684     8A     -0.977372     9A     -0.794076
      10A     -0.764726    11A     -0.730256    12A     -0.613207
      13A     -0.561376    14A     -0.547286    15A     -0.540085
      16A     -0.517629    17A     -0.354738    18A     -0.300375

  @DF-RHF Final Energy:  -208.84767135545695

   => Energetics <=

    Nuclear Repulsion Energy =            158.4801267152452056
    One-Electron Energy =                -595.5857458883934896
    Two-Electron Energy =                 228.2579478176913312
    Total Energy =                       -208.8476713554569528
  Basis Set: (AUG-CC-PVTZ AUX)
    Blend: AUG-CC-PVTZ-RI
    Molecular point group: c1

    Geometry (in Angstrom), charge = 0, multiplicity = 1:

       Center              X                  Y                   Z               Mass
    ------------   -----------------  -----------------  -----------------  -----------------
         N           -1.139889335338    -0.029364709121     0.000022842652    14.003074004430
         C           -0.239419435338     1.260461390879    -0.000006957348    12.000000000000
         C           -0.353883335338    -1.155183709121     0.000020842652    12.000000000000
         C            0.964753664662     0.679891290879    -0.000033157348    12.000000000000
         C            0.964768664662    -0.738576709121    -0.000008157348    12.000000000000
         H           -2.150698335338    -0.029373709121     0.000059842652     1.007825032230
         H           -0.790931335338     2.085252290879    -0.000016157348     1.007825032230
         H           -0.790885335338    -2.143973709121     0.000044842652     1.007825032230
         H            1.830185664662     1.329244290879    -0.000060157348     1.007825032230
         H            1.830213664662    -1.387911709121    -0.000019157348     1.007825032230

  Basis Set: AUG-CC-PVTZ
    Blend: AUG-CC-PVTZ
  Basis Set: (AUG-CC-PVTZ AUX)
    Blend: AUG-CC-PVTZ-JKFIT
	 Reference Energy          =    -208.8476713554569528 [Eh]
	 Singles Energy            =      -0.0000000000000000 [Eh]
	 Same-Spin Energy          =      -0.2299032422519082 [Eh]
	 Opposite-Spin Energy      =      -0.7256413935738937 [Eh]
	 Correlation Energy        =      -0.9555446358258020 [Eh]
	 Total Energy              =    -209.8032159912827410 [Eh]

	 ================> DF-SCS-MP2 Energies <==================
	-----------------------------------------------------------
	 SCS Same-Spin Scale       =       0.3333333333333333 [-]
	 SCS Opposite-Spin Scale   =       1.2000000000000000 [-]
	 SCS Same-Spin Energy      =      -0.0766344140839694 [Eh]
	 SCS Opposite-Spin Energy  =      -0.8707696722886724 [Eh]
	 SCS Correlation Energy    =      -0.9474040863726418 [Eh]
	 SCS Total Energy          =    -209.7950754418295958 [Eh]
	-----------------------------------------------------------

  Dipole Moment: [D]
     X:    -1.5746      Y:     0.0688      Z:     0.0000     Total:     1.5761

*** Psi4 exiting successfully. Buy a developer a beer!
