                               Psi4 1.4a3.dev225

  ==> Input File <==

--------------------------------------------------------------------------
#psi4
#
memory 32 gb

molecule  {
0 1
  N       -1.1198630    -0.0000120     0.0000220
  C       -0.3338800     1.1258240    -0.0000040
  C       -0.3338570    -1.1258310     0.0000200
  C        0.9847800     0.7092440    -0.0000340
  C        0.9847952    -0.7292240    -0.0000086
  H       -2.1306720    -0.0000210     0.0000590
  H       -0.7709050     2.1146050    -0.0000170
  H       -0.7708590    -2.1146210     0.0000440
  H        1.8502120     1.3585970    -0.0000610
  H        1.8502400    -1.3585590    -0.0000200
units angstrom
no_reorient  #important for SAPT in psi4, default
symmetry c1  #important for SAPT in psi4, default
}

set PROPERTIES_ORIGIN ["COM"]
properties('MP2/aug-cc-pvtz', properties = ['dipole'])
--------------------------------------------------------------------------

    Molecular point group: c1
  Charge       = 0
  Multiplicity = 1
  Basis Set: AUG-CC-PVTZ
    Blend: AUG-CC-PVTZ
  Basis Set: (AUG-CC-PVTZ AUX)
    Blend: AUG-CC-PVTZ-JKFIT

    Orbital Energies [Eh]
    ---------------------

    Doubly Occupied:

       1A    -15.607254     2A    -11.254604     3A    -11.254423
       4A    -11.212562     5A    -11.210953     6A     -1.288775
       7A     -1.037934     8A     -0.976441     9A     -0.790344
      10A     -0.767386    11A     -0.734467    12A     -0.592014
      13A     -0.582468    14A     -0.566110    15A     -0.549894
      16A     -0.523686    17A     -0.345128    18A     -0.298735

  @DF-RHF Final Energy:  -208.88554843165201

   => Energetics <=

    Nuclear Repulsion Energy =            160.5546099165977409
    One-Electron Energy =                -599.6939624823085069
    Two-Electron Energy =                 230.2538041340587256
    Total Energy =                       -208.8855484316520119
  Basis Set: (AUG-CC-PVTZ AUX)
    Blend: AUG-CC-PVTZ-RI
    Molecular point group: c1

    Geometry (in Angstrom), charge = 0, multiplicity = 1:

       Center              X                  Y                   Z               Mass
    ------------   -----------------  -----------------  -----------------  -----------------
         N           -1.119397161497     0.003567999344     0.000022090887    14.003074004430
         C           -0.333414161497     1.129403999344    -0.000003909113    12.000000000000
         C           -0.333391161497    -1.122251000656     0.000020090887    12.000000000000
         C            0.985245838503     0.712823999344    -0.000033909113    12.000000000000
         C            0.985261038503    -0.725644000656    -0.000008509113    12.000000000000
         H           -2.130206161497     0.003558999344     0.000059090887     1.007825032230
         H           -0.770439161497     2.118184999344    -0.000016909113     1.007825032230
         H           -0.770393161497    -2.111041000656     0.000044090887     1.007825032230
         H            1.850677838503     1.362176999344    -0.000060909113     1.007825032230
         H            1.850705838503    -1.354979000656    -0.000019909113     1.007825032230

  Basis Set: AUG-CC-PVTZ
    Blend: AUG-CC-PVTZ
  Basis Set: (AUG-CC-PVTZ AUX)
    Blend: AUG-CC-PVTZ-JKFIT
	 Reference Energy          =    -208.8855484316520119 [Eh]
	 Singles Energy            =      -0.0000000000000000 [Eh]
	 Same-Spin Energy          =      -0.2300424935706680 [Eh]
	 Opposite-Spin Energy      =      -0.7227655078927568 [Eh]
	 Correlation Energy        =      -0.9528080014634248 [Eh]
	 Total Energy              =    -209.8383564331154503 [Eh]

	 ================> DF-SCS-MP2 Energies <==================
	-----------------------------------------------------------
	 SCS Same-Spin Scale       =       0.3333333333333333 [-]
	 SCS Opposite-Spin Scale   =       1.2000000000000000 [-]
	 SCS Same-Spin Energy      =      -0.0766808311902227 [Eh]
	 SCS Opposite-Spin Energy  =      -0.8673186094713082 [Eh]
	 SCS Correlation Energy    =      -0.9439994406615309 [Eh]
	 SCS Total Energy          =    -209.8295478723135545 [Eh]
	-----------------------------------------------------------

  Dipole Moment: [D]
     X:    -1.8703      Y:    -0.0017      Z:     0.0001     Total:     1.8703

*** Psi4 exiting successfully. Buy a developer a beer!
