                               Psi4 1.3.2 release

  ==> Input File <==

--------------------------------------------------------------------------
#psi4
#
memory 32 gb

molecule  {
0 1
  N       -1.1198630    -0.0000120     0.0000220
  C       -0.2831118     1.2613794    -0.0000078
  C       -0.3338570    -1.1258310     0.0000200
  C        0.9847800     0.7092440    -0.0000340
  C        0.9847950    -0.7092240    -0.0000090
  H       -2.1306720    -0.0000210     0.0000590
  H       -0.7709050     2.1146050    -0.0000170
  H       -0.7708590    -2.1146210     0.0000440
  H        1.8502120     1.3585970    -0.0000610
  H        1.8502400    -1.3585590    -0.0000200
units angstrom
no_reorient  #important for SAPT in psi4, default
symmetry c1  #important for SAPT in psi4, default
}

set PROPERTIES_ORIGIN ["COM"]
properties('MP2/aug-cc-pvtz', properties = ['dipole'])
--------------------------------------------------------------------------

    Molecular point group: c1
  Charge       = 0
  Multiplicity = 1
  Basis Set: AUG-CC-PVTZ
    Blend: AUG-CC-PVTZ
  Basis Set: (AUG-CC-PVTZ AUX)
    Blend: AUG-CC-PVTZ-JKFIT

    Orbital Energies [Eh]
    ---------------------

    Doubly Occupied:

       1A    -15.599920     2A    -11.265559     3A    -11.255892
       4A    -11.224064     5A    -11.210248     6A     -1.254874
       7A     -1.035566     8A     -0.977153     9A     -0.795464
      10A     -0.764606    11A     -0.734097    12A     -0.607600
      13A     -0.566492    14A     -0.545394    15A     -0.544143
      16A     -0.530596    17A     -0.347834    18A     -0.299427

  @DF-RHF Final Energy:  -208.85882862956061

   => Energetics <=

    Nuclear Repulsion Energy =            158.6587234003936260
    One-Electron Energy =                -595.9172441555072055
    Two-Electron Energy =                 228.3996921255529742
    Total Energy =                       -208.8588286295606053
  Basis Set: (AUG-CC-PVTZ AUX)
    Blend: AUG-CC-PVTZ-RI
    Molecular point group: c1

    Geometry (in Angstrom), charge = 0, multiplicity = 1:

       Center              X                  Y                   Z               Mass
    ------------   -----------------  -----------------  -----------------  -----------------
         N           -1.128484214242    -0.024275132642     0.000022842652    14.003074004430
         C           -0.291733014242     1.237116267358    -0.000006957348    12.000000000000
         C           -0.342478214242    -1.150094132642     0.000020842652    12.000000000000
         C            0.976158785758     0.684980867358    -0.000033157348    12.000000000000
         C            0.976173785758    -0.733487132642    -0.000008157348    12.000000000000
         H           -2.139293214242    -0.024284132642     0.000059842652     1.007825032230
         H           -0.779526214242     2.090341867358    -0.000016157348     1.007825032230
         H           -0.779480214242    -2.138884132642     0.000044842652     1.007825032230
         H            1.841590785758     1.334333867358    -0.000060157348     1.007825032230
         H            1.841618785758    -1.382822132642    -0.000019157348     1.007825032230

  Basis Set: AUG-CC-PVTZ
    Blend: AUG-CC-PVTZ
  Basis Set: (AUG-CC-PVTZ AUX)
    Blend: AUG-CC-PVTZ-JKFIT
	 Reference Energy          =    -208.8588286295606053 [Eh]
	 Singles Energy            =      -0.0000000000000000 [Eh]
	 Same-Spin Energy          =      -0.2303875169498782 [Eh]
	 Opposite-Spin Energy      =      -0.7257374171020388 [Eh]
	 Correlation Energy        =      -0.9561249340519169 [Eh]
	 Total Energy              =    -209.8149535636125336 [Eh]

	 ================> DF-SCS-MP2 Energies <==================
	-----------------------------------------------------------
	 SCS Same-Spin Scale       =       0.3333333333333333 [-]
	 SCS Opposite-Spin Scale   =       1.2000000000000000 [-]
	 SCS Same-Spin Energy      =      -0.0767958389832927 [Eh]
	 SCS Opposite-Spin Energy  =      -0.8708849005224465 [Eh]
	 SCS Correlation Energy    =      -0.9476807395057392 [Eh]
	 SCS Total Energy          =    -209.8065093690663332 [Eh]
	-----------------------------------------------------------

  Dipole Moment: [D]
     X:    -1.6799      Y:    -0.0146      Z:     0.0000     Total:     1.6800

*** Psi4 exiting successfully. Buy a developer a beer!
