                               Psi4 1.3.2 release

  ==> Input File <==

--------------------------------------------------------------------------
#psi4
#
memory 32 gb

molecule  {
0 1
  N       -1.1198630    -0.0000120     0.0000220
  C       -0.3338800     1.1258240    -0.0000040
  C       -0.3338570    -1.1258310     0.0000200
  C        0.9847800     0.7092440    -0.0000340
  C        0.9847950    -0.7092240    -0.0000090
  H       -2.1306720    -0.0000210     0.0000590
  H       -0.7709050     2.1146050    -0.0000170
  H       -0.7708590    -2.1146210     0.0000440
  H        1.7702244     1.2985805    -0.0000585
  H        1.8502400    -1.3585590    -0.0000200
units angstrom
no_reorient  #important for SAPT in psi4, default
symmetry c1  #important for SAPT in psi4, default
}

set PROPERTIES_ORIGIN ["COM"]
properties('MP2/aug-cc-pvtz', properties = ['dipole'])
--------------------------------------------------------------------------

    Molecular point group: c1
  Charge       = 0
  Multiplicity = 1
  Basis Set: AUG-CC-PVTZ
    Blend: AUG-CC-PVTZ
  Basis Set: (AUG-CC-PVTZ AUX)
    Blend: AUG-CC-PVTZ-JKFIT

    Orbital Energies [Eh]
    ---------------------

    Doubly Occupied:

       1A    -15.607695     2A    -11.253513     3A    -11.253471
       4A    -11.210085     5A    -11.198968     6A     -1.288927
       7A     -1.042829     8A     -0.976105     9A     -0.798874
      10A     -0.772734    11A     -0.735191    12A     -0.598862
      13A     -0.582362    14A     -0.565965    15A     -0.553481
      16A     -0.529699    17A     -0.347010    18A     -0.296223

  @DF-RHF Final Energy:  -208.87924954253737

   => Energetics <=

    Nuclear Repulsion Energy =            161.2410466995608544
    One-Electron Energy =                -601.0166050159175484
    Two-Electron Energy =                 230.8963087738193281
    Total Energy =                       -208.8792495425373659
  Basis Set: (AUG-CC-PVTZ AUX)
    Blend: AUG-CC-PVTZ-RI
    Molecular point group: c1

    Geometry (in Angstrom), charge = 0, multiplicity = 1:

       Center              X                  Y                   Z               Mass
    ------------   -----------------  -----------------  -----------------  -----------------
         N           -1.118194696384     0.000890374338     0.000022124902    14.003074004430
         C           -0.332211696384     1.126726374338    -0.000003875098    12.000000000000
         C           -0.332188696384    -1.124928625662     0.000020124902    12.000000000000
         C            0.986448303616     0.710146374338    -0.000033875098    12.000000000000
         C            0.986463303616    -0.708321625662    -0.000008875098    12.000000000000
         H           -2.129003696384     0.000881374338     0.000059124902     1.007825032230
         H           -0.769236696384     2.115507374338    -0.000016875098     1.007825032230
         H           -0.769190696384    -2.113718625662     0.000044124902     1.007825032230
         H            1.771892703616     1.299482874338    -0.000058375098     1.007825032230
         H            1.851908303616    -1.357656625662    -0.000019875098     1.007825032230

  Basis Set: AUG-CC-PVTZ
    Blend: AUG-CC-PVTZ
  Basis Set: (AUG-CC-PVTZ AUX)
    Blend: AUG-CC-PVTZ-JKFIT
	 Reference Energy          =    -208.8792495425373659 [Eh]
	 Singles Energy            =      -0.0000000000000000 [Eh]
	 Same-Spin Energy          =      -0.2302703023574804 [Eh]
	 Opposite-Spin Energy      =      -0.7226412645760416 [Eh]
	 Correlation Energy        =      -0.9529115669335220 [Eh]
	 Total Energy              =    -209.8321611094708885 [Eh]

	 ================> DF-SCS-MP2 Energies <==================
	-----------------------------------------------------------
	 SCS Same-Spin Scale       =       0.3333333333333333 [-]
	 SCS Opposite-Spin Scale   =       1.2000000000000000 [-]
	 SCS Same-Spin Energy      =      -0.0767567674524935 [Eh]
	 SCS Opposite-Spin Energy  =      -0.8671695174912499 [Eh]
	 SCS Correlation Energy    =      -0.9439262849437434 [Eh]
	 SCS Total Energy          =    -209.8231758274811227 [Eh]
	-----------------------------------------------------------

  Dipole Moment: [D]
     X:    -1.8630      Y:     0.0147      Z:     0.0001     Total:     1.8630

*** Psi4 exiting successfully. Buy a developer a beer!
