                               Psi4 1.3.2 release

  ==> Input File <==

--------------------------------------------------------------------------
#psi4
#
memory 32 gb

molecule  {
0 1
  N       -1.1198630    -0.0000120     0.0000220
  C       -0.3409495     1.1027468    -0.0000036
  C       -0.3338570    -1.1258310     0.0000200
  C        0.9847800     0.7092440    -0.0000340
  C        0.9847950    -0.7092240    -0.0000090
  H       -2.1306720    -0.0000210     0.0000590
  H       -0.7709050     2.1146050    -0.0000170
  H       -0.7708590    -2.1146210     0.0000440
  H        1.8502120     1.3585970    -0.0000610
  H        1.8502400    -1.3585590    -0.0000200
units angstrom
no_reorient  #important for SAPT in psi4, default
symmetry c1  #important for SAPT in psi4, default
}

set PROPERTIES_ORIGIN ["COM"]
properties('MP2/aug-cc-pvtz', properties = ['dipole'])
--------------------------------------------------------------------------

    Molecular point group: c1
  Charge       = 0
  Multiplicity = 1
  Basis Set: AUG-CC-PVTZ
    Blend: AUG-CC-PVTZ
  Basis Set: (AUG-CC-PVTZ AUX)
    Blend: AUG-CC-PVTZ-JKFIT

    Orbital Energies [Eh]
    ---------------------

    Doubly Occupied:

       1A    -15.609266     2A    -11.254241     3A    -11.252116
       4A    -11.211258     5A    -11.208885     6A     -1.296732
       7A     -1.042103     8A     -0.975037     9A     -0.793127
      10A     -0.767571    11A     -0.732674    12A     -0.594535
      13A     -0.580152    14A     -0.570934    15A     -0.545482
      16A     -0.525192    17A     -0.348051    18A     -0.295886

  @DF-RHF Final Energy:  -208.88517679600741

   => Energetics <=

    Nuclear Repulsion Energy =            161.1347789574835190
    One-Electron Energy =                -600.8334293465482006
    Two-Electron Energy =                 230.8134735930572958
    Total Energy =                       -208.8851767960074142
  Basis Set: (AUG-CC-PVTZ AUX)
    Blend: AUG-CC-PVTZ-RI
    Molecular point group: c1

    Geometry (in Angstrom), charge = 0, multiplicity = 1:

       Center              X                  Y                   Z               Mass
    ------------   -----------------  -----------------  -----------------  -----------------
         N           -1.118131743580     0.004118792732     0.000022090887    14.003074004430
         C           -0.339218243580     1.106877592732    -0.000003509113    12.000000000000
         C           -0.332125743580    -1.121700207268     0.000020090887    12.000000000000
         C            0.986511256420     0.713374792732    -0.000033909113    12.000000000000
         C            0.986526256420    -0.705093207268    -0.000008909113    12.000000000000
         H           -2.128940743580     0.004109792732     0.000059090887     1.007825032230
         H           -0.769173743580     2.118735792732    -0.000016909113     1.007825032230
         H           -0.769127743580    -2.110490207268     0.000044090887     1.007825032230
         H            1.851943256420     1.362727792732    -0.000060909113     1.007825032230
         H            1.851971256420    -1.354428207268    -0.000019909113     1.007825032230

  Basis Set: AUG-CC-PVTZ
    Blend: AUG-CC-PVTZ
  Basis Set: (AUG-CC-PVTZ AUX)
    Blend: AUG-CC-PVTZ-JKFIT
	 Reference Energy          =    -208.8851767960074142 [Eh]
	 Singles Energy            =      -0.0000000000000000 [Eh]
	 Same-Spin Energy          =      -0.2303967170755983 [Eh]
	 Opposite-Spin Energy      =      -0.7227034063160220 [Eh]
	 Correlation Energy        =      -0.9531001233916203 [Eh]
	 Total Energy              =    -209.8382769193990214 [Eh]

	 ================> DF-SCS-MP2 Energies <==================
	-----------------------------------------------------------
	 SCS Same-Spin Scale       =       0.3333333333333333 [-]
	 SCS Opposite-Spin Scale   =       1.2000000000000000 [-]
	 SCS Same-Spin Energy      =      -0.0767989056918661 [Eh]
	 SCS Opposite-Spin Energy  =      -0.8672440875792264 [Eh]
	 SCS Correlation Energy    =      -0.9440429932710925 [Eh]
	 SCS Total Energy          =    -209.8292197892785111 [Eh]
	-----------------------------------------------------------

  Dipole Moment: [D]
     X:    -1.9028      Y:     0.0027      Z:     0.0001     Total:     1.9028

*** Psi4 exiting successfully. Buy a developer a beer!
