                               Psi4 1.3.2 release

  ==> Input File <==

--------------------------------------------------------------------------
#psi4
#
memory 32 gb

molecule  {
0 1
  N       -1.1198630    -0.0000120     0.0000220
  C       -0.3016087     1.2167943    -0.0000055
  C       -0.3338570    -1.1258310     0.0000200
  C        0.9847800     0.7092440    -0.0000340
  C        0.9847950    -0.7092240    -0.0000090
  H       -2.1306720    -0.0000210     0.0000590
  H       -0.7709050     2.1146050    -0.0000170
  H       -0.7708590    -2.1146210     0.0000440
  H        1.8502120     1.3585970    -0.0000610
  H        1.8502400    -1.3585590    -0.0000200
units angstrom
no_reorient  #important for SAPT in psi4, default
symmetry c1  #important for SAPT in psi4, default
}

set PROPERTIES_ORIGIN ["COM"]
properties('MP2/aug-cc-pvtz', properties = ['dipole'])
--------------------------------------------------------------------------

    Molecular point group: c1
  Charge       = 0
  Multiplicity = 1
  Basis Set: AUG-CC-PVTZ
    Blend: AUG-CC-PVTZ
  Basis Set: (AUG-CC-PVTZ AUX)
    Blend: AUG-CC-PVTZ-JKFIT

    Orbital Energies [Eh]
    ---------------------

    Doubly Occupied:

       1A    -15.603067     2A    -11.261899     3A    -11.254786
       4A    -11.219398     5A    -11.210369     6A     -1.264925
       7A     -1.036720     8A     -0.976425     9A     -0.791933
      10A     -0.763435    11A     -0.736393    12A     -0.600338
      13A     -0.571054    14A     -0.551612    15A     -0.542329
      16A     -0.537007    17A     -0.347027    18A     -0.298930

  @DF-RHF Final Energy:  -208.87250020821716

   => Energetics <=

    Nuclear Repulsion Energy =            159.3154316618714859
    One-Electron Energy =                -597.2405718331592652
    Two-Electron Energy =                 229.0526399630706464
    Total Energy =                       -208.8725002082171613
  Basis Set: (AUG-CC-PVTZ AUX)
    Blend: AUG-CC-PVTZ-RI
    Molecular point group: c1

    Geometry (in Angstrom), charge = 0, multiplicity = 1:

       Center              X                  Y                   Z               Mass
    ------------   -----------------  -----------------  -----------------  -----------------
         N           -1.125173421894    -0.016294767936     0.000022430971    14.003074004430
         C           -0.306919121894     1.200511532064    -0.000005069029    12.000000000000
         C           -0.339167421894    -1.142113767936     0.000020430971    12.000000000000
         C            0.979469578106     0.692961232064    -0.000033569029    12.000000000000
         C            0.979484578106    -0.725506767936    -0.000008569029    12.000000000000
         H           -2.135982421894    -0.016303767936     0.000059430971     1.007825032230
         H           -0.776215421894     2.098322232064    -0.000016569029     1.007825032230
         H           -0.776169421894    -2.130903767936     0.000044430971     1.007825032230
         H            1.844901578106     1.342314232064    -0.000060569029     1.007825032230
         H            1.844929578106    -1.374841767936    -0.000019569029     1.007825032230

  Basis Set: AUG-CC-PVTZ
    Blend: AUG-CC-PVTZ
  Basis Set: (AUG-CC-PVTZ AUX)
    Blend: AUG-CC-PVTZ-JKFIT
	 Reference Energy          =    -208.8725002082171613 [Eh]
	 Singles Energy            =      -0.0000000000000000 [Eh]
	 Same-Spin Energy          =      -0.2303269880366895 [Eh]
	 Opposite-Spin Energy      =      -0.7246985422118630 [Eh]
	 Correlation Energy        =      -0.9550255302485525 [Eh]
	 Total Energy              =    -209.8275257384657095 [Eh]

	 ================> DF-SCS-MP2 Energies <==================
	-----------------------------------------------------------
	 SCS Same-Spin Scale       =       0.3333333333333333 [-]
	 SCS Opposite-Spin Scale   =       1.2000000000000000 [-]
	 SCS Same-Spin Energy      =      -0.0767756626788965 [Eh]
	 SCS Opposite-Spin Energy  =      -0.8696382506542356 [Eh]
	 SCS Correlation Energy    =      -0.9464139133331321 [Eh]
	 SCS Total Energy          =    -209.8189141215503071 [Eh]
	-----------------------------------------------------------

  Dipole Moment: [D]
     X:    -1.7442      Y:    -0.0115      Z:     0.0001     Total:     1.7442

*** Psi4 exiting successfully. Buy a developer a beer!
