                               Psi4 1.3.2 release

  ==> Input File <==

--------------------------------------------------------------------------
#psi4
#
memory 32 gb

molecule  {
0 1
  N       -1.1198630    -0.0000120     0.0000220
  C       -0.3338800     1.1258240    -0.0000040
  C       -0.3338570    -1.1258310     0.0000200
  C        0.9985151     0.7555183    -0.0000357
  C        0.9847950    -0.7092240    -0.0000090
  H       -2.1306720    -0.0000210     0.0000590
  H       -0.7709050     2.1146050    -0.0000170
  H       -0.7708590    -2.1146210     0.0000440
  H        1.8502120     1.3585970    -0.0000610
  H        1.8502400    -1.3585590    -0.0000200
units angstrom
no_reorient  #important for SAPT in psi4, default
symmetry c1  #important for SAPT in psi4, default
}

set PROPERTIES_ORIGIN ["COM"]
properties('MP2/aug-cc-pvtz', properties = ['dipole'])
--------------------------------------------------------------------------

    Molecular point group: c1
  Charge       = 0
  Multiplicity = 1
  Basis Set: AUG-CC-PVTZ
    Blend: AUG-CC-PVTZ
  Basis Set: (AUG-CC-PVTZ AUX)
    Blend: AUG-CC-PVTZ-JKFIT

    Orbital Energies [Eh]
    ---------------------

    Doubly Occupied:

       1A    -15.607257     2A    -11.256853     3A    -11.255065
       4A    -11.214838     5A    -11.212118     6A     -1.287524
       7A     -1.034063     8A     -0.976683     9A     -0.790647
      10A     -0.769900    11A     -0.733798    12A     -0.596069
      13A     -0.582385    14A     -0.565103    15A     -0.555173
      16A     -0.516231    17A     -0.342210    18A     -0.299929

  @DF-RHF Final Energy:  -208.88321019857463

   => Energetics <=

    Nuclear Repulsion Energy =            160.1072604440302030
    One-Electron Energy =                -598.7892505555129219
    Two-Electron Energy =                 229.7987799129080884
    Total Energy =                       -208.8832101985746306
  Basis Set: (AUG-CC-PVTZ AUX)
    Blend: AUG-CC-PVTZ-RI
    Molecular point group: c1

    Geometry (in Angstrom), charge = 0, multiplicity = 1:

       Center              X                  Y                   Z               Mass
    ------------   -----------------  -----------------  -----------------  -----------------
         N           -1.121855595171    -0.008294553046     0.000022466769    14.003074004430
         C           -0.335872595171     1.117541446954    -0.000003533231    12.000000000000
         C           -0.335849595171    -1.134113553046     0.000020466769    12.000000000000
         C            0.996522504829     0.747235746954    -0.000035233231    12.000000000000
         C            0.982802404829    -0.717506553046    -0.000008533231    12.000000000000
         H           -2.132664595171    -0.008303553046     0.000059466769     1.007825032230
         H           -0.772897595171     2.106322446954    -0.000016533231     1.007825032230
         H           -0.772851595171    -2.122903553046     0.000044466769     1.007825032230
         H            1.848219404829     1.350314446954    -0.000060533231     1.007825032230
         H            1.848247404829    -1.366841553046    -0.000019533231     1.007825032230

  Basis Set: AUG-CC-PVTZ
    Blend: AUG-CC-PVTZ
  Basis Set: (AUG-CC-PVTZ AUX)
    Blend: AUG-CC-PVTZ-JKFIT
	 Reference Energy          =    -208.8832101985746306 [Eh]
	 Singles Energy            =      -0.0000000000000000 [Eh]
	 Same-Spin Energy          =      -0.2297957860345848 [Eh]
	 Opposite-Spin Energy      =      -0.7228110249241664 [Eh]
	 Correlation Energy        =      -0.9526068109587512 [Eh]
	 Total Energy              =    -209.8358170095333719 [Eh]

	 ================> DF-SCS-MP2 Energies <==================
	-----------------------------------------------------------
	 SCS Same-Spin Scale       =       0.3333333333333333 [-]
	 SCS Opposite-Spin Scale   =       1.2000000000000000 [-]
	 SCS Same-Spin Energy      =      -0.0765985953448616 [Eh]
	 SCS Opposite-Spin Energy  =      -0.8673732299089997 [Eh]
	 SCS Correlation Energy    =      -0.9439718252538613 [Eh]
	 SCS Total Energy          =    -209.8271820238284988 [Eh]
	-----------------------------------------------------------

  Dipole Moment: [D]
     X:    -1.8789      Y:    -0.0026      Z:     0.0001     Total:     1.8789

*** Psi4 exiting successfully. Buy a developer a beer!
