                               Psi4 1.3.2 release

  ==> Input File <==

--------------------------------------------------------------------------
#psi4
#
memory 32 gb

molecule  {
0 1
  N       -1.1198630    -0.0000120     0.0000220
  C       -0.3338800     1.1258240    -0.0000040
  C       -0.3338570    -1.1258310     0.0000200
  C        0.9847800     0.7092440    -0.0000340
  C        0.9847950    -0.7092240    -0.0000090
  H       -2.1306720    -0.0000210     0.0000590
  H       -0.7304792     2.0231405    -0.0000158
  H       -0.7708590    -2.1146210     0.0000440
  H        1.8502120     1.3585970    -0.0000610
  H        1.8502400    -1.3585590    -0.0000200
units angstrom
no_reorient  #important for SAPT in psi4, default
symmetry c1  #important for SAPT in psi4, default
}

set PROPERTIES_ORIGIN ["COM"]
properties('MP2/aug-cc-pvtz', properties = ['dipole'])
--------------------------------------------------------------------------

    Molecular point group: c1
  Charge       = 0
  Multiplicity = 1
  Basis Set: AUG-CC-PVTZ
    Blend: AUG-CC-PVTZ
  Basis Set: (AUG-CC-PVTZ AUX)
    Blend: AUG-CC-PVTZ-JKFIT

    Orbital Energies [Eh]
    ---------------------

    Doubly Occupied:

       1A    -15.607513     2A    -11.253867     3A    -11.242411
       4A    -11.210937     5A    -11.209873     6A     -1.289256
       7A     -1.040188     8A     -0.981019     9A     -0.794526
      10A     -0.768578    11A     -0.747468    12A     -0.593851
      13A     -0.589582    14A     -0.566046    15A     -0.545499
      16A     -0.531133    17A     -0.347001    18A     -0.296554

  @DF-RHF Final Energy:  -208.87926797777280

   => Energetics <=

    Nuclear Repulsion Energy =            161.2490587157708717
    One-Electron Energy =                -601.0260474288022579
    Two-Electron Energy =                 230.8977207352586163
    Total Energy =                       -208.8792679777727983
  Basis Set: (AUG-CC-PVTZ AUX)
    Blend: AUG-CC-PVTZ-RI
    Molecular point group: c1

    Geometry (in Angstrom), charge = 0, multiplicity = 1:

       Center              X                  Y                   Z               Mass
    ------------   -----------------  -----------------  -----------------  -----------------
         N           -1.120004834480     0.001363122578     0.000022144444    14.003074004430
         C           -0.334021834480     1.127199122578    -0.000003855556    12.000000000000
         C           -0.333998834480    -1.124455877422     0.000020144444    12.000000000000
         C            0.984638165520     0.710619122578    -0.000033855556    12.000000000000
         C            0.984653165520    -0.707848877422    -0.000008855556    12.000000000000
         H           -2.130813834480     0.001354122578     0.000059144444     1.007825032230
         H           -0.730621034480     2.024515622578    -0.000015655556     1.007825032230
         H           -0.771000834480    -2.113245877422     0.000044144444     1.007825032230
         H            1.850070165520     1.359972122578    -0.000060855556     1.007825032230
         H            1.850098165520    -1.357183877422    -0.000019855556     1.007825032230

  Basis Set: AUG-CC-PVTZ
    Blend: AUG-CC-PVTZ
  Basis Set: (AUG-CC-PVTZ AUX)
    Blend: AUG-CC-PVTZ-JKFIT
	 Reference Energy          =    -208.8792679777727983 [Eh]
	 Singles Energy            =      -0.0000000000000000 [Eh]
	 Same-Spin Energy          =      -0.2302262971931244 [Eh]
	 Opposite-Spin Energy      =      -0.7225459952136218 [Eh]
	 Correlation Energy        =      -0.9527722924067463 [Eh]
	 Total Energy              =    -209.8320402701795331 [Eh]

	 ================> DF-SCS-MP2 Energies <==================
	-----------------------------------------------------------
	 SCS Same-Spin Scale       =       0.3333333333333333 [-]
	 SCS Opposite-Spin Scale   =       1.2000000000000000 [-]
	 SCS Same-Spin Energy      =      -0.0767420990643748 [Eh]
	 SCS Opposite-Spin Energy  =      -0.8670551942563461 [Eh]
	 SCS Correlation Energy    =      -0.9437972933207209 [Eh]
	 SCS Total Energy          =    -209.8230652710935260 [Eh]
	-----------------------------------------------------------

  Dipole Moment: [D]
     X:    -1.8747      Y:     0.0030      Z:     0.0001     Total:     1.8747

*** Psi4 exiting successfully. Buy a developer a beer!
