                               Psi4 1.3.2 release

  ==> Input File <==

--------------------------------------------------------------------------
#psi4
#
memory 32 gb

molecule  {
0 1
  N       -1.1198630    -0.0000120     0.0000220
  C       -0.3338800     1.1258240    -0.0000040
  C       -0.3338570    -1.1258310     0.0000200
  C        1.0211007     0.8493636    -0.0000389
  C        0.9847950    -0.7092240    -0.0000090
  H       -2.1306720    -0.0000210     0.0000590
  H       -0.7709050     2.1146050    -0.0000170
  H       -0.7708590    -2.1146210     0.0000440
  H        1.8502120     1.3585970    -0.0000610
  H        1.8502400    -1.3585590    -0.0000200
units angstrom
no_reorient  #important for SAPT in psi4, default
symmetry c1  #important for SAPT in psi4, default
}

set PROPERTIES_ORIGIN ["COM"]
properties('MP2/aug-cc-pvtz', properties = ['dipole'])
--------------------------------------------------------------------------

    Molecular point group: c1
  Charge       = 0
  Multiplicity = 1
  Basis Set: AUG-CC-PVTZ
    Blend: AUG-CC-PVTZ
  Basis Set: (AUG-CC-PVTZ AUX)
    Blend: AUG-CC-PVTZ-JKFIT

    Orbital Energies [Eh]
    ---------------------

    Doubly Occupied:

       1A    -15.606040     2A    -11.263181     3A    -11.257287
       4A    -11.221387     5A    -11.215343     6A     -1.284801
       7A     -1.023859     8A     -0.979502     9A     -0.798912
      10A     -0.771407    11A     -0.731859    12A     -0.616276
      13A     -0.581590    14A     -0.564221    15A     -0.563256
      16A     -0.487757    17A     -0.333839    18A     -0.306325

  @DF-RHF Final Energy:  -208.86169313848433

   => Energetics <=

    Nuclear Repulsion Energy =            158.9382259129880879
    One-Electron Energy =                -596.3861567546557580
    Two-Electron Energy =                 228.5862377031833717
    Total Energy =                       -208.8616931384843269
  Basis Set: (AUG-CC-PVTZ AUX)
    Blend: AUG-CC-PVTZ-RI
    Molecular point group: c1

    Geometry (in Angstrom), charge = 0, multiplicity = 1:

       Center              X                  Y                   Z               Mass
    ------------   -----------------  -----------------  -----------------  -----------------
         N           -1.125898231053    -0.025092086749     0.000023039543    14.003074004430
         C           -0.339915231053     1.100743913251    -0.000002960457    12.000000000000
         C           -0.339892231053    -1.150911086749     0.000021039543    12.000000000000
         C            1.015065468947     0.824283513251    -0.000037860457    12.000000000000
         C            0.978759768947    -0.734304086749    -0.000007960457    12.000000000000
         H           -2.136707231053    -0.025101086749     0.000060039543     1.007825032230
         H           -0.776940231053     2.089524913251    -0.000015960457     1.007825032230
         H           -0.776894231053    -2.139701086749     0.000045039543     1.007825032230
         H            1.844176768947     1.333516913251    -0.000059960457     1.007825032230
         H            1.844204768947    -1.383639086749    -0.000018960457     1.007825032230

  Basis Set: AUG-CC-PVTZ
    Blend: AUG-CC-PVTZ
  Basis Set: (AUG-CC-PVTZ AUX)
    Blend: AUG-CC-PVTZ-JKFIT
	 Reference Energy          =    -208.8616931384843269 [Eh]
	 Singles Energy            =      -0.0000000000000000 [Eh]
	 Same-Spin Energy          =      -0.2290159204367290 [Eh]
	 Opposite-Spin Energy      =      -0.7233861534338429 [Eh]
	 Correlation Energy        =      -0.9524020738705720 [Eh]
	 Total Energy              =    -209.8140952123548857 [Eh]

	 ================> DF-SCS-MP2 Energies <==================
	-----------------------------------------------------------
	 SCS Same-Spin Scale       =       0.3333333333333333 [-]
	 SCS Opposite-Spin Scale   =       1.2000000000000000 [-]
	 SCS Same-Spin Energy      =      -0.0763386401455763 [Eh]
	 SCS Opposite-Spin Energy  =      -0.8680633841206115 [Eh]
	 SCS Correlation Energy    =      -0.9444020242661878 [Eh]
	 SCS Total Energy          =    -209.8060951627505233 [Eh]
	-----------------------------------------------------------

  Dipole Moment: [D]
     X:    -1.9035      Y:    -0.0275      Z:     0.0001     Total:     1.9037

*** Psi4 exiting successfully. Buy a developer a beer!
