                               Psi4 1.3.2 release

  ==> Input File <==

--------------------------------------------------------------------------
#psi4
#
memory 32 gb

molecule  {
0 1
  N       -1.1198630    -0.0000120     0.0000220
  C       -0.2766366     1.2078191    -0.0000059
  C       -0.3338570    -1.1258310     0.0000200
  C        0.9847800     0.7092440    -0.0000340
  C        0.9847950    -0.7092240    -0.0000090
  H       -2.1306720    -0.0000210     0.0000590
  H       -0.7709050     2.1146050    -0.0000170
  H       -0.7708590    -2.1146210     0.0000440
  H        1.8502120     1.3585970    -0.0000610
  H        1.8502400    -1.3585590    -0.0000200
units angstrom
no_reorient  #important for SAPT in psi4, default
symmetry c1  #important for SAPT in psi4, default
}

set PROPERTIES_ORIGIN ["COM"]
properties('MP2/aug-cc-pvtz', properties = ['dipole'])
--------------------------------------------------------------------------

    Molecular point group: c1
  Charge       = 0
  Multiplicity = 1
  Basis Set: AUG-CC-PVTZ
    Blend: AUG-CC-PVTZ
  Basis Set: (AUG-CC-PVTZ AUX)
    Blend: AUG-CC-PVTZ-JKFIT

    Orbital Energies [Eh]
    ---------------------

    Doubly Occupied:

       1A    -15.600535     2A    -11.261736     3A    -11.253974
       4A    -11.216519     5A    -11.209367     6A     -1.264106
       7A     -1.039623     8A     -0.976389     9A     -0.790056
      10A     -0.762428    11A     -0.734849    12A     -0.599765
      13A     -0.567152    14A     -0.551619    15A     -0.545059
      16A     -0.536339    17A     -0.349185    18A     -0.300330

  @DF-RHF Final Energy:  -208.87429939880960

   => Energetics <=

    Nuclear Repulsion Energy =            159.5762513393307245
    One-Electron Energy =                -597.7830416061842698
    Two-Electron Energy =                 229.3324908680439478
    Total Energy =                       -208.8742993988095975
  Basis Set: (AUG-CC-PVTZ AUX)
    Blend: AUG-CC-PVTZ-RI
    Molecular point group: c1

    Geometry (in Angstrom), charge = 0, multiplicity = 1:

       Center              X                  Y                   Z               Mass
    ------------   -----------------  -----------------  -----------------  -----------------
         N           -1.129643221569    -0.014688281255     0.000022502568    14.003074004430
         C           -0.286416821569     1.193142818745    -0.000005397432    12.000000000000
         C           -0.343637221569    -1.140507281255     0.000020502568    12.000000000000
         C            0.974999778431     0.694567718745    -0.000033497432    12.000000000000
         C            0.975014778431    -0.723900281255    -0.000008497432    12.000000000000
         H           -2.140452221569    -0.014697281255     0.000059502568     1.007825032230
         H           -0.780685221569     2.099928718745    -0.000016497432     1.007825032230
         H           -0.780639221569    -2.129297281255     0.000044502568     1.007825032230
         H            1.840431778431     1.343920718745    -0.000060497432     1.007825032230
         H            1.840459778431    -1.373235281255    -0.000019497432     1.007825032230

  Basis Set: AUG-CC-PVTZ
    Blend: AUG-CC-PVTZ
  Basis Set: (AUG-CC-PVTZ AUX)
    Blend: AUG-CC-PVTZ-JKFIT
	 Reference Energy          =    -208.8742993988095975 [Eh]
	 Singles Energy            =      -0.0000000000000000 [Eh]
	 Same-Spin Energy          =      -0.2299760572589255 [Eh]
	 Opposite-Spin Energy      =      -0.7240940349557772 [Eh]
	 Correlation Energy        =      -0.9540700922147027 [Eh]
	 Total Energy              =    -209.8283694910242900 [Eh]

	 ================> DF-SCS-MP2 Energies <==================
	-----------------------------------------------------------
	 SCS Same-Spin Scale       =       0.3333333333333333 [-]
	 SCS Opposite-Spin Scale   =       1.2000000000000000 [-]
	 SCS Same-Spin Energy      =      -0.0766586857529752 [Eh]
	 SCS Opposite-Spin Energy  =      -0.8689128419469326 [Eh]
	 SCS Correlation Energy    =      -0.9455715276999078 [Eh]
	 SCS Total Energy          =    -209.8198709265095090 [Eh]
	-----------------------------------------------------------

  Dipole Moment: [D]
     X:    -1.7197      Y:     0.0247      Z:     0.0000     Total:     1.7199

*** Psi4 exiting successfully. Buy a developer a beer!
