                               Psi4 1.4a3.dev225

  ==> Input File <==

--------------------------------------------------------------------------
#psi4
#
memory 32 gb

molecule  {
0 1
  N       -1.1198630    -0.0000120     0.0000220
  C       -0.3224313     1.1422230    -0.0000044
  C       -0.3338570    -1.1258310     0.0000200
  C        0.9847800     0.7092440    -0.0000340
  C        0.9847950    -0.7092240    -0.0000090
  H       -2.1306720    -0.0000210     0.0000590
  H       -0.7709050     2.1146050    -0.0000170
  H       -0.7708590    -2.1146210     0.0000440
  H        1.8502120     1.3585970    -0.0000610
  H        1.8502400    -1.3585590    -0.0000200
units angstrom
no_reorient  #important for SAPT in psi4, default
symmetry c1  #important for SAPT in psi4, default
}

set PROPERTIES_ORIGIN ["COM"]
properties('MP2/aug-cc-pvtz', properties = ['dipole'])
--------------------------------------------------------------------------

    Molecular point group: c1
  Charge       = 0
  Multiplicity = 1
  Basis Set: AUG-CC-PVTZ
    Blend: AUG-CC-PVTZ
  Basis Set: (AUG-CC-PVTZ AUX)
    Blend: AUG-CC-PVTZ-JKFIT

    Orbital Energies [Eh]
    ---------------------

    Doubly Occupied:

       1A    -15.606736     2A    -11.255732     3A    -11.253867
       4A    -11.212134     5A    -11.210408     6A     -1.283825
       7A     -1.040283     8A     -0.975506     9A     -0.790897
      10A     -0.764488    11A     -0.735233    12A     -0.590460
      13A     -0.580849    14A     -0.563236    15A     -0.545675
      16A     -0.531582    17A     -0.347424    18A     -0.297770

  @DF-RHF Final Energy:  -208.88483942390062

   => Energetics <=

    Nuclear Repulsion Energy =            160.5060866450685921
    One-Electron Energy =                -599.6096390997032586
    Two-Electron Energy =                 230.2187130307340510
    Total Energy =                       -208.8848394239006154
  Basis Set: (AUG-CC-PVTZ AUX)
    Blend: AUG-CC-PVTZ-RI
    Molecular point group: c1

    Geometry (in Angstrom), charge = 0, multiplicity = 1:

       Center              X                  Y                   Z               Mass
    ------------   -----------------  -----------------  -----------------  -----------------
         N           -1.121446348452    -0.002947121064     0.000022234080    14.003074004430
         C           -0.324014648452     1.139287878936    -0.000004165920    12.000000000000
         C           -0.335440348452    -1.128766121064     0.000020234080    12.000000000000
         C            0.983196651548     0.706308878936    -0.000033765920    12.000000000000
         C            0.983211651548    -0.712159121064    -0.000008765920    12.000000000000
         H           -2.132255348452    -0.002956121064     0.000059234080     1.007825032230
         H           -0.772488348452     2.111669878936    -0.000016765920     1.007825032230
         H           -0.772442348452    -2.117556121064     0.000044234080     1.007825032230
         H            1.848628651548     1.355661878936    -0.000060765920     1.007825032230
         H            1.848656651548    -1.361494121064    -0.000019765920     1.007825032230

  Basis Set: AUG-CC-PVTZ
    Blend: AUG-CC-PVTZ
  Basis Set: (AUG-CC-PVTZ AUX)
    Blend: AUG-CC-PVTZ-JKFIT
	 Reference Energy          =    -208.8848394239006154 [Eh]
	 Singles Energy            =      -0.0000000000000000 [Eh]
	 Same-Spin Energy          =      -0.2302637638565521 [Eh]
	 Opposite-Spin Energy      =      -0.7231992050741790 [Eh]
	 Correlation Energy        =      -0.9534629689307310 [Eh]
	 Total Energy              =    -209.8383023928313378 [Eh]

	 ================> DF-SCS-MP2 Energies <==================
	-----------------------------------------------------------
	 SCS Same-Spin Scale       =       0.3333333333333333 [-]
	 SCS Opposite-Spin Scale   =       1.2000000000000000 [-]
	 SCS Same-Spin Energy      =      -0.0767545879521840 [Eh]
	 SCS Opposite-Spin Energy  =      -0.8678390460890147 [Eh]
	 SCS Correlation Energy    =      -0.9445936340411988 [Eh]
	 SCS Total Energy          =    -209.8294330579418272 [Eh]
	-----------------------------------------------------------

  Dipole Moment: [D]
     X:    -1.8403      Y:     0.0032      Z:     0.0001     Total:     1.8403

*** Psi4 exiting successfully. Buy a developer a beer!
