                               Psi4 1.3.2 release

  ==> Input File <==

--------------------------------------------------------------------------
#psi4
#
memory 32 gb

molecule  {
0 1
  N       -1.1198630    -0.0000120     0.0000220
  C       -0.3338800     1.1258240    -0.0000040
  C       -0.3338570    -1.1258310     0.0000200
  C        0.9847800     0.7092440    -0.0000340
  C        1.0095507    -0.7090077    -0.0000094
  H       -2.1306720    -0.0000210     0.0000590
  H       -0.7709050     2.1146050    -0.0000170
  H       -0.7708590    -2.1146210     0.0000440
  H        1.8502120     1.3585970    -0.0000610
  H        1.8502400    -1.3585590    -0.0000200
units angstrom
no_reorient  #important for SAPT in psi4, default
symmetry c1  #important for SAPT in psi4, default
}

set PROPERTIES_ORIGIN ["COM"]
properties('MP2/aug-cc-pvtz', properties = ['dipole'])
--------------------------------------------------------------------------

    Molecular point group: c1
  Charge       = 0
  Multiplicity = 1
  Basis Set: AUG-CC-PVTZ
    Blend: AUG-CC-PVTZ
  Basis Set: (AUG-CC-PVTZ AUX)
    Blend: AUG-CC-PVTZ-JKFIT

    Orbital Energies [Eh]
    ---------------------

    Doubly Occupied:

       1A    -15.610206     2A    -11.257348     3A    -11.253684
       4A    -11.212609     5A    -11.211468     6A     -1.288811
       7A     -1.039941     8A     -0.973003     9A     -0.793868
      10A     -0.767052    11A     -0.734112    12A     -0.592659
      13A     -0.582640    14A     -0.565670    15A     -0.547426
      16A     -0.527347    17A     -0.347594    18A     -0.294067

  @DF-RHF Final Energy:  -208.88384977036455

   => Energetics <=

    Nuclear Repulsion Energy =            160.3963628428798245
    One-Electron Energy =                -599.3614146441560706
    Two-Electron Energy =                 230.0812020309116690
    Total Energy =                       -208.8838497703645487
  Basis Set: (AUG-CC-PVTZ AUX)
    Blend: AUG-CC-PVTZ-RI
    Molecular point group: c1

    Geometry (in Angstrom), charge = 0, multiplicity = 1:

       Center              X                  Y                   Z               Mass
    ------------   -----------------  -----------------  -----------------  -----------------
         N           -1.123828191560    -0.000050551404     0.000022234080    14.003074004430
         C           -0.337845191560     1.125785448596    -0.000003765920    12.000000000000
         C           -0.337822191560    -1.125869551404     0.000020234080    12.000000000000
         C            0.980814808440     0.709205448596    -0.000033765920    12.000000000000
         C            1.005585508440    -0.709046251404    -0.000009165920    12.000000000000
         H           -2.134637191560    -0.000059551404     0.000059234080     1.007825032230
         H           -0.774870191560     2.114566448596    -0.000016765920     1.007825032230
         H           -0.774824191560    -2.114659551404     0.000044234080     1.007825032230
         H            1.846246808440     1.358558448596    -0.000060765920     1.007825032230
         H            1.846274808440    -1.358597551404    -0.000019765920     1.007825032230

  Basis Set: AUG-CC-PVTZ
    Blend: AUG-CC-PVTZ
  Basis Set: (AUG-CC-PVTZ AUX)
    Blend: AUG-CC-PVTZ-JKFIT
	 Reference Energy          =    -208.8838497703645487 [Eh]
	 Singles Energy            =      -0.0000000000000000 [Eh]
	 Same-Spin Energy          =      -0.2306008282683216 [Eh]
	 Opposite-Spin Energy      =      -0.7235340246797815 [Eh]
	 Correlation Energy        =      -0.9541348529481031 [Eh]
	 Total Energy              =    -209.8379846233126500 [Eh]

	 ================> DF-SCS-MP2 Energies <==================
	-----------------------------------------------------------
	 SCS Same-Spin Scale       =       0.3333333333333333 [-]
	 SCS Opposite-Spin Scale   =       1.2000000000000000 [-]
	 SCS Same-Spin Energy      =      -0.0768669427561072 [Eh]
	 SCS Opposite-Spin Energy  =      -0.8682408296157377 [Eh]
	 SCS Correlation Energy    =      -0.9451077723718448 [Eh]
	 SCS Total Energy          =    -209.8289575427363900 [Eh]
	-----------------------------------------------------------

  Dipole Moment: [D]
     X:    -1.8848      Y:     0.0063      Z:     0.0001     Total:     1.8849

*** Psi4 exiting successfully. Buy a developer a beer!
