                               Psi4 1.4a3.dev225

  ==> Input File <==

--------------------------------------------------------------------------
#psi4
#
memory 32 gb

molecule  {
0 1
  N       -1.1198630    -0.0000120     0.0000220
  C       -0.3338800     1.1258240    -0.0000040
  C       -0.3338570    -1.1258310     0.0000200
  C        0.9847800     0.7092440    -0.0000340
  C        0.9847950    -0.7092240    -0.0000090
  H       -2.1306720    -0.0000210     0.0000590
  H       -0.7709050     2.1146050    -0.0000170
  H       -0.7708590    -2.1146210     0.0000440
  H        1.8102182     1.3285887    -0.0000598
  H        1.8502400    -1.3585590    -0.0000200
units angstrom
no_reorient  #important for SAPT in psi4, default
symmetry c1  #important for SAPT in psi4, default
}

set PROPERTIES_ORIGIN ["COM"]
properties('MP2/aug-cc-pvtz', properties = ['dipole'])
--------------------------------------------------------------------------

    Molecular point group: c1
  Charge       = 0
  Multiplicity = 1
  Basis Set: AUG-CC-PVTZ
    Blend: AUG-CC-PVTZ
  Basis Set: (AUG-CC-PVTZ AUX)
    Blend: AUG-CC-PVTZ-JKFIT

    Orbital Energies [Eh]
    ---------------------

    Doubly Occupied:

       1A    -15.607917     2A    -11.253794     3A    -11.253746
       4A    -11.210507     5A    -11.204958     6A     -1.289200
       7A     -1.041600     8A     -0.975609     9A     -0.794477
      10A     -0.769442    11A     -0.734958    12A     -0.594404
      13A     -0.582449    14A     -0.566242    15A     -0.549773
      16A     -0.529547    17A     -0.347211    18A     -0.296434

  @DF-RHF Final Energy:  -208.88458541296347

   => Energetics <=

    Nuclear Repulsion Energy =            160.9864066248699146
    One-Electron Energy =                -600.5374486248717858
    Two-Electron Energy =                 230.6664565870383967
    Total Energy =                       -208.8845854129634745
  Basis Set: (AUG-CC-PVTZ AUX)
    Blend: AUG-CC-PVTZ-RI
    Molecular point group: c1

    Geometry (in Angstrom), charge = 0, multiplicity = 1:

       Center              X                  Y                   Z               Mass
    ------------   -----------------  -----------------  -----------------  -----------------
         N           -1.118795911041     0.000439270175     0.000022144444    14.003074004430
         C           -0.332812911041     1.126275270175    -0.000003855556    12.000000000000
         C           -0.332789911041    -1.125379729825     0.000020144444    12.000000000000
         C            0.985847088959     0.709695270175    -0.000033855556    12.000000000000
         C            0.985862088959    -0.708772729825    -0.000008855556    12.000000000000
         H           -2.129604911041     0.000430270175     0.000059144444     1.007825032230
         H           -0.769837911041     2.115056270175    -0.000016855556     1.007825032230
         H           -0.769791911041    -2.114169729825     0.000044144444     1.007825032230
         H            1.811285288959     1.329039970175    -0.000059655556     1.007825032230
         H            1.851307088959    -1.358107729825    -0.000019855556     1.007825032230

  Basis Set: AUG-CC-PVTZ
    Blend: AUG-CC-PVTZ
  Basis Set: (AUG-CC-PVTZ AUX)
    Blend: AUG-CC-PVTZ-JKFIT
	 Reference Energy          =    -208.8845854129634745 [Eh]
	 Singles Energy            =      -0.0000000000000000 [Eh]
	 Same-Spin Energy          =      -0.2303049608076477 [Eh]
	 Opposite-Spin Energy      =      -0.7227755901900842 [Eh]
	 Correlation Energy        =      -0.9530805509977318 [Eh]
	 Total Energy              =    -209.8376659639612001 [Eh]

	 ================> DF-SCS-MP2 Energies <==================
	-----------------------------------------------------------
	 SCS Same-Spin Scale       =       0.3333333333333333 [-]
	 SCS Opposite-Spin Scale   =       1.2000000000000000 [-]
	 SCS Same-Spin Energy      =      -0.0767683202692159 [Eh]
	 SCS Opposite-Spin Energy  =      -0.8673307082281010 [Eh]
	 SCS Correlation Energy    =      -0.9440990284973169 [Eh]
	 SCS Total Energy          =    -209.8286844414607799 [Eh]
	-----------------------------------------------------------

  Dipole Moment: [D]
     X:    -1.8659      Y:     0.0083      Z:     0.0001     Total:     1.8659

*** Psi4 exiting successfully. Buy a developer a beer!
