                               Psi4 1.3.2 release

  ==> Input File <==

--------------------------------------------------------------------------
#psi4
#
memory 32 gb

molecule  {
0 1
  N       -1.1198630    -0.0000120     0.0000220
  C       -0.3338800     1.1258240    -0.0000040
  C       -0.3338570    -1.1258310     0.0000200
  C        1.0106270     0.8022438    -0.0000373
  C        0.9847950    -0.7092240    -0.0000090
  H       -2.1306720    -0.0000210     0.0000590
  H       -0.7709050     2.1146050    -0.0000170
  H       -0.7708590    -2.1146210     0.0000440
  H        1.8502120     1.3585970    -0.0000610
  H        1.8502400    -1.3585590    -0.0000200
units angstrom
no_reorient  #important for SAPT in psi4, default
symmetry c1  #important for SAPT in psi4, default
}

set PROPERTIES_ORIGIN ["COM"]
properties('MP2/aug-cc-pvtz', properties = ['dipole'])
--------------------------------------------------------------------------

    Molecular point group: c1
  Charge       = 0
  Multiplicity = 1
  Basis Set: AUG-CC-PVTZ
    Blend: AUG-CC-PVTZ
  Basis Set: (AUG-CC-PVTZ AUX)
    Blend: AUG-CC-PVTZ-JKFIT

    Orbital Energies [Eh]
    ---------------------

    Doubly Occupied:

       1A    -15.606546     2A    -11.259875     3A    -11.256145
       4A    -11.218299     5A    -11.213621     6A     -1.285969
       7A     -1.028454     8A     -0.978110     9A     -0.793170
      10A     -0.771730    11A     -0.732791    12A     -0.605203
      13A     -0.582008    14A     -0.564016    15A     -0.561136
      16A     -0.502309    17A     -0.337653    18A     -0.303171

  @DF-RHF Final Energy:  -208.87511217206850

   => Energetics <=

    Nuclear Repulsion Energy =            159.5045237943862162
    One-Electron Energy =                -597.5588601622858960
    Two-Electron Energy =                 229.1792241958311820
    Total Energy =                       -208.8751121720684978
  Basis Set: (AUG-CC-PVTZ AUX)
    Blend: AUG-CC-PVTZ-RI
    Molecular point group: c1

    Geometry (in Angstrom), charge = 0, multiplicity = 1:

       Center              X                  Y                   Z               Mass
    ------------   -----------------  -----------------  -----------------  -----------------
         N           -1.124023525248    -0.016658031676     0.000022753156    14.003074004430
         C           -0.338040525248     1.109177968324    -0.000003246844    12.000000000000
         C           -0.338017525248    -1.142477031676     0.000020753156    12.000000000000
         C            1.006466474752     0.785597768324    -0.000036546844    12.000000000000
         C            0.980634474752    -0.725870031676    -0.000008246844    12.000000000000
         H           -2.134832525248    -0.016667031676     0.000059753156     1.007825032230
         H           -0.775065525248     2.097958968324    -0.000016246844     1.007825032230
         H           -0.775019525248    -2.131267031676     0.000044753156     1.007825032230
         H            1.846051474752     1.341950968324    -0.000060246844     1.007825032230
         H            1.846079474752    -1.375205031676    -0.000019246844     1.007825032230

  Basis Set: AUG-CC-PVTZ
    Blend: AUG-CC-PVTZ
  Basis Set: (AUG-CC-PVTZ AUX)
    Blend: AUG-CC-PVTZ-JKFIT
	 Reference Energy          =    -208.8751121720684978 [Eh]
	 Singles Energy            =      -0.0000000000000000 [Eh]
	 Same-Spin Energy          =      -0.2293449514955199 [Eh]
	 Opposite-Spin Energy      =      -0.7229345587606940 [Eh]
	 Correlation Energy        =      -0.9522795102562139 [Eh]
	 Total Energy              =    -209.8273916823247021 [Eh]

	 ================> DF-SCS-MP2 Energies <==================
	-----------------------------------------------------------
	 SCS Same-Spin Scale       =       0.3333333333333333 [-]
	 SCS Opposite-Spin Scale   =       1.2000000000000000 [-]
	 SCS Same-Spin Energy      =      -0.0764483171651733 [Eh]
	 SCS Opposite-Spin Energy  =      -0.8675214705128328 [Eh]
	 SCS Correlation Energy    =      -0.9439697876780061 [Eh]
	 SCS Total Energy          =    -209.8190819597465122 [Eh]
	-----------------------------------------------------------

  Dipole Moment: [D]
     X:    -1.8899      Y:    -0.0122      Z:     0.0001     Total:     1.8900

*** Psi4 exiting successfully. Buy a developer a beer!
