                               Psi4 1.3.2 release

  ==> Input File <==

--------------------------------------------------------------------------
#psi4
#
memory 32 gb

molecule  {
0 1
  N       -1.1198630    -0.0000120     0.0000220
  C       -0.3338800     1.1258240    -0.0000040
  C       -0.3338570    -1.1258310     0.0000200
  C        0.9847800     0.7092440    -0.0000340
  C        0.8858476    -0.7057697    -0.0000073
  H       -2.1306720    -0.0000210     0.0000590
  H       -0.7709050     2.1146050    -0.0000170
  H       -0.7708590    -2.1146210     0.0000440
  H        1.8502120     1.3585970    -0.0000610
  H        1.8502400    -1.3585590    -0.0000200
units angstrom
no_reorient  #important for SAPT in psi4, default
symmetry c1  #important for SAPT in psi4, default
}

set PROPERTIES_ORIGIN ["COM"]
properties('MP2/aug-cc-pvtz', properties = ['dipole'])
--------------------------------------------------------------------------

    Molecular point group: c1
  Charge       = 0
  Multiplicity = 1
  Basis Set: AUG-CC-PVTZ
    Blend: AUG-CC-PVTZ
  Basis Set: (AUG-CC-PVTZ AUX)
    Blend: AUG-CC-PVTZ-JKFIT

    Orbital Energies [Eh]
    ---------------------

    Doubly Occupied:

       1A    -15.600569     2A    -11.256095     3A    -11.240567
       4A    -11.208379     5A    -11.205831     6A     -1.294413
       7A     -1.045009     8A     -0.985793     9A     -0.788197
      10A     -0.757425    11A     -0.737728    12A     -0.589576
      13A     -0.578592    14A     -0.571775    15A     -0.559866
      16A     -0.505330    17A     -0.349145    18A     -0.307019

  @DF-RHF Final Energy:  -208.87317097367961

   => Energetics <=

    Nuclear Repulsion Energy =            162.2772556714195957
    One-Electron Energy =                -603.1382354373688486
    Two-Electron Energy =                 231.9878087922696466
    Total Energy =                       -208.8731709736796063
  Basis Set: (AUG-CC-PVTZ AUX)
    Blend: AUG-CC-PVTZ-RI
    Molecular point group: c1

    Geometry (in Angstrom), charge = 0, multiplicity = 1:

       Center              X                  Y                   Z               Mass
    ------------   -----------------  -----------------  -----------------  -----------------
         N           -1.101686358230    -0.000630126664     0.000021858197    14.003074004430
         C           -0.315703358230     1.125205873336    -0.000004141803    12.000000000000
         C           -0.315680358230    -1.126449126664     0.000019858197    12.000000000000
         C            1.002956641770     0.708625873336    -0.000034141803    12.000000000000
         C            0.904024241770    -0.706387826664    -0.000007441803    12.000000000000
         H           -2.112495358230    -0.000639126664     0.000058858197     1.007825032230
         H           -0.752728358230     2.113986873336    -0.000017141803     1.007825032230
         H           -0.752682358230    -2.115239126664     0.000043858197     1.007825032230
         H            1.868388641770     1.357978873336    -0.000061141803     1.007825032230
         H            1.868416641770    -1.359177126664    -0.000020141803     1.007825032230

  Basis Set: AUG-CC-PVTZ
    Blend: AUG-CC-PVTZ
  Basis Set: (AUG-CC-PVTZ AUX)
    Blend: AUG-CC-PVTZ-JKFIT
	 Reference Energy          =    -208.8731709736796063 [Eh]
	 Singles Energy            =      -0.0000000000000000 [Eh]
	 Same-Spin Energy          =      -0.2296816523378047 [Eh]
	 Opposite-Spin Energy      =      -0.7217349692847765 [Eh]
	 Correlation Energy        =      -0.9514166216225812 [Eh]
	 Total Energy              =    -209.8245875953021766 [Eh]

	 ================> DF-SCS-MP2 Energies <==================
	-----------------------------------------------------------
	 SCS Same-Spin Scale       =       0.3333333333333333 [-]
	 SCS Opposite-Spin Scale   =       1.2000000000000000 [-]
	 SCS Same-Spin Energy      =      -0.0765605507792682 [Eh]
	 SCS Opposite-Spin Energy  =      -0.8660819631417318 [Eh]
	 SCS Correlation Energy    =      -0.9426425139210001 [Eh]
	 SCS Total Energy          =    -209.8158134876005931 [Eh]
	-----------------------------------------------------------

  Dipole Moment: [D]
     X:    -1.8320      Y:    -0.0091      Z:     0.0001     Total:     1.8321

*** Psi4 exiting successfully. Buy a developer a beer!
