                               Psi4 1.3.2 release

  ==> Input File <==

--------------------------------------------------------------------------
#psi4
#
memory 32 gb

molecule  {
0 1
  N       -1.2332392     0.0883130     0.0000243
  C       -0.3338800     1.1258240    -0.0000040
  C       -0.3338570    -1.1258310     0.0000200
  C        0.9847800     0.7092440    -0.0000340
  C        0.9847950    -0.7092240    -0.0000090
  H       -2.1306720    -0.0000210     0.0000590
  H       -0.7709050     2.1146050    -0.0000170
  H       -0.7708590    -2.1146210     0.0000440
  H        1.8502120     1.3585970    -0.0000610
  H        1.8502400    -1.3585590    -0.0000200
units angstrom
no_reorient  #important for SAPT in psi4, default
symmetry c1  #important for SAPT in psi4, default
}

set PROPERTIES_ORIGIN ["COM"]
properties('MP2/aug-cc-pvtz', properties = ['dipole'])
--------------------------------------------------------------------------

    Molecular point group: c1
  Charge       = 0
  Multiplicity = 1
  Basis Set: AUG-CC-PVTZ
    Blend: AUG-CC-PVTZ
  Basis Set: (AUG-CC-PVTZ AUX)
    Blend: AUG-CC-PVTZ-JKFIT

    Orbital Energies [Eh]
    ---------------------

    Doubly Occupied:

       1A    -15.596936     2A    -11.266354     3A    -11.263125
       4A    -11.224493     5A    -11.213346     6A     -1.266435
       7A     -1.059879     8A     -0.963134     9A     -0.822517
      10A     -0.757664    11A     -0.727072    12A     -0.619763
      13A     -0.552898    14A     -0.549223    15A     -0.544932
      16A     -0.531668    17A     -0.358807    18A     -0.294794

  @DF-RHF Final Energy:  -208.85588005484982

   => Energetics <=

    Nuclear Repulsion Energy =            158.6801556457054971
    One-Electron Energy =                -595.8459942291265179
    Two-Electron Energy =                 228.3099585285712010
    Total Energy =                       -208.8558800548498198
  Basis Set: (AUG-CC-PVTZ AUX)
    Blend: AUG-CC-PVTZ-RI
    Molecular point group: c1

    Geometry (in Angstrom), charge = 0, multiplicity = 1:

       Center              X                  Y                   Z               Mass
    ------------   -----------------  -----------------  -----------------  -----------------
         N           -1.209092489767     0.069864761461     0.000023982083    14.003074004430
         C           -0.309733289767     1.107375761461    -0.000004317917    12.000000000000
         C           -0.309710289767    -1.144279238539     0.000019682083    12.000000000000
         C            1.008926710233     0.690795761461    -0.000034317917    12.000000000000
         C            1.008941710233    -0.727672238539    -0.000009317917    12.000000000000
         H           -2.106525289767    -0.018469238539     0.000058682083     1.007825032230
         H           -0.746758289767     2.096156761461    -0.000017317917     1.007825032230
         H           -0.746712289767    -2.133069238539     0.000043682083     1.007825032230
         H            1.874358710233     1.340148761461    -0.000061317917     1.007825032230
         H            1.874386710233    -1.377007238539    -0.000020317917     1.007825032230

  Basis Set: AUG-CC-PVTZ
    Blend: AUG-CC-PVTZ
  Basis Set: (AUG-CC-PVTZ AUX)
    Blend: AUG-CC-PVTZ-JKFIT
	 Reference Energy          =    -208.8558800548498198 [Eh]
	 Singles Energy            =      -0.0000000000000000 [Eh]
	 Same-Spin Energy          =      -0.2292411009724947 [Eh]
	 Opposite-Spin Energy      =      -0.7242776864427654 [Eh]
	 Correlation Energy        =      -0.9535187874152601 [Eh]
	 Total Energy              =    -209.8093988422650682 [Eh]

	 ================> DF-SCS-MP2 Energies <==================
	-----------------------------------------------------------
	 SCS Same-Spin Scale       =       0.3333333333333333 [-]
	 SCS Opposite-Spin Scale   =       1.2000000000000000 [-]
	 SCS Same-Spin Energy      =      -0.0764137003241649 [Eh]
	 SCS Opposite-Spin Energy  =      -0.8691332237313184 [Eh]
	 SCS Correlation Energy    =      -0.9455469240554832 [Eh]
	 SCS Total Energy          =    -209.8014269789053117 [Eh]
	-----------------------------------------------------------

  Dipole Moment: [D]
     X:    -1.4495      Y:    -0.0717      Z:     0.0000     Total:     1.4512

*** Psi4 exiting successfully. Buy a developer a beer!
