                               Psi4 1.3.2 release

  ==> Input File <==

--------------------------------------------------------------------------
#psi4
#
memory 32 gb

molecule  {
0 1
  N       -1.1000947    -0.0135578     0.0000221
  C       -0.3338800     1.1258240    -0.0000040
  C       -0.3338570    -1.1258310     0.0000200
  C        0.9847800     0.7092440    -0.0000340
  C        0.9847950    -0.7092240    -0.0000090
  H       -2.1306720    -0.0000210     0.0000590
  H       -0.7709050     2.1146050    -0.0000170
  H       -0.7708590    -2.1146210     0.0000440
  H        1.8502120     1.3585970    -0.0000610
  H        1.8502400    -1.3585590    -0.0000200
units angstrom
no_reorient  #important for SAPT in psi4, default
symmetry c1  #important for SAPT in psi4, default
}

set PROPERTIES_ORIGIN ["COM"]
properties('MP2/aug-cc-pvtz', properties = ['dipole'])
--------------------------------------------------------------------------

    Molecular point group: c1
  Charge       = 0
  Multiplicity = 1
  Basis Set: AUG-CC-PVTZ
    Blend: AUG-CC-PVTZ
  Basis Set: (AUG-CC-PVTZ AUX)
    Blend: AUG-CC-PVTZ-JKFIT

    Orbital Energies [Eh]
    ---------------------

    Doubly Occupied:

       1A    -15.610106     2A    -11.252564     3A    -11.252256
       4A    -11.210737     5A    -11.208484     6A     -1.294893
       7A     -1.037826     8A     -0.978209     9A     -0.786687
      10A     -0.767241    11A     -0.736065    12A     -0.589813
      13A     -0.583261    14A     -0.570275    15A     -0.544328
      16A     -0.528041    17A     -0.346094    18A     -0.296735

  @DF-RHF Final Energy:  -208.88435178373550

   => Energetics <=

    Nuclear Repulsion Energy =            161.1345371909015682
    One-Electron Energy =                -600.8505459821520844
    Two-Electron Energy =                 230.8316570075149912
    Total Energy =                       -208.8843517837354966
  Basis Set: (AUG-CC-PVTZ AUX)
    Blend: AUG-CC-PVTZ-RI
    Molecular point group: c1

    Geometry (in Angstrom), charge = 0, multiplicity = 1:

       Center              X                  Y                   Z               Mass
    ------------   -----------------  -----------------  -----------------  -----------------
         N           -1.103757821634    -0.010728330334     0.000022241596    14.003074004430
         C           -0.337543121634     1.128653469666    -0.000003858404    12.000000000000
         C           -0.337520121634    -1.123001530334     0.000020141596    12.000000000000
         C            0.981116878366     0.712073469666    -0.000033858404    12.000000000000
         C            0.981131878366    -0.706394530334    -0.000008858404    12.000000000000
         H           -2.134335121634     0.002808469666     0.000059141596     1.007825032230
         H           -0.774568121634     2.117434469666    -0.000016858404     1.007825032230
         H           -0.774522121634    -2.111791530334     0.000044141596     1.007825032230
         H            1.846548878366     1.361426469666    -0.000060858404     1.007825032230
         H            1.846576878366    -1.355729530334    -0.000019858404     1.007825032230

  Basis Set: AUG-CC-PVTZ
    Blend: AUG-CC-PVTZ
  Basis Set: (AUG-CC-PVTZ AUX)
    Blend: AUG-CC-PVTZ-JKFIT
	 Reference Energy          =    -208.8843517837354966 [Eh]
	 Singles Energy            =      -0.0000000000000000 [Eh]
	 Same-Spin Energy          =      -0.2306473485877964 [Eh]
	 Opposite-Spin Energy      =      -0.7231005910439735 [Eh]
	 Correlation Energy        =      -0.9537479396317700 [Eh]
	 Total Energy              =    -209.8380997233672645 [Eh]

	 ================> DF-SCS-MP2 Energies <==================
	-----------------------------------------------------------
	 SCS Same-Spin Scale       =       0.3333333333333333 [-]
	 SCS Opposite-Spin Scale   =       1.2000000000000000 [-]
	 SCS Same-Spin Energy      =      -0.0768824495292655 [Eh]
	 SCS Opposite-Spin Energy  =      -0.8677207092527682 [Eh]
	 SCS Correlation Energy    =      -0.9446031587820337 [Eh]
	 SCS Total Energy          =    -209.8289549425175267 [Eh]
	-----------------------------------------------------------

  Dipole Moment: [D]
     X:    -1.9389      Y:     0.0050      Z:     0.0001     Total:     1.9389

*** Psi4 exiting successfully. Buy a developer a beer!
