                               Psi4 1.3.2 release

  ==> Input File <==

--------------------------------------------------------------------------
#psi4
#
memory 32 gb

molecule  {
0 1
  N       -1.1198630    -0.0000120     0.0000220
  C       -0.2205038     1.0374990    -0.0000051
  C       -0.3338570    -1.1258310     0.0000200
  C        0.9847800     0.7092440    -0.0000340
  C        0.9847950    -0.7092240    -0.0000090
  H       -2.1306720    -0.0000210     0.0000590
  H       -0.7709050     2.1146050    -0.0000170
  H       -0.7708590    -2.1146210     0.0000440
  H        1.8502120     1.3585970    -0.0000610
  H        1.8502400    -1.3585590    -0.0000200
units angstrom
no_reorient  #important for SAPT in psi4, default
symmetry c1  #important for SAPT in psi4, default
}

set PROPERTIES_ORIGIN ["COM"]
properties('MP2/aug-cc-pvtz', properties = ['dipole'])
--------------------------------------------------------------------------

    Molecular point group: c1
  Charge       = 0
  Multiplicity = 1
  Basis Set: AUG-CC-PVTZ
    Blend: AUG-CC-PVTZ
  Basis Set: (AUG-CC-PVTZ AUX)
    Blend: AUG-CC-PVTZ-JKFIT

    Orbital Energies [Eh]
    ---------------------

    Doubly Occupied:

       1A    -15.599126     2A    -11.253179     3A    -11.249418
       4A    -11.208448     5A    -11.194749     6A     -1.296470
       7A     -1.064182     8A     -0.974080     9A     -0.792179
      10A     -0.772965    11A     -0.715668    12A     -0.614864
      13A     -0.574937    14A     -0.557471    15A     -0.551432
      16A     -0.505224    17A     -0.360233    18A     -0.305126

  @DF-RHF Final Energy:  -208.85601751210697

   => Energetics <=

    Nuclear Repulsion Energy =            162.8880421161697143
    One-Electron Energy =                -604.3086139464951430
    Two-Electron Energy =                 232.5645543182184838
    Total Energy =                       -208.8560175121069733
  Basis Set: (AUG-CC-PVTZ AUX)
    Blend: AUG-CC-PVTZ-RI
    Molecular point group: c1

    Geometry (in Angstrom), charge = 0, multiplicity = 1:

       Center              X                  Y                   Z               Mass
    ------------   -----------------  -----------------  -----------------  -----------------
         N           -1.139690529210     0.015797610100     0.000022359374    14.003074004430
         C           -0.240331329210     1.053308610100    -0.000004740626    12.000000000000
         C           -0.353684529210    -1.110021389900     0.000020359374    12.000000000000
         C            0.964952470790     0.725053610100    -0.000033640626    12.000000000000
         C            0.964967470790    -0.693414389900    -0.000008640626    12.000000000000
         H           -2.150499529210     0.015788610100     0.000059359374     1.007825032230
         H           -0.790732529210     2.130414610100    -0.000016640626     1.007825032230
         H           -0.790686529210    -2.098811389900     0.000044359374     1.007825032230
         H            1.830384470790     1.374406610100    -0.000060640626     1.007825032230
         H            1.830412470790    -1.342749389900    -0.000019640626     1.007825032230

  Basis Set: AUG-CC-PVTZ
    Blend: AUG-CC-PVTZ
  Basis Set: (AUG-CC-PVTZ AUX)
    Blend: AUG-CC-PVTZ-JKFIT
	 Reference Energy          =    -208.8560175121069733 [Eh]
	 Singles Energy            =      -0.0000000000000000 [Eh]
	 Same-Spin Energy          =      -0.2293187085553916 [Eh]
	 Opposite-Spin Energy      =      -0.7216049717073632 [Eh]
	 Correlation Energy        =      -0.9509236802627548 [Eh]
	 Total Energy              =    -209.8069411923697203 [Eh]

	 ================> DF-SCS-MP2 Energies <==================
	-----------------------------------------------------------
	 SCS Same-Spin Scale       =       0.3333333333333333 [-]
	 SCS Opposite-Spin Scale   =       1.2000000000000000 [-]
	 SCS Same-Spin Energy      =      -0.0764395695184639 [Eh]
	 SCS Opposite-Spin Energy  =      -0.8659259660488358 [Eh]
	 SCS Correlation Energy    =      -0.9423655355672996 [Eh]
	 SCS Total Energy          =    -209.7983830476742639 [Eh]
	-----------------------------------------------------------

  Dipole Moment: [D]
     X:    -1.7272      Y:     0.0466      Z:     0.0001     Total:     1.7278

*** Psi4 exiting successfully. Buy a developer a beer!
