                               Psi4 1.3.2 release

  ==> Input File <==

--------------------------------------------------------------------------
#psi4
#
memory 32 gb

molecule  {
0 1
  N       -1.1198630    -0.0000120     0.0000220
  C       -0.3143512     1.1119352    -0.0000047
  C       -0.3338570    -1.1258310     0.0000200
  C        0.9847800     0.7092440    -0.0000340
  C        0.9847950    -0.7092240    -0.0000090
  H       -2.1306720    -0.0000210     0.0000590
  H       -0.7709050     2.1146050    -0.0000170
  H       -0.7708590    -2.1146210     0.0000440
  H        1.8502120     1.3585970    -0.0000610
  H        1.8502400    -1.3585590    -0.0000200
units angstrom
no_reorient  #important for SAPT in psi4, default
symmetry c1  #important for SAPT in psi4, default
}

set PROPERTIES_ORIGIN ["COM"]
properties('MP2/aug-cc-pvtz', properties = ['dipole'])
--------------------------------------------------------------------------

    Molecular point group: c1
  Charge       = 0
  Multiplicity = 1
  Basis Set: AUG-CC-PVTZ
    Blend: AUG-CC-PVTZ
  Basis Set: (AUG-CC-PVTZ AUX)
    Blend: AUG-CC-PVTZ-JKFIT

    Orbital Energies [Eh]
    ---------------------

    Doubly Occupied:

       1A    -15.606439     2A    -11.253813     3A    -11.253239
       4A    -11.210418     5A    -11.208144     6A     -1.290333
       7A     -1.043448     8A     -0.975317     9A     -0.791553
      10A     -0.766380    11A     -0.731495    12A     -0.593933
      13A     -0.576311    14A     -0.567553    15A     -0.547464
      16A     -0.527709    17A     -0.348630    18A     -0.298531

  @DF-RHF Final Energy:  -208.88539644065318

   => Energetics <=

    Nuclear Repulsion Energy =            161.0778286225791192
    One-Electron Energy =                -600.7450293010705309
    Two-Electron Energy =                 230.7818042378382586
    Total Energy =                       -208.8853964406531816
  Basis Set: (AUG-CC-PVTZ AUX)
    Blend: AUG-CC-PVTZ-RI
    Molecular point group: c1

    Geometry (in Angstrom), charge = 0, multiplicity = 1:

       Center              X                  Y                   Z               Mass
    ------------   -----------------  -----------------  -----------------  -----------------
         N           -1.122892619625     0.002474145012     0.000022287778    14.003074004430
         C           -0.317380819625     1.114421345012    -0.000004412222    12.000000000000
         C           -0.336886619625    -1.123344854988     0.000020287778    12.000000000000
         C            0.981750380375     0.711730145012    -0.000033712222    12.000000000000
         C            0.981765380375    -0.706737854988    -0.000008712222    12.000000000000
         H           -2.133701619625     0.002465145012     0.000059287778     1.007825032230
         H           -0.773934619625     2.117091145012    -0.000016712222     1.007825032230
         H           -0.773888619625    -2.112134854988     0.000044287778     1.007825032230
         H            1.847182380375     1.361083145012    -0.000060712222     1.007825032230
         H            1.847210380375    -1.356072854988    -0.000019712222     1.007825032230

  Basis Set: AUG-CC-PVTZ
    Blend: AUG-CC-PVTZ
  Basis Set: (AUG-CC-PVTZ AUX)
    Blend: AUG-CC-PVTZ-JKFIT
	 Reference Energy          =    -208.8853964406531816 [Eh]
	 Singles Energy            =      -0.0000000000000000 [Eh]
	 Same-Spin Energy          =      -0.2301040639735641 [Eh]
	 Opposite-Spin Energy      =      -0.7225743721825966 [Eh]
	 Correlation Energy        =      -0.9526784361561607 [Eh]
	 Total Energy              =    -209.8380748768093440 [Eh]

	 ================> DF-SCS-MP2 Energies <==================
	-----------------------------------------------------------
	 SCS Same-Spin Scale       =       0.3333333333333333 [-]
	 SCS Opposite-Spin Scale   =       1.2000000000000000 [-]
	 SCS Same-Spin Energy      =      -0.0767013546578547 [Eh]
	 SCS Opposite-Spin Energy  =      -0.8670892466191159 [Eh]
	 SCS Correlation Energy    =      -0.9437906012769706 [Eh]
	 SCS Total Energy          =    -209.8291870419301404 [Eh]
	-----------------------------------------------------------

  Dipole Moment: [D]
     X:    -1.8550      Y:     0.0184      Z:     0.0001     Total:     1.8551

*** Psi4 exiting successfully. Buy a developer a beer!
