                               Psi4 1.3.2 release

  ==> Input File <==

--------------------------------------------------------------------------
#psi4
#
memory 32 gb

molecule  {
0 1
  N       -1.1198630    -0.0000120     0.0000220
  C       -0.3338800     1.1258240    -0.0000040
  C       -0.3338570    -1.1258310     0.0000200
  C        0.9847800     0.7092440    -0.0000340
  C        0.9600393    -0.7090082    -0.0000086
  H       -2.1306720    -0.0000210     0.0000590
  H       -0.7709050     2.1146050    -0.0000170
  H       -0.7708590    -2.1146210     0.0000440
  H        1.8502120     1.3585970    -0.0000610
  H        1.8502400    -1.3585590    -0.0000200
units angstrom
no_reorient  #important for SAPT in psi4, default
symmetry c1  #important for SAPT in psi4, default
}

set PROPERTIES_ORIGIN ["COM"]
properties('MP2/aug-cc-pvtz', properties = ['dipole'])
--------------------------------------------------------------------------

    Molecular point group: c1
  Charge       = 0
  Multiplicity = 1
  Basis Set: AUG-CC-PVTZ
    Blend: AUG-CC-PVTZ
  Basis Set: (AUG-CC-PVTZ AUX)
    Blend: AUG-CC-PVTZ-JKFIT

    Orbital Energies [Eh]
    ---------------------

    Doubly Occupied:

       1A    -15.606205     2A    -11.254559     3A    -11.250794
       4A    -11.210451     5A    -11.209284     6A     -1.290422
       7A     -1.041594     8A     -0.977700     9A     -0.790156
      10A     -0.764047    11A     -0.735291    12A     -0.589432
      13A     -0.582027    14A     -0.567615    15A     -0.547182
      16A     -0.526012    17A     -0.347551    18A     -0.299334

  @DF-RHF Final Energy:  -208.88532929349088

   => Energetics <=

    Nuclear Repulsion Energy =            161.1132891814735046
    One-Electron Energy =                -600.8179212386270365
    Two-Electron Energy =                 230.8193027636626198
    Total Energy =                       -208.8853292934908836
  Basis Set: (AUG-CC-PVTZ AUX)
    Blend: AUG-CC-PVTZ-RI
    Molecular point group: c1

    Geometry (in Angstrom), charge = 0, multiplicity = 1:

       Center              X                  Y                   Z               Mass
    ------------   -----------------  -----------------  -----------------  -----------------
         N           -1.114966059837    -0.000050461909     0.000022090887    14.003074004430
         C           -0.328983059837     1.125785538091    -0.000003909113    12.000000000000
         C           -0.328960059837    -1.125869461909     0.000020090887    12.000000000000
         C            0.989676940163     0.709205538091    -0.000033909113    12.000000000000
         C            0.964936240163    -0.709046661909    -0.000008509113    12.000000000000
         H           -2.125775059837    -0.000059461909     0.000059090887     1.007825032230
         H           -0.766008059837     2.114566538091    -0.000016909113     1.007825032230
         H           -0.765962059837    -2.114659461909     0.000044090887     1.007825032230
         H            1.855108940163     1.358558538091    -0.000060909113     1.007825032230
         H            1.855136940163    -1.358597461909    -0.000019909113     1.007825032230

  Basis Set: AUG-CC-PVTZ
    Blend: AUG-CC-PVTZ
  Basis Set: (AUG-CC-PVTZ AUX)
    Blend: AUG-CC-PVTZ-JKFIT
	 Reference Energy          =    -208.8853292934908836 [Eh]
	 Singles Energy            =      -0.0000000000000000 [Eh]
	 Same-Spin Energy          =      -0.2301448628683845 [Eh]
	 Opposite-Spin Energy      =      -0.7225888507292950 [Eh]
	 Correlation Energy        =      -0.9527337135976796 [Eh]
	 Total Energy              =    -209.8380630070885502 [Eh]

	 ================> DF-SCS-MP2 Energies <==================
	-----------------------------------------------------------
	 SCS Same-Spin Scale       =       0.3333333333333333 [-]
	 SCS Opposite-Spin Scale   =       1.2000000000000000 [-]
	 SCS Same-Spin Energy      =      -0.0767149542894615 [Eh]
	 SCS Opposite-Spin Energy  =      -0.8671066208751540 [Eh]
	 SCS Correlation Energy    =      -0.9438215751646155 [Eh]
	 SCS Total Energy          =    -209.8291508686554891 [Eh]
	-----------------------------------------------------------

  Dipole Moment: [D]
     X:    -1.8590      Y:    -0.0048      Z:     0.0001     Total:     1.8590

*** Psi4 exiting successfully. Buy a developer a beer!
