                               Psi4 1.4a3.dev225

  ==> Input File <==

--------------------------------------------------------------------------
#psi4
#
memory 32 gb

molecule  {
0 1
  N       -1.1198630    -0.0000120     0.0000220
  C       -0.3338800     1.1258240    -0.0000040
  C       -0.3338570    -1.1258310     0.0000200
  C        0.9847800     0.7092440    -0.0000340
  C        0.9847950    -0.7092240    -0.0000090
  H       -2.1306720    -0.0000210     0.0000590
  H       -0.7709050     2.1146050    -0.0000170
  H       -0.7708590    -2.1146210     0.0000440
  H        1.8902058     1.3886053    -0.0000622
  H        1.8502400    -1.3585590    -0.0000200
units angstrom
no_reorient  #important for SAPT in psi4, default
symmetry c1  #important for SAPT in psi4, default
}

set PROPERTIES_ORIGIN ["COM"]
properties('MP2/aug-cc-pvtz', properties = ['dipole'])
--------------------------------------------------------------------------

    Molecular point group: c1
  Charge       = 0
  Multiplicity = 1
  Basis Set: AUG-CC-PVTZ
    Blend: AUG-CC-PVTZ
  Basis Set: (AUG-CC-PVTZ AUX)
    Blend: AUG-CC-PVTZ-JKFIT

    Orbital Energies [Eh]
    ---------------------

    Doubly Occupied:

       1A    -15.608510     2A    -11.254546     3A    -11.254473
       4A    -11.216718     5A    -11.211404     6A     -1.289900
       7A     -1.040104     8A     -0.975082     9A     -0.790228
      10A     -0.761971    11A     -0.734278    12A     -0.588006
      13A     -0.582469    14A     -0.566951    15A     -0.541079
      16A     -0.527226    17A     -0.347821    18A     -0.297012

  @DF-RHF Final Energy:  -208.88302342721695

   => Energetics <=

    Nuclear Repulsion Energy =            160.5270969982603617
    One-Electron Energy =                -599.6446838324502551
    Two-Electron Energy =                 230.2345634069729101
    Total Energy =                       -208.8830234272169548
  Basis Set: (AUG-CC-PVTZ AUX)
    Blend: AUG-CC-PVTZ-RI
    Molecular point group: c1

    Geometry (in Angstrom), charge = 0, multiplicity = 1:

       Center              X                  Y                   Z               Mass
    ------------   -----------------  -----------------  -----------------  -----------------
         N           -1.119998340355    -0.000462941157     0.000022180523    14.003074004430
         C           -0.334015340355     1.125373058843    -0.000003819477    12.000000000000
         C           -0.333992340355    -1.126281941157     0.000020180523    12.000000000000
         C            0.984644659645     0.708793058843    -0.000033819477    12.000000000000
         C            0.984659659645    -0.709674941157    -0.000008819477    12.000000000000
         H           -2.130807340355    -0.000471941157     0.000059180523     1.007825032230
         H           -0.771040340355     2.114154058843    -0.000016819477     1.007825032230
         H           -0.770994340355    -2.115071941157     0.000044180523     1.007825032230
         H            1.890070459645     1.388154358843    -0.000062019477     1.007825032230
         H            1.850104659645    -1.359009941157    -0.000019819477     1.007825032230

  Basis Set: AUG-CC-PVTZ
    Blend: AUG-CC-PVTZ
  Basis Set: (AUG-CC-PVTZ AUX)
    Blend: AUG-CC-PVTZ-JKFIT
	 Reference Energy          =    -208.8830234272169548 [Eh]
	 Singles Energy            =      -0.0000000000000000 [Eh]
	 Same-Spin Energy          =      -0.2304283320763548 [Eh]
	 Opposite-Spin Energy      =      -0.7233775017828203 [Eh]
	 Correlation Energy        =      -0.9538058338591752 [Eh]
	 Total Energy              =    -209.8368292610761330 [Eh]

	 ================> DF-SCS-MP2 Energies <==================
	-----------------------------------------------------------
	 SCS Same-Spin Scale       =       0.3333333333333333 [-]
	 SCS Opposite-Spin Scale   =       1.2000000000000000 [-]
	 SCS Same-Spin Energy      =      -0.0768094440254516 [Eh]
	 SCS Opposite-Spin Energy  =      -0.8680530021393844 [Eh]
	 SCS Correlation Energy    =      -0.9448624461648361 [Eh]
	 SCS Total Energy          =    -209.8278858733818026 [Eh]
	-----------------------------------------------------------

  Dipole Moment: [D]
     X:    -1.8793      Y:    -0.0103      Z:     0.0001     Total:     1.8793

*** Psi4 exiting successfully. Buy a developer a beer!
