                               Psi4 1.4a3.dev225

  ==> Input File <==

--------------------------------------------------------------------------
#psi4
#
memory 32 gb

molecule  {
0 1
  N       -1.1198630    -0.0000120     0.0000220
  C       -0.3338800     1.1258240    -0.0000040
  C       -0.3338570    -1.1258310     0.0000200
  C        0.9847800     0.7092440    -0.0000340
  C        0.9847950    -0.7092240    -0.0000090
  H       -2.1306720    -0.0000210     0.0000590
  H       -0.7709050     2.1146050    -0.0000170
  H       -0.7708590    -2.1146210     0.0000440
  H        1.8342145     1.3465937    -0.0000605
  H        1.8502400    -1.3585590    -0.0000200
units angstrom
no_reorient  #important for SAPT in psi4, default
symmetry c1  #important for SAPT in psi4, default
}

set PROPERTIES_ORIGIN ["COM"]
properties('MP2/aug-cc-pvtz', properties = ['dipole'])
--------------------------------------------------------------------------

    Molecular point group: c1
  Charge       = 0
  Multiplicity = 1
  Basis Set: AUG-CC-PVTZ
    Blend: AUG-CC-PVTZ
  Basis Set: (AUG-CC-PVTZ AUX)
    Blend: AUG-CC-PVTZ-JKFIT

    Orbital Energies [Eh]
    ---------------------

    Doubly Occupied:

       1A    -15.608074     2A    -11.253989     3A    -11.253944
       4A    -11.210852     5A    -11.208451     6A     -1.289388
       7A     -1.041029     8A     -0.975388     9A     -0.792686
      10A     -0.767210    11A     -0.734788    12A     -0.592091
      13A     -0.582491    14A     -0.566433    15A     -0.547197
      16A     -0.529282    17A     -0.347365    18A     -0.296585

  @DF-RHF Final Energy:  -208.88558296696249

   => Energetics <=

    Nuclear Repulsion Energy =            160.8420769577046201
    One-Electron Energy =                -600.2608351231716597
    Two-Electron Energy =                 230.5331751985045230
    Total Energy =                       -208.8855829669624882
  Basis Set: (AUG-CC-PVTZ AUX)
    Blend: AUG-CC-PVTZ-RI
    Molecular point group: c1

    Geometry (in Angstrom), charge = 0, multiplicity = 1:

       Center              X                  Y                   Z               Mass
    ------------   -----------------  -----------------  -----------------  -----------------
         N           -1.119156640136     0.000168606475     0.000022154967    14.003074004430
         C           -0.333173640136     1.126004606475    -0.000003845033    12.000000000000
         C           -0.333150640136    -1.125650393525     0.000020154967    12.000000000000
         C            0.985486359864     0.709424606475    -0.000033845033    12.000000000000
         C            0.985501359864    -0.709043393525    -0.000008845033    12.000000000000
         H           -2.129965640136     0.000159606475     0.000059154967     1.007825032230
         H           -0.770198640136     2.114785606475    -0.000016845033     1.007825032230
         H           -0.770152640136    -2.114440393525     0.000044154967     1.007825032230
         H            1.834920859864     1.346774306475    -0.000060345033     1.007825032230
         H            1.850946359864    -1.358378393525    -0.000019845033     1.007825032230

  Basis Set: AUG-CC-PVTZ
    Blend: AUG-CC-PVTZ
  Basis Set: (AUG-CC-PVTZ AUX)
    Blend: AUG-CC-PVTZ-JKFIT
	 Reference Energy          =    -208.8855829669624882 [Eh]
	 Singles Energy            =      -0.0000000000000000 [Eh]
	 Same-Spin Energy          =      -0.2303353729668915 [Eh]
	 Opposite-Spin Energy      =      -0.7229110111060132 [Eh]
	 Correlation Energy        =      -0.9532463840729046 [Eh]
	 Total Energy              =    -209.8388293510354004 [Eh]

	 ================> DF-SCS-MP2 Energies <==================
	-----------------------------------------------------------
	 SCS Same-Spin Scale       =       0.3333333333333333 [-]
	 SCS Opposite-Spin Scale   =       1.2000000000000000 [-]
	 SCS Same-Spin Energy      =      -0.0767784576556305 [Eh]
	 SCS Opposite-Spin Energy  =      -0.8674932133272159 [Eh]
	 SCS Correlation Energy    =      -0.9442716709828464 [Eh]
	 SCS Total Energy          =    -209.8298546379453455 [Eh]
	-----------------------------------------------------------

  Dipole Moment: [D]
     X:    -1.8689      Y:     0.0035      Z:     0.0001     Total:     1.8689

*** Psi4 exiting successfully. Buy a developer a beer!
