                               Psi4 1.3.2 release

  ==> Input File <==

--------------------------------------------------------------------------
#psi4
#
memory 32 gb

molecule  {
0 1
  N       -1.1198630    -0.0000120     0.0000220
  C       -0.3338800     1.1258240    -0.0000040
  C       -0.3338570    -1.1258310     0.0000200
  C        0.9847800     0.7092440    -0.0000340
  C        0.9847950    -0.7092240    -0.0000090
  H       -2.1306720    -0.0000210     0.0000590
  H       -0.7709050     2.1146050    -0.0000170
  H       -0.7708590    -2.1146210     0.0000440
  H        2.0101872     1.4786300    -0.0000660
  H        1.8502400    -1.3585590    -0.0000200
units angstrom
no_reorient  #important for SAPT in psi4, default
symmetry c1  #important for SAPT in psi4, default
}

set PROPERTIES_ORIGIN ["COM"]
properties('MP2/aug-cc-pvtz', properties = ['dipole'])
--------------------------------------------------------------------------

    Molecular point group: c1
  Charge       = 0
  Multiplicity = 1
  Basis Set: AUG-CC-PVTZ
    Blend: AUG-CC-PVTZ
  Basis Set: (AUG-CC-PVTZ AUX)
    Blend: AUG-CC-PVTZ-JKFIT

    Orbital Energies [Eh]
    ---------------------

    Doubly Occupied:

       1A    -15.609785     2A    -11.256285     3A    -11.255851
       4A    -11.232571     5A    -11.213430     6A     -1.291336
       7A     -1.039585     8A     -0.975267     9A     -0.788932
      10A     -0.753916    11A     -0.732625    12A     -0.585462
      13A     -0.581138    14A     -0.568400    15A     -0.536902
      16A     -0.508546    17A     -0.349249    18A     -0.298279

  @DF-RHF Final Energy:  -208.86285158432869

   => Energetics <=

    Nuclear Repulsion Energy =            159.9373652139018986
    One-Electron Energy =                -598.4453164175262145
    Two-Electron Energy =                 229.6450996192956211
    Total Energy =                       -208.8628515843286948
  Basis Set: (AUG-CC-PVTZ AUX)
    Blend: AUG-CC-PVTZ-RI
    Molecular point group: c1

    Geometry (in Angstrom), charge = 0, multiplicity = 1:

       Center              X                  Y                   Z               Mass
    ------------   -----------------  -----------------  -----------------  -----------------
         N           -1.121801984326    -0.001816255149     0.000022237647    14.003074004430
         C           -0.335818984326     1.124019744851    -0.000003762353    12.000000000000
         C           -0.335795984326    -1.127635255149     0.000020237647    12.000000000000
         C            0.982841015674     0.707439744851    -0.000033762353    12.000000000000
         C            0.982856015674    -0.711028255149    -0.000008762353    12.000000000000
         H           -2.132610984326    -0.001825255149     0.000059237647     1.007825032230
         H           -0.772843984326     2.112800744851    -0.000016762353     1.007825032230
         H           -0.772797984326    -2.116425255149     0.000044237647     1.007825032230
         H            2.008248215674     1.476825744851    -0.000065762353     1.007825032230
         H            1.848301015674    -1.360363255149    -0.000019762353     1.007825032230

  Basis Set: AUG-CC-PVTZ
    Blend: AUG-CC-PVTZ
  Basis Set: (AUG-CC-PVTZ AUX)
    Blend: AUG-CC-PVTZ-JKFIT
	 Reference Energy          =    -208.8628515843286948 [Eh]
	 Singles Energy            =      -0.0000000000000000 [Eh]
	 Same-Spin Energy          =      -0.2306898675417089 [Eh]
	 Opposite-Spin Energy      =      -0.7249501747867879 [Eh]
	 Correlation Energy        =      -0.9556400423284969 [Eh]
	 Total Energy              =    -209.8184916266571918 [Eh]

	 ================> DF-SCS-MP2 Energies <==================
	-----------------------------------------------------------
	 SCS Same-Spin Scale       =       0.3333333333333333 [-]
	 SCS Opposite-Spin Scale   =       1.2000000000000000 [-]
	 SCS Same-Spin Energy      =      -0.0768966225139030 [Eh]
	 SCS Opposite-Spin Energy  =      -0.8699402097441454 [Eh]
	 SCS Correlation Energy    =      -0.9468368322580484 [Eh]
	 SCS Total Energy          =    -209.8096884165867380 [Eh]
	-----------------------------------------------------------

  Dipole Moment: [D]
     X:    -1.9178      Y:    -0.0526      Z:     0.0001     Total:     1.9185

*** Psi4 exiting successfully. Buy a developer a beer!
