                               Psi4 1.4a3.dev225

  ==> Input File <==

--------------------------------------------------------------------------
#psi4
#
memory 32 gb

molecule  {
0 1
  N       -1.1198630    -0.0000120     0.0000220
  C       -0.3338800     1.1258240    -0.0000040
  C       -0.3338570    -1.1258310     0.0000200
  C        0.9847800     0.7092440    -0.0000340
  C        0.9847955    -0.7592240    -0.0000081
  H       -2.1306720    -0.0000210     0.0000590
  H       -0.7709050     2.1146050    -0.0000170
  H       -0.7708590    -2.1146210     0.0000440
  H        1.8502120     1.3585970    -0.0000610
  H        1.8502400    -1.3585590    -0.0000200
units angstrom
no_reorient  #important for SAPT in psi4, default
symmetry c1  #important for SAPT in psi4, default
}

set PROPERTIES_ORIGIN ["COM"]
properties('MP2/aug-cc-pvtz', properties = ['dipole'])
--------------------------------------------------------------------------

    Molecular point group: c1
  Charge       = 0
  Multiplicity = 1
  Basis Set: AUG-CC-PVTZ
    Blend: AUG-CC-PVTZ
  Basis Set: (AUG-CC-PVTZ AUX)
    Blend: AUG-CC-PVTZ-JKFIT

    Orbital Energies [Eh]
    ---------------------

    Doubly Occupied:

       1A    -15.605969     2A    -11.255342     3A    -11.254983
       4A    -11.214532     5A    -11.211408     6A     -1.287728
       7A     -1.034251     8A     -0.978059     9A     -0.788849
      10A     -0.769628    11A     -0.734060    12A     -0.595224
      13A     -0.582383    14A     -0.565498    15A     -0.555378
      16A     -0.515325    17A     -0.341973    18A     -0.301679

  @DF-RHF Final Energy:  -208.88394509386271

   => Energetics <=

    Nuclear Repulsion Energy =            160.2688886014378227
    One-Electron Energy =                -599.1211330253778442
    Two-Electron Energy =                 229.9682993300773148
    Total Energy =                       -208.8839450938627067
  Basis Set: (AUG-CC-PVTZ AUX)
    Blend: AUG-CC-PVTZ-RI
    Molecular point group: c1

    Geometry (in Angstrom), charge = 0, multiplicity = 1:

       Center              X                  Y                   Z               Mass
    ------------   -----------------  -----------------  -----------------  -----------------
         N           -1.119397215194     0.008937751597     0.000022001391    14.003074004430
         C           -0.333414215194     1.134773751597    -0.000003998609    12.000000000000
         C           -0.333391215194    -1.116881248403     0.000020001391    12.000000000000
         C            0.985245784806     0.718193751597    -0.000033998609    12.000000000000
         C            0.985261284806    -0.750274248403    -0.000008098609    12.000000000000
         H           -2.130206215194     0.008928751597     0.000059001391     1.007825032230
         H           -0.770439215194     2.123554751597    -0.000016998609     1.007825032230
         H           -0.770393215194    -2.105671248403     0.000044001391     1.007825032230
         H            1.850677784806     1.367546751597    -0.000060998609     1.007825032230
         H            1.850705784806    -1.349609248403    -0.000019998609     1.007825032230

  Basis Set: AUG-CC-PVTZ
    Blend: AUG-CC-PVTZ
  Basis Set: (AUG-CC-PVTZ AUX)
    Blend: AUG-CC-PVTZ-JKFIT
	 Reference Energy          =    -208.8839450938627067 [Eh]
	 Singles Energy            =      -0.0000000000000000 [Eh]
	 Same-Spin Energy          =      -0.2296052368933525 [Eh]
	 Opposite-Spin Energy      =      -0.7224820284091833 [Eh]
	 Correlation Energy        =      -0.9520872653025358 [Eh]
	 Total Energy              =    -209.8360323591652445 [Eh]

	 ================> DF-SCS-MP2 Energies <==================
	-----------------------------------------------------------
	 SCS Same-Spin Scale       =       0.3333333333333333 [-]
	 SCS Opposite-Spin Scale   =       1.2000000000000000 [-]
	 SCS Same-Spin Energy      =      -0.0765350789644508 [Eh]
	 SCS Opposite-Spin Energy  =      -0.8669784340910199 [Eh]
	 SCS Correlation Energy    =      -0.9435135130554707 [Eh]
	 SCS Total Energy          =    -209.8274586069181851 [Eh]
	-----------------------------------------------------------

  Dipole Moment: [D]
     X:    -1.8683      Y:    -0.0025      Z:     0.0001     Total:     1.8683

*** Psi4 exiting successfully. Buy a developer a beer!
