                               Psi4 1.3.2 release

  ==> Input File <==

--------------------------------------------------------------------------
#psi4
#
memory 32 gb

molecule  {
0 1
  N       -1.0394140    -0.0520969     0.0000203
  C       -0.3338800     1.1258240    -0.0000040
  C       -0.3338570    -1.1258310     0.0000200
  C        0.9847800     0.7092440    -0.0000340
  C        0.9847950    -0.7092240    -0.0000090
  H       -2.1306720    -0.0000210     0.0000590
  H       -0.7709050     2.1146050    -0.0000170
  H       -0.7708590    -2.1146210     0.0000440
  H        1.8502120     1.3585970    -0.0000610
  H        1.8502400    -1.3585590    -0.0000200
units angstrom
no_reorient  #important for SAPT in psi4, default
symmetry c1  #important for SAPT in psi4, default
}

set PROPERTIES_ORIGIN ["COM"]
properties('MP2/aug-cc-pvtz', properties = ['dipole'])
--------------------------------------------------------------------------

    Molecular point group: c1
  Charge       = 0
  Multiplicity = 1
  Basis Set: AUG-CC-PVTZ
    Blend: AUG-CC-PVTZ
  Basis Set: (AUG-CC-PVTZ AUX)
    Blend: AUG-CC-PVTZ-JKFIT

    Orbital Energies [Eh]
    ---------------------

    Doubly Occupied:

       1A    -15.615822     2A    -11.248019     3A    -11.247093
       4A    -11.209877     5A    -11.201810     6A     -1.313830
       7A     -1.030906     8A     -0.987378     9A     -0.774440
      10A     -0.769440    11A     -0.740780    12A     -0.605154
      13A     -0.583009    14A     -0.565015    15A     -0.541499
      16A     -0.524317    17A     -0.343372    18A     -0.295980

  @DF-RHF Final Energy:  -208.86955355692660

   => Energetics <=

    Nuclear Repulsion Energy =            162.3653504529089844
    One-Electron Energy =                -603.2743276817501510
    Two-Electron Energy =                 232.0394236719145908
    Total Energy =                       -208.8695535569266042
  Basis Set: (AUG-CC-PVTZ AUX)
    Blend: AUG-CC-PVTZ-RI
    Molecular point group: c1

    Geometry (in Angstrom), charge = 0, multiplicity = 1:

       Center              X                  Y                   Z               Mass
    ------------   -----------------  -----------------  -----------------  -----------------
         N           -1.055751472167    -0.041217785840     0.000020817562    14.003074004430
         C           -0.350217472167     1.136703114160    -0.000003482438    12.000000000000
         C           -0.350194472167    -1.114951885840     0.000020517562    12.000000000000
         C            0.968442527833     0.720123114160    -0.000033482438    12.000000000000
         C            0.968457527833    -0.698344885840    -0.000008482438    12.000000000000
         H           -2.147009472167     0.010858114160     0.000059517562     1.007825032230
         H           -0.787242472167     2.125484114160    -0.000016482438     1.007825032230
         H           -0.787196472167    -2.103741885840     0.000044517562     1.007825032230
         H            1.833874527833     1.369476114160    -0.000060482438     1.007825032230
         H            1.833902527833    -1.347679885840    -0.000019482438     1.007825032230

  Basis Set: AUG-CC-PVTZ
    Blend: AUG-CC-PVTZ
  Basis Set: (AUG-CC-PVTZ AUX)
    Blend: AUG-CC-PVTZ-JKFIT
	 Reference Energy          =    -208.8695535569266042 [Eh]
	 Singles Energy            =      -0.0000000000000000 [Eh]
	 Same-Spin Energy          =      -0.2316383277810053 [Eh]
	 Opposite-Spin Energy      =      -0.7237735901584273 [Eh]
	 Correlation Energy        =      -0.9554119179394327 [Eh]
	 Total Energy              =    -209.8249654748660475 [Eh]

	 ================> DF-SCS-MP2 Energies <==================
	-----------------------------------------------------------
	 SCS Same-Spin Scale       =       0.3333333333333333 [-]
	 SCS Opposite-Spin Scale   =       1.2000000000000000 [-]
	 SCS Same-Spin Energy      =      -0.0772127759270018 [Eh]
	 SCS Opposite-Spin Energy  =      -0.8685283081901128 [Eh]
	 SCS Correlation Energy    =      -0.9457410841171147 [Eh]
	 SCS Total Energy          =    -209.8152946410437210 [Eh]
	-----------------------------------------------------------

  Dipole Moment: [D]
     X:    -2.1289      Y:     0.0046      Z:     0.0001     Total:     2.1289

*** Psi4 exiting successfully. Buy a developer a beer!
