                               Psi4 1.4a3.dev225

  ==> Input File <==

--------------------------------------------------------------------------
#psi4
#
memory 32 gb

molecule  {
0 1
  N       -1.1198630    -0.0000120     0.0000220
  C       -0.3338800     1.1258240    -0.0000040
  C       -0.3338570    -1.1258310     0.0000200
  C        0.9847800     0.7092440    -0.0000340
  C        0.9847950    -0.7092240    -0.0000090
  H       -2.1306720    -0.0000210     0.0000590
  H       -0.7628198     2.0963121    -0.0000168
  H       -0.7708590    -2.1146210     0.0000440
  H        1.8502120     1.3585970    -0.0000610
  H        1.8502400    -1.3585590    -0.0000200
units angstrom
no_reorient  #important for SAPT in psi4, default
symmetry c1  #important for SAPT in psi4, default
}

set PROPERTIES_ORIGIN ["COM"]
properties('MP2/aug-cc-pvtz', properties = ['dipole'])
--------------------------------------------------------------------------

    Molecular point group: c1
  Charge       = 0
  Multiplicity = 1
  Basis Set: AUG-CC-PVTZ
    Blend: AUG-CC-PVTZ
  Basis Set: (AUG-CC-PVTZ AUX)
    Blend: AUG-CC-PVTZ-JKFIT

    Orbital Energies [Eh]
    ---------------------

    Doubly Occupied:

       1A    -15.608034     2A    -11.254046     3A    -11.251813
       4A    -11.211333     5A    -11.210270     6A     -1.289446
       7A     -1.040592     8A     -0.976227     9A     -0.792096
      10A     -0.766014    11A     -0.737341    12A     -0.590669
      13A     -0.584653    14A     -0.566450    15A     -0.545423
      16A     -0.529512    17A     -0.347374    18A     -0.296647

  @DF-RHF Final Energy:  -208.88559939449581

   => Energetics <=

    Nuclear Repulsion Energy =            160.8436304459234520
    One-Electron Energy =                -600.2625800436314876
    Two-Electron Energy =                 230.5333502032122226
    Total Energy =                       -208.8855993944958129
  Basis Set: (AUG-CC-PVTZ AUX)
    Blend: AUG-CC-PVTZ-RI
    Molecular point group: c1

    Geometry (in Angstrom), charge = 0, multiplicity = 1:

       Center              X                  Y                   Z               Mass
    ------------   -----------------  -----------------  -----------------  -----------------
         N           -1.119518668056     0.000263156123     0.000022159477    14.003074004430
         C           -0.333535668056     1.126099156123    -0.000003840523    12.000000000000
         C           -0.333512668056    -1.125555843877     0.000020159477    12.000000000000
         C            0.985124331944     0.709519156123    -0.000033840523    12.000000000000
         C            0.985139331944    -0.708948843877    -0.000008840523    12.000000000000
         H           -2.130327668056     0.000254156123     0.000059159477     1.007825032230
         H           -0.762475468056     2.096587256123    -0.000016640523     1.007825032230
         H           -0.770514668056    -2.114345843877     0.000044159477     1.007825032230
         H            1.850556331944     1.358872156123    -0.000060840523     1.007825032230
         H            1.850584331944    -1.358283843877    -0.000019840523     1.007825032230

  Basis Set: AUG-CC-PVTZ
    Blend: AUG-CC-PVTZ
  Basis Set: (AUG-CC-PVTZ AUX)
    Blend: AUG-CC-PVTZ-JKFIT
	 Reference Energy          =    -208.8855993944958129 [Eh]
	 Singles Energy            =      -0.0000000000000000 [Eh]
	 Same-Spin Energy          =      -0.2303250466062271 [Eh]
	 Opposite-Spin Energy      =      -0.7228920678737849 [Eh]
	 Correlation Energy        =      -0.9532171144800120 [Eh]
	 Total Energy              =    -209.8388165089758388 [Eh]

	 ================> DF-SCS-MP2 Energies <==================
	-----------------------------------------------------------
	 SCS Same-Spin Scale       =       0.3333333333333333 [-]
	 SCS Opposite-Spin Scale   =       1.2000000000000000 [-]
	 SCS Same-Spin Energy      =      -0.0767750155354090 [Eh]
	 SCS Opposite-Spin Energy  =      -0.8674704814485419 [Eh]
	 SCS Correlation Energy    =      -0.9442454969839509 [Eh]
	 SCS Total Energy          =    -209.8298448914797518 [Eh]
	-----------------------------------------------------------

  Dipole Moment: [D]
     X:    -1.8724      Y:     0.0014      Z:     0.0001     Total:     1.8724

*** Psi4 exiting successfully. Buy a developer a beer!
