                               Psi4 1.4a3.dev225

  ==> Input File <==

--------------------------------------------------------------------------
#psi4
#
memory 32 gb

molecule  {
0 1
  N       -1.1198630    -0.0000120     0.0000220
  C       -0.3052583     1.1668215    -0.0000049
  C       -0.3338570    -1.1258310     0.0000200
  C        0.9847800     0.7092440    -0.0000340
  C        0.9847950    -0.7092240    -0.0000090
  H       -2.1306720    -0.0000210     0.0000590
  H       -0.7709050     2.1146050    -0.0000170
  H       -0.7708590    -2.1146210     0.0000440
  H        1.8502120     1.3585970    -0.0000610
  H        1.8502400    -1.3585590    -0.0000200
units angstrom
no_reorient  #important for SAPT in psi4, default
symmetry c1  #important for SAPT in psi4, default
}

set PROPERTIES_ORIGIN ["COM"]
properties('MP2/aug-cc-pvtz', properties = ['dipole'])
--------------------------------------------------------------------------

    Molecular point group: c1
  Charge       = 0
  Multiplicity = 1
  Basis Set: AUG-CC-PVTZ
    Blend: AUG-CC-PVTZ
  Basis Set: (AUG-CC-PVTZ AUX)
    Blend: AUG-CC-PVTZ-JKFIT

    Orbital Energies [Eh]
    ---------------------

    Doubly Occupied:

       1A    -15.604488     2A    -11.258076     3A    -11.253698
       4A    -11.213644     5A    -11.210041     6A     -1.275884
       7A     -1.039849     8A     -0.975847     9A     -0.790104
      10A     -0.763180    11A     -0.735591    12A     -0.593191
      13A     -0.575663    14A     -0.558578    15A     -0.545678
      16A     -0.534707    17A     -0.347725    18A     -0.299049

  @DF-RHF Final Energy:  -208.88227769170044

   => Energetics <=

    Nuclear Repulsion Energy =            160.1501260293628377
    One-Electron Energy =                -598.9148222251566267
    Two-Electron Energy =                 229.8824185040933799
    Total Energy =                       -208.8822776917004376
  Basis Set: (AUG-CC-PVTZ AUX)
    Blend: AUG-CC-PVTZ-RI
    Molecular point group: c1

    Geometry (in Angstrom), charge = 0, multiplicity = 1:

       Center              X                  Y                   Z               Mass
    ------------   -----------------  -----------------  -----------------  -----------------
         N           -1.124520173633    -0.007350049423     0.000022323576    14.003074004430
         C           -0.309915473633     1.159483450577    -0.000004576424    12.000000000000
         C           -0.338514173633    -1.133169049423     0.000020323576    12.000000000000
         C            0.980122826367     0.701905950577    -0.000033676424    12.000000000000
         C            0.980137826367    -0.716562049423    -0.000008676424    12.000000000000
         H           -2.135329173633    -0.007359049423     0.000059323576     1.007825032230
         H           -0.775562173633     2.107266950577    -0.000016676424     1.007825032230
         H           -0.775516173633    -2.121959049423     0.000044323576     1.007825032230
         H            1.845554826367     1.351258950577    -0.000060676424     1.007825032230
         H            1.845582826367    -1.365897049423    -0.000019676424     1.007825032230

  Basis Set: AUG-CC-PVTZ
    Blend: AUG-CC-PVTZ
  Basis Set: (AUG-CC-PVTZ AUX)
    Blend: AUG-CC-PVTZ-JKFIT
	 Reference Energy          =    -208.8822776917004376 [Eh]
	 Singles Energy            =      -0.0000000000000000 [Eh]
	 Same-Spin Energy          =      -0.2301358966912337 [Eh]
	 Opposite-Spin Energy      =      -0.7234978825099362 [Eh]
	 Correlation Energy        =      -0.9536337792011699 [Eh]
	 Total Energy              =    -209.8359114709016069 [Eh]

	 ================> DF-SCS-MP2 Energies <==================
	-----------------------------------------------------------
	 SCS Same-Spin Scale       =       0.3333333333333333 [-]
	 SCS Opposite-Spin Scale   =       1.2000000000000000 [-]
	 SCS Same-Spin Energy      =      -0.0767119655637446 [Eh]
	 SCS Opposite-Spin Energy  =      -0.8681974590119234 [Eh]
	 SCS Correlation Energy    =      -0.9449094245756680 [Eh]
	 SCS Total Energy          =    -209.8271871162760931 [Eh]
	-----------------------------------------------------------

  Dipole Moment: [D]
     X:    -1.7945      Y:     0.0097      Z:     0.0001     Total:     1.7945

*** Psi4 exiting successfully. Buy a developer a beer!
