                               Psi4 1.3.2 release

  ==> Input File <==

--------------------------------------------------------------------------
#psi4
#
memory 32 gb

molecule  {
0 1
  N       -1.1198630    -0.0000120     0.0000220
  C       -0.2950677     1.0977078    -0.0000055
  C       -0.3338570    -1.1258310     0.0000200
  C        0.9847800     0.7092440    -0.0000340
  C        0.9847950    -0.7092240    -0.0000090
  H       -2.1306720    -0.0000210     0.0000590
  H       -0.7709050     2.1146050    -0.0000170
  H       -0.7708590    -2.1146210     0.0000440
  H        1.8502120     1.3585970    -0.0000610
  H        1.8502400    -1.3585590    -0.0000200
units angstrom
no_reorient  #important for SAPT in psi4, default
symmetry c1  #important for SAPT in psi4, default
}

set PROPERTIES_ORIGIN ["COM"]
properties('MP2/aug-cc-pvtz', properties = ['dipole'])
--------------------------------------------------------------------------

    Molecular point group: c1
  Charge       = 0
  Multiplicity = 1
  Basis Set: AUG-CC-PVTZ
    Blend: AUG-CC-PVTZ
  Basis Set: (AUG-CC-PVTZ AUX)
    Blend: AUG-CC-PVTZ-JKFIT

    Orbital Energies [Eh]
    ---------------------

    Doubly Occupied:

       1A    -15.604778     2A    -11.253565     3A    -11.252391
       4A    -11.209790     5A    -11.205518     6A     -1.291270
       7A     -1.046673     8A     -0.975253     9A     -0.791474
      10A     -0.767328    11A     -0.728265    12A     -0.597586
      13A     -0.570578    14A     -0.568683    15A     -0.549046
      16A     -0.525605    17A     -0.350154    18A     -0.300204

  @DF-RHF Final Energy:  -208.88346880881215

   => Energetics <=

    Nuclear Repulsion Energy =            161.4174935994731186
    One-Electron Energy =                -601.4256038660309969
    Two-Electron Energy =                 231.1246414577457244
    Total Energy =                       -208.8834688088121538
  Basis Set: (AUG-CC-PVTZ AUX)
    Blend: AUG-CC-PVTZ-RI
    Molecular point group: c1

    Geometry (in Angstrom), charge = 0, multiplicity = 1:

       Center              X                  Y                   Z               Mass
    ------------   -----------------  -----------------  -----------------  -----------------
         N           -1.126344206877     0.005020732119     0.000022430971    14.003074004430
         C           -0.301548906877     1.102740532119    -0.000005069029    12.000000000000
         C           -0.340338206877    -1.120798267881     0.000020430971    12.000000000000
         C            0.978298793123     0.714276732119    -0.000033569029    12.000000000000
         C            0.978313793123    -0.704191267881    -0.000008569029    12.000000000000
         H           -2.137153206877     0.005011732119     0.000059430971     1.007825032230
         H           -0.777386206877     2.119637732119    -0.000016569029     1.007825032230
         H           -0.777340206877    -2.109588267881     0.000044430971     1.007825032230
         H            1.843730793123     1.363629732119    -0.000060569029     1.007825032230
         H            1.843758793123    -1.353526267881    -0.000019569029     1.007825032230

  Basis Set: AUG-CC-PVTZ
    Blend: AUG-CC-PVTZ
  Basis Set: (AUG-CC-PVTZ AUX)
    Blend: AUG-CC-PVTZ-JKFIT
	 Reference Energy          =    -208.8834688088121538 [Eh]
	 Singles Energy            =      -0.0000000000000000 [Eh]
	 Same-Spin Energy          =      -0.2298803685142384 [Eh]
	 Opposite-Spin Energy      =      -0.7222144458978034 [Eh]
	 Correlation Energy        =      -0.9520948144120418 [Eh]
	 Total Energy              =    -209.8355636232242034 [Eh]

	 ================> DF-SCS-MP2 Energies <==================
	-----------------------------------------------------------
	 SCS Same-Spin Scale       =       0.3333333333333333 [-]
	 SCS Opposite-Spin Scale   =       1.2000000000000000 [-]
	 SCS Same-Spin Energy      =      -0.0766267895047461 [Eh]
	 SCS Opposite-Spin Energy  =      -0.8666573350773640 [Eh]
	 SCS Correlation Energy    =      -0.9432841245821101 [Eh]
	 SCS Total Energy          =    -209.8267529333942605 [Eh]
	-----------------------------------------------------------

  Dipole Moment: [D]
     X:    -1.8359      Y:     0.0332      Z:     0.0001     Total:     1.8362

*** Psi4 exiting successfully. Buy a developer a beer!
