                               Psi4 1.3.2 release

  ==> Input File <==

--------------------------------------------------------------------------
#psi4
#
memory 32 gb

molecule  {
0 1
  N       -1.1198630    -0.0000120     0.0000220
  C       -0.3264088     1.1487743    -0.0000044
  C       -0.3338570    -1.1258310     0.0000200
  C        0.9847800     0.7092440    -0.0000340
  C        0.9847950    -0.7092240    -0.0000090
  H       -2.1306720    -0.0000210     0.0000590
  H       -0.7709050     2.1146050    -0.0000170
  H       -0.7708590    -2.1146210     0.0000440
  H        1.8502120     1.3585970    -0.0000610
  H        1.8502400    -1.3585590    -0.0000200
units angstrom
no_reorient  #important for SAPT in psi4, default
symmetry c1  #important for SAPT in psi4, default
}

set PROPERTIES_ORIGIN ["COM"]
properties('MP2/aug-cc-pvtz', properties = ['dipole'])
--------------------------------------------------------------------------

    Molecular point group: c1
  Charge       = 0
  Multiplicity = 1
  Basis Set: AUG-CC-PVTZ
    Blend: AUG-CC-PVTZ
  Basis Set: (AUG-CC-PVTZ AUX)
    Blend: AUG-CC-PVTZ-JKFIT

    Orbital Energies [Eh]
    ---------------------

    Doubly Occupied:

       1A    -15.607037     2A    -11.256095     3A    -11.254096
       4A    -11.213040     5A    -11.210627     6A     -1.282758
       7A     -1.039483     8A     -0.975526     9A     -0.790962
      10A     -0.764270    11A     -0.736103    12A     -0.590254
      13A     -0.581846    14A     -0.562474    15A     -0.544959
      16A     -0.532196    17A     -0.347095    18A     -0.297410

  @DF-RHF Final Energy:  -208.88427720118489

   => Energetics <=

    Nuclear Repulsion Energy =            160.3746580850819328
    One-Electron Energy =                -599.3454081914730978
    Two-Electron Energy =                 230.0864729052062785
    Total Energy =                       -208.8842772011848865
  Basis Set: (AUG-CC-PVTZ AUX)
    Blend: AUG-CC-PVTZ-RI
    Molecular point group: c1

    Geometry (in Angstrom), charge = 0, multiplicity = 1:

       Center              X                  Y                   Z               Mass
    ------------   -----------------  -----------------  -----------------  -----------------
         N           -1.120734408799    -0.004119749662     0.000022234080    14.003074004430
         C           -0.327280208799     1.144666550338    -0.000004165920    12.000000000000
         C           -0.334728408799    -1.129938749662     0.000020234080    12.000000000000
         C            0.983908591201     0.705136250338    -0.000033765920    12.000000000000
         C            0.983923591201    -0.713331749662    -0.000008765920    12.000000000000
         H           -2.131543408799    -0.004128749662     0.000059234080     1.007825032230
         H           -0.771776408799     2.110497250338    -0.000016765920     1.007825032230
         H           -0.771730408799    -2.118728749662     0.000044234080     1.007825032230
         H            1.849340591201     1.354489250338    -0.000060765920     1.007825032230
         H            1.849368591201    -1.362666749662    -0.000019765920     1.007825032230

  Basis Set: AUG-CC-PVTZ
    Blend: AUG-CC-PVTZ
  Basis Set: (AUG-CC-PVTZ AUX)
    Blend: AUG-CC-PVTZ-JKFIT
	 Reference Energy          =    -208.8842772011848865 [Eh]
	 Singles Energy            =      -0.0000000000000000 [Eh]
	 Same-Spin Energy          =      -0.2303326754513360 [Eh]
	 Opposite-Spin Energy      =      -0.7233848125519992 [Eh]
	 Correlation Energy        =      -0.9537174880033352 [Eh]
	 Total Energy              =    -209.8379946891882355 [Eh]

	 ================> DF-SCS-MP2 Energies <==================
	-----------------------------------------------------------
	 SCS Same-Spin Scale       =       0.3333333333333333 [-]
	 SCS Opposite-Spin Scale   =       1.2000000000000000 [-]
	 SCS Same-Spin Energy      =      -0.0767775584837787 [Eh]
	 SCS Opposite-Spin Energy  =      -0.8680617750623990 [Eh]
	 SCS Correlation Energy    =      -0.9448393335461777 [Eh]
	 SCS Total Energy          =    -209.8291165347310709 [Eh]
	-----------------------------------------------------------

  Dipole Moment: [D]
     X:    -1.8397      Y:    -0.0030      Z:     0.0001     Total:     1.8397

*** Psi4 exiting successfully. Buy a developer a beer!
