                               Psi4 1.3.2 release

  ==> Input File <==

--------------------------------------------------------------------------
#psi4
#
memory 32 gb

molecule  {
0 1
  N       -1.1198630    -0.0000120     0.0000220
  C       -0.4558676     1.2018141     0.0000007
  C       -0.3338570    -1.1258310     0.0000200
  C        0.9847800     0.7092440    -0.0000340
  C        0.9847950    -0.7092240    -0.0000090
  H       -2.1306720    -0.0000210     0.0000590
  H       -0.7709050     2.1146050    -0.0000170
  H       -0.7708590    -2.1146210     0.0000440
  H        1.8502120     1.3585970    -0.0000610
  H        1.8502400    -1.3585590    -0.0000200
units angstrom
no_reorient  #important for SAPT in psi4, default
symmetry c1  #important for SAPT in psi4, default
}

set PROPERTIES_ORIGIN ["COM"]
properties('MP2/aug-cc-pvtz', properties = ['dipole'])
--------------------------------------------------------------------------

    Molecular point group: c1
  Charge       = 0
  Multiplicity = 1
  Basis Set: AUG-CC-PVTZ
    Blend: AUG-CC-PVTZ
  Basis Set: (AUG-CC-PVTZ AUX)
    Blend: AUG-CC-PVTZ-JKFIT

    Orbital Energies [Eh]
    ---------------------

    Doubly Occupied:

       1A    -15.620328     2A    -11.259651     3A    -11.256697
       4A    -11.225275     5A    -11.215761     6A     -1.286950
       7A     -1.033516     8A     -0.973480     9A     -0.798999
      10A     -0.767788    11A     -0.748046    12A     -0.618972
      13A     -0.581813    14A     -0.563259    15A     -0.535805
      16A     -0.513706    17A     -0.346548    18A     -0.283922

  @DF-RHF Final Energy:  -208.85062269678639

   => Energetics <=

    Nuclear Repulsion Energy =            158.9936251650718191
    One-Electron Energy =                -596.4274703355337124
    Two-Electron Energy =                 228.5832224736755052
    Total Energy =                       -208.8506226967863881
  Basis Set: (AUG-CC-PVTZ AUX)
    Blend: AUG-CC-PVTZ-RI
    Molecular point group: c1

    Geometry (in Angstrom), charge = 0, multiplicity = 1:

       Center              X                  Y                   Z               Mass
    ------------   -----------------  -----------------  -----------------  -----------------
         N           -1.097562352701    -0.013613435846     0.000021321222    14.003074004430
         C           -0.433566952701     1.188212664154     0.000000021222    12.000000000000
         C           -0.311556352701    -1.139432435846     0.000019321222    12.000000000000
         C            1.007080647299     0.695642564154    -0.000034678778    12.000000000000
         C            1.007095647299    -0.722825435846    -0.000009678778    12.000000000000
         H           -2.108371352701    -0.013622435846     0.000058321222     1.007825032230
         H           -0.748604352701     2.101003564154    -0.000017678778     1.007825032230
         H           -0.748558352701    -2.128222435846     0.000043321222     1.007825032230
         H            1.872512647299     1.344995564154    -0.000061678778     1.007825032230
         H            1.872540647299    -1.372160435846    -0.000020678778     1.007825032230

  Basis Set: AUG-CC-PVTZ
    Blend: AUG-CC-PVTZ
  Basis Set: (AUG-CC-PVTZ AUX)
    Blend: AUG-CC-PVTZ-JKFIT
	 Reference Energy          =    -208.8506226967863881 [Eh]
	 Singles Energy            =      -0.0000000000000000 [Eh]
	 Same-Spin Energy          =      -0.2325105075517650 [Eh]
	 Opposite-Spin Energy      =      -0.7276361279874803 [Eh]
	 Correlation Energy        =      -0.9601466355392454 [Eh]
	 Total Energy              =    -209.8107693323256342 [Eh]

	 ================> DF-SCS-MP2 Energies <==================
	-----------------------------------------------------------
	 SCS Same-Spin Scale       =       0.3333333333333333 [-]
	 SCS Opposite-Spin Scale   =       1.2000000000000000 [-]
	 SCS Same-Spin Energy      =      -0.0775035025172550 [Eh]
	 SCS Opposite-Spin Energy  =      -0.8731633535849764 [Eh]
	 SCS Correlation Energy    =      -0.9506668561022315 [Eh]
	 SCS Total Energy          =    -209.8012895528886190 [Eh]
	-----------------------------------------------------------

  Dipole Moment: [D]
     X:    -1.9212      Y:    -0.1684      Z:     0.0001     Total:     1.9286

*** Psi4 exiting successfully. Buy a developer a beer!
