                               Psi4 1.4a3.dev225

  ==> Input File <==

--------------------------------------------------------------------------
#psi4
#
memory 32 gb

molecule  {
0 1
  N       -1.1198630    -0.0000120     0.0000220
  C       -0.3338800     1.1258240    -0.0000040
  C       -0.3338570    -1.1258310     0.0000200
  C        1.0038510     0.7032193    -0.0000344
  C        0.9847950    -0.7092240    -0.0000090
  H       -2.1306720    -0.0000210     0.0000590
  H       -0.7709050     2.1146050    -0.0000170
  H       -0.7708590    -2.1146210     0.0000440
  H        1.8502120     1.3585970    -0.0000610
  H        1.8502400    -1.3585590    -0.0000200
units angstrom
no_reorient  #important for SAPT in psi4, default
symmetry c1  #important for SAPT in psi4, default
}

set PROPERTIES_ORIGIN ["COM"]
properties('MP2/aug-cc-pvtz', properties = ['dipole'])
--------------------------------------------------------------------------

    Molecular point group: c1
  Charge       = 0
  Multiplicity = 1
  Basis Set: AUG-CC-PVTZ
    Blend: AUG-CC-PVTZ
  Basis Set: (AUG-CC-PVTZ AUX)
    Blend: AUG-CC-PVTZ-JKFIT

    Orbital Energies [Eh]
    ---------------------

    Doubly Occupied:

       1A    -15.610023     2A    -11.256502     3A    -11.253625
       4A    -11.212174     5A    -11.210863     6A     -1.289172
       7A     -1.041000     8A     -0.973141     9A     -0.793749
      10A     -0.766259    11A     -0.734275    12A     -0.591846
      13A     -0.582664    14A     -0.566000    15A     -0.545405
      16A     -0.529426    17A     -0.348308    18A     -0.294054

  @DF-RHF Final Energy:  -208.88423494241792

   => Energetics <=

    Nuclear Repulsion Energy =            160.5342362642312821
    One-Electron Energy =                -599.6399709453373816
    Two-Electron Energy =                 230.2214997386882089
    Total Energy =                       -208.8842349424179190
  Basis Set: (AUG-CC-PVTZ AUX)
    Blend: AUG-CC-PVTZ-RI
    Molecular point group: c1

    Geometry (in Angstrom), charge = 0, multiplicity = 1:

       Center              X                  Y                   Z               Mass
    ------------   -----------------  -----------------  -----------------  -----------------
         N           -1.122810677205     0.001066536056     0.000022234080    14.003074004430
         C           -0.336827677205     1.126902536056    -0.000003765920    12.000000000000
         C           -0.336804677205    -1.124752463944     0.000020234080    12.000000000000
         C            1.000903322795     0.704297836056    -0.000034165920    12.000000000000
         C            0.981847322795    -0.708145463944    -0.000008765920    12.000000000000
         H           -2.133619677205     0.001057536056     0.000059234080     1.007825032230
         H           -0.773852677205     2.115683536056    -0.000016765920     1.007825032230
         H           -0.773806677205    -2.113542463944     0.000044234080     1.007825032230
         H            1.847264322795     1.359675536056    -0.000060765920     1.007825032230
         H            1.847292322795    -1.357480463944    -0.000019765920     1.007825032230

  Basis Set: AUG-CC-PVTZ
    Blend: AUG-CC-PVTZ
  Basis Set: (AUG-CC-PVTZ AUX)
    Blend: AUG-CC-PVTZ-JKFIT
	 Reference Energy          =    -208.8842349424179190 [Eh]
	 Singles Energy            =      -0.0000000000000000 [Eh]
	 Same-Spin Energy          =      -0.2306379362539265 [Eh]
	 Opposite-Spin Energy      =      -0.7234918254572141 [Eh]
	 Correlation Energy        =      -0.9541297617111406 [Eh]
	 Total Energy              =    -209.8383647041290487 [Eh]

	 ================> DF-SCS-MP2 Energies <==================
	-----------------------------------------------------------
	 SCS Same-Spin Scale       =       0.3333333333333333 [-]
	 SCS Opposite-Spin Scale   =       1.2000000000000000 [-]
	 SCS Same-Spin Energy      =      -0.0768793120846422 [Eh]
	 SCS Opposite-Spin Energy  =      -0.8681901905486570 [Eh]
	 SCS Correlation Energy    =      -0.9450695026332991 [Eh]
	 SCS Total Energy          =    -209.8293044450512070 [Eh]
	-----------------------------------------------------------

  Dipole Moment: [D]
     X:    -1.8814      Y:    -0.0051      Z:     0.0001     Total:     1.8814

*** Psi4 exiting successfully. Buy a developer a beer!
