                               Psi4 1.3.2 release

  ==> Input File <==

--------------------------------------------------------------------------
#psi4
#
memory 32 gb

molecule  {
0 1
  N       -1.1198630    -0.0000120     0.0000220
  C       -0.3338800     1.1258240    -0.0000040
  C       -0.3338570    -1.1258310     0.0000200
  C        0.9694383     0.6634772    -0.0000323
  C        0.9847950    -0.7092240    -0.0000090
  H       -2.1306720    -0.0000210     0.0000590
  H       -0.7709050     2.1146050    -0.0000170
  H       -0.7708590    -2.1146210     0.0000440
  H        1.8502120     1.3585970    -0.0000610
  H        1.8502400    -1.3585590    -0.0000200
units angstrom
no_reorient  #important for SAPT in psi4, default
symmetry c1  #important for SAPT in psi4, default
}

set PROPERTIES_ORIGIN ["COM"]
properties('MP2/aug-cc-pvtz', properties = ['dipole'])
--------------------------------------------------------------------------

    Molecular point group: c1
  Charge       = 0
  Multiplicity = 1
  Basis Set: AUG-CC-PVTZ
    Blend: AUG-CC-PVTZ
  Basis Set: (AUG-CC-PVTZ AUX)
    Blend: AUG-CC-PVTZ-JKFIT

    Orbital Energies [Eh]
    ---------------------

    Doubly Occupied:

       1A    -15.609352     2A    -11.253342     3A    -11.251646
       4A    -11.209959     5A    -11.206684     6A     -1.292039
       7A     -1.048405     8A     -0.973927     9A     -0.795236
      10A     -0.760658    11A     -0.735057    12A     -0.589275
      13A     -0.582427    14A     -0.568488    15A     -0.543135
      16A     -0.529201    17A     -0.353464    18A     -0.293548

  @DF-RHF Final Energy:  -208.88146492238542

   => Energetics <=

    Nuclear Repulsion Energy =            161.4321917983890273
    One-Electron Energy =                -601.4356302856023149
    Two-Electron Energy =                 231.1219735648278970
    Total Energy =                       -208.8814649223854190
  Basis Set: (AUG-CC-PVTZ AUX)
    Blend: AUG-CC-PVTZ-RI
    Molecular point group: c1

    Geometry (in Angstrom), charge = 0, multiplicity = 1:

       Center              X                  Y                   Z               Mass
    ------------   -----------------  -----------------  -----------------  -----------------
         N           -1.116651088094     0.008180043756     0.000021858197    14.003074004430
         C           -0.330668088094     1.134016043756    -0.000004141803    12.000000000000
         C           -0.330645088094    -1.117638956244     0.000019858197    12.000000000000
         C            0.972650211906     0.671669243756    -0.000032441803    12.000000000000
         C            0.988006911906    -0.701031956244    -0.000009141803    12.000000000000
         H           -2.127460088094     0.008171043756     0.000058858197     1.007825032230
         H           -0.767693088094     2.122797043756    -0.000017141803     1.007825032230
         H           -0.767647088094    -2.106428956244     0.000043858197     1.007825032230
         H            1.853423911906     1.366789043756    -0.000061141803     1.007825032230
         H            1.853451911906    -1.350366956244    -0.000020141803     1.007825032230

  Basis Set: AUG-CC-PVTZ
    Blend: AUG-CC-PVTZ
  Basis Set: (AUG-CC-PVTZ AUX)
    Blend: AUG-CC-PVTZ-JKFIT
	 Reference Energy          =    -208.8814649223854190 [Eh]
	 Singles Energy            =      -0.0000000000000000 [Eh]
	 Same-Spin Energy          =      -0.2310247159828442 [Eh]
	 Opposite-Spin Energy      =      -0.7235636398854333 [Eh]
	 Correlation Energy        =      -0.9545883558682774 [Eh]
	 Total Energy              =    -209.8360532782537007 [Eh]

	 ================> DF-SCS-MP2 Energies <==================
	-----------------------------------------------------------
	 SCS Same-Spin Scale       =       0.3333333333333333 [-]
	 SCS Opposite-Spin Scale   =       1.2000000000000000 [-]
	 SCS Same-Spin Energy      =      -0.0770082386609481 [Eh]
	 SCS Opposite-Spin Energy  =      -0.8682763678625199 [Eh]
	 SCS Correlation Energy    =      -0.9452846065234680 [Eh]
	 SCS Total Energy          =    -209.8267495289088913 [Eh]
	-----------------------------------------------------------

  Dipole Moment: [D]
     X:    -1.8686      Y:    -0.0064      Z:     0.0001     Total:     1.8686

*** Psi4 exiting successfully. Buy a developer a beer!
