                               Psi4 1.3.2 release

  ==> Input File <==

--------------------------------------------------------------------------
#psi4
#
memory 32 gb

molecule  {
0 1
  N       -1.1198630    -0.0000120     0.0000220
  C       -0.4483669     0.9618339    -0.0000002
  C       -0.3338570    -1.1258310     0.0000200
  C        0.9847800     0.7092440    -0.0000340
  C        0.9847950    -0.7092240    -0.0000090
  H       -2.1306720    -0.0000210     0.0000590
  H       -0.7709050     2.1146050    -0.0000170
  H       -0.7708590    -2.1146210     0.0000440
  H        1.8502120     1.3585970    -0.0000610
  H        1.8502400    -1.3585590    -0.0000200
units angstrom
no_reorient  #important for SAPT in psi4, default
symmetry c1  #important for SAPT in psi4, default
}

set PROPERTIES_ORIGIN ["COM"]
properties('MP2/aug-cc-pvtz', properties = ['dipole'])
--------------------------------------------------------------------------

    Molecular point group: c1
  Charge       = 0
  Multiplicity = 1
  Basis Set: AUG-CC-PVTZ
    Blend: AUG-CC-PVTZ
  Basis Set: (AUG-CC-PVTZ AUX)
    Blend: AUG-CC-PVTZ-JKFIT

    Orbital Energies [Eh]
    ---------------------

    Doubly Occupied:

       1A    -15.620950     2A    -11.260789     3A    -11.236046
       4A    -11.215197     5A    -11.202075     6A     -1.367845
       7A     -1.051857     8A     -0.972687     9A     -0.816383
      10A     -0.782689    11A     -0.719888    12A     -0.622207
      13A     -0.613730    14A     -0.573406    15A     -0.535514
      16A     -0.484816    17A     -0.358048    18A     -0.278645

  @DF-RHF Final Energy:  -208.82573421893818

   => Energetics <=

    Nuclear Repulsion Energy =            163.5378785192246482
    One-Electron Energy =                -605.3016820629677568
    Two-Electron Energy =                 232.9380693248049283
    Total Energy =                       -208.8257342189381802
  Basis Set: (AUG-CC-PVTZ AUX)
    Blend: AUG-CC-PVTZ-RI
    Molecular point group: c1

    Geometry (in Angstrom), charge = 0, multiplicity = 1:

       Center              X                  Y                   Z               Mass
    ------------   -----------------  -----------------  -----------------  -----------------
         N           -1.098904916059     0.029341038139     0.000021482315    14.003074004430
         C           -0.427408816059     0.991186938139    -0.000000717685    12.000000000000
         C           -0.312898916059    -1.096477961861     0.000019482315    12.000000000000
         C            1.005738083941     0.738597038139    -0.000034517685    12.000000000000
         C            1.005753083941    -0.679870961861    -0.000009517685    12.000000000000
         H           -2.109713916059     0.029332038139     0.000058482315     1.007825032230
         H           -0.749946916059     2.143958038139    -0.000017517685     1.007825032230
         H           -0.749900916059    -2.085267961861     0.000043482315     1.007825032230
         H            1.871170083941     1.387950038139    -0.000061517685     1.007825032230
         H            1.871198083941    -1.329205961861    -0.000020517685     1.007825032230

  Basis Set: AUG-CC-PVTZ
    Blend: AUG-CC-PVTZ
  Basis Set: (AUG-CC-PVTZ AUX)
    Blend: AUG-CC-PVTZ-JKFIT
	 Reference Energy          =    -208.8257342189381802 [Eh]
	 Singles Energy            =      -0.0000000000000000 [Eh]
	 Same-Spin Energy          =      -0.2312636852403719 [Eh]
	 Opposite-Spin Energy      =      -0.7219365936406477 [Eh]
	 Correlation Energy        =      -0.9532002788810197 [Eh]
	 Total Energy              =    -209.7789344978191934 [Eh]

	 ================> DF-SCS-MP2 Energies <==================
	-----------------------------------------------------------
	 SCS Same-Spin Scale       =       0.3333333333333333 [-]
	 SCS Opposite-Spin Scale   =       1.2000000000000000 [-]
	 SCS Same-Spin Energy      =      -0.0770878950801240 [Eh]
	 SCS Opposite-Spin Energy  =      -0.8663239123687771 [Eh]
	 SCS Correlation Energy    =      -0.9434118074489011 [Eh]
	 SCS Total Energy          =    -209.7691460263870908 [Eh]
	-----------------------------------------------------------

  Dipole Moment: [D]
     X:    -2.2263      Y:     0.0254      Z:     0.0001     Total:     2.2264

*** Psi4 exiting successfully. Buy a developer a beer!
