                               Psi4 1.4a3.dev225

  ==> Input File <==

--------------------------------------------------------------------------
#psi4
#
memory 32 gb

molecule  {
0 1
  N       -1.1198630    -0.0000120     0.0000220
  C       -0.3338800     1.1258240    -0.0000040
  C       -0.3338570    -1.1258310     0.0000200
  C        0.9847800     0.7092440    -0.0000340
  C        0.9847950    -0.7092240    -0.0000090
  H       -2.1306720    -0.0000210     0.0000590
  H       -0.7911179     2.1603372    -0.0000176
  H       -0.7708590    -2.1146210     0.0000440
  H        1.8502120     1.3585970    -0.0000610
  H        1.8502400    -1.3585590    -0.0000200
units angstrom
no_reorient  #important for SAPT in psi4, default
symmetry c1  #important for SAPT in psi4, default
}

set PROPERTIES_ORIGIN ["COM"]
properties('MP2/aug-cc-pvtz', properties = ['dipole'])
--------------------------------------------------------------------------

    Molecular point group: c1
  Charge       = 0
  Multiplicity = 1
  Basis Set: AUG-CC-PVTZ
    Blend: AUG-CC-PVTZ
  Basis Set: (AUG-CC-PVTZ AUX)
    Blend: AUG-CC-PVTZ-JKFIT

    Orbital Energies [Eh]
    ---------------------

    Doubly Occupied:

       1A    -15.608614     2A    -11.259710     3A    -11.254304
       4A    -11.211797     5A    -11.210733     6A     -1.289768
       7A     -1.041034     8A     -0.973237     9A     -0.791256
      10A     -0.765184    11A     -0.728156    12A     -0.591010
      13A     -0.577075    14A     -0.566908    15A     -0.545291
      16A     -0.527238    17A     -0.347774    18A     -0.296865

  @DF-RHF Final Energy:  -208.88295984481888

   => Energetics <=

    Nuclear Repulsion Energy =            160.5233160543793076
    One-Electron Energy =                -599.6406474392701966
    Two-Electron Energy =                 230.2343715400720328
    Total Energy =                       -208.8829598448188847
  Basis Set: (AUG-CC-PVTZ AUX)
    Blend: AUG-CC-PVTZ-RI
    Molecular point group: c1

    Geometry (in Angstrom), charge = 0, multiplicity = 1:

       Center              X                  Y                   Z               Mass
    ------------   -----------------  -----------------  -----------------  -----------------
         N           -1.119093271307    -0.000699313773     0.000022171503    14.003074004430
         C           -0.333110271307     1.125136686227    -0.000003828497    12.000000000000
         C           -0.333087271307    -1.126518313773     0.000020171503    12.000000000000
         C            0.985549728693     0.708556686227    -0.000033828497    12.000000000000
         C            0.985564728693    -0.709911313773    -0.000008828497    12.000000000000
         H           -2.129902271307    -0.000708313773     0.000059171503     1.007825032230
         H           -0.790348171307     2.159649886227    -0.000017428497     1.007825032230
         H           -0.770089271307    -2.115308313773     0.000044171503     1.007825032230
         H            1.850981728693     1.357909686227    -0.000060828497     1.007825032230
         H            1.851009728693    -1.359246313773    -0.000019828497     1.007825032230

  Basis Set: AUG-CC-PVTZ
    Blend: AUG-CC-PVTZ
  Basis Set: (AUG-CC-PVTZ AUX)
    Blend: AUG-CC-PVTZ-JKFIT
	 Reference Energy          =    -208.8829598448188847 [Eh]
	 Singles Energy            =      -0.0000000000000000 [Eh]
	 Same-Spin Energy          =      -0.2304571752360668 [Eh]
	 Opposite-Spin Energy      =      -0.7234240299305581 [Eh]
	 Correlation Energy        =      -0.9538812051666249 [Eh]
	 Total Energy              =    -209.8368410499855088 [Eh]

	 ================> DF-SCS-MP2 Energies <==================
	-----------------------------------------------------------
	 SCS Same-Spin Scale       =       0.3333333333333333 [-]
	 SCS Opposite-Spin Scale   =       1.2000000000000000 [-]
	 SCS Same-Spin Energy      =      -0.0768190584120222 [Eh]
	 SCS Opposite-Spin Energy  =      -0.8681088359166697 [Eh]
	 SCS Correlation Energy    =      -0.9449278943286920 [Eh]
	 SCS Total Energy          =    -209.8278877391475703 [Eh]
	-----------------------------------------------------------

  Dipole Moment: [D]
     X:    -1.8680      Y:    -0.0056      Z:     0.0001     Total:     1.8680

*** Psi4 exiting successfully. Buy a developer a beer!
