                               Psi4 1.3.2 release

  ==> Input File <==

--------------------------------------------------------------------------
#psi4
#
memory 32 gb

molecule  {
0 1
  N       -1.1198630    -0.0000120     0.0000220
  C       -0.3338800     1.1258240    -0.0000040
  C       -0.3338570    -1.1258310     0.0000200
  C        0.9847800     0.7092440    -0.0000340
  C        0.9847929    -0.5092240    -0.0000125
  H       -2.1306720    -0.0000210     0.0000590
  H       -0.7709050     2.1146050    -0.0000170
  H       -0.7708590    -2.1146210     0.0000440
  H        1.8502120     1.3585970    -0.0000610
  H        1.8502400    -1.3585590    -0.0000200
units angstrom
no_reorient  #important for SAPT in psi4, default
symmetry c1  #important for SAPT in psi4, default
}

set PROPERTIES_ORIGIN ["COM"]
properties('MP2/aug-cc-pvtz', properties = ['dipole'])
--------------------------------------------------------------------------

    Molecular point group: c1
  Charge       = 0
  Multiplicity = 1
  Basis Set: AUG-CC-PVTZ
    Blend: AUG-CC-PVTZ
  Basis Set: (AUG-CC-PVTZ AUX)
    Blend: AUG-CC-PVTZ-JKFIT

    Orbital Energies [Eh]
    ---------------------

    Doubly Occupied:

       1A    -15.620741     2A    -11.252539     3A    -11.249855
       4A    -11.209500     5A    -11.192305     6A     -1.299594
       7A     -1.082429     8A     -0.961265     9A     -0.815871
      10A     -0.752090    11A     -0.727052    12A     -0.598539
      13A     -0.587509    14A     -0.574359    15A     -0.564811
      16A     -0.480128    17A     -0.382036    18A     -0.275401

  @DF-RHF Final Energy:  -208.81998368821849

   => Energetics <=

    Nuclear Repulsion Energy =            162.9557415411555610
    One-Electron Energy =                -604.2994007506380285
    Two-Electron Energy =                 232.5236755212639537
    Total Energy =                       -208.8199836882184854
  Basis Set: (AUG-CC-PVTZ AUX)
    Blend: AUG-CC-PVTZ-RI
    Molecular point group: c1

    Geometry (in Angstrom), charge = 0, multiplicity = 1:

       Center              X                  Y                   Z               Mass
    ------------   -----------------  -----------------  -----------------  -----------------
         N           -1.119396749816    -0.035810183843     0.000022788955    14.003074004430
         C           -0.333413749816     1.090025816157    -0.000003211045    12.000000000000
         C           -0.333390749816    -1.161629183843     0.000020788955    12.000000000000
         C            0.985246250184     0.673445816157    -0.000033211045    12.000000000000
         C            0.985259150184    -0.545022183843    -0.000011711045    12.000000000000
         H           -2.130205749816    -0.035819183843     0.000059788955     1.007825032230
         H           -0.770438749816     2.078806816157    -0.000016211045     1.007825032230
         H           -0.770392749816    -2.150419183843     0.000044788955     1.007825032230
         H            1.850678250184     1.322798816157    -0.000060211045     1.007825032230
         H            1.850706250184    -1.394357183843    -0.000019211045     1.007825032230

  Basis Set: AUG-CC-PVTZ
    Blend: AUG-CC-PVTZ
  Basis Set: (AUG-CC-PVTZ AUX)
    Blend: AUG-CC-PVTZ-JKFIT
	 Reference Energy          =    -208.8199836882184854 [Eh]
	 Singles Energy            =      -0.0000000000000000 [Eh]
	 Same-Spin Energy          =      -0.2342384421201237 [Eh]
	 Opposite-Spin Energy      =      -0.7283587866648277 [Eh]
	 Correlation Energy        =      -0.9625972287849514 [Eh]
	 Total Energy              =    -209.7825809170034290 [Eh]

	 ================> DF-SCS-MP2 Energies <==================
	-----------------------------------------------------------
	 SCS Same-Spin Scale       =       0.3333333333333333 [-]
	 SCS Opposite-Spin Scale   =       1.2000000000000000 [-]
	 SCS Same-Spin Energy      =      -0.0780794807067079 [Eh]
	 SCS Opposite-Spin Energy  =      -0.8740305439977932 [Eh]
	 SCS Correlation Energy    =      -0.9521100247045011 [Eh]
	 SCS Total Energy          =    -209.7720937129229810 [Eh]
	-----------------------------------------------------------

  Dipole Moment: [D]
     X:    -1.8694      Y:     0.0784      Z:     0.0001     Total:     1.8710

*** Psi4 exiting successfully. Buy a developer a beer!
