                               Psi4 1.3.2 release

  ==> Input File <==

--------------------------------------------------------------------------
#psi4
#
memory 32 gb

molecule  {
0 1
  N       -1.1198630    -0.0000120     0.0000220
  C       -0.3338800     1.1258240    -0.0000040
  C       -0.3338570    -1.1258310     0.0000200
  C        0.8894251     0.7393677    -0.0000318
  C        0.9847950    -0.7092240    -0.0000090
  H       -2.1306720    -0.0000210     0.0000590
  H       -0.7709050     2.1146050    -0.0000170
  H       -0.7708590    -2.1146210     0.0000440
  H        1.8502120     1.3585970    -0.0000610
  H        1.8502400    -1.3585590    -0.0000200
units angstrom
no_reorient  #important for SAPT in psi4, default
symmetry c1  #important for SAPT in psi4, default
}

set PROPERTIES_ORIGIN ["COM"]
properties('MP2/aug-cc-pvtz', properties = ['dipole'])
--------------------------------------------------------------------------

    Molecular point group: c1
  Charge       = 0
  Multiplicity = 1
  Basis Set: AUG-CC-PVTZ
    Blend: AUG-CC-PVTZ
  Basis Set: (AUG-CC-PVTZ AUX)
    Blend: AUG-CC-PVTZ-JKFIT

    Orbital Energies [Eh]
    ---------------------

    Doubly Occupied:

       1A    -15.599190     2A    -11.256556     3A    -11.240877
       4A    -11.210534     5A    -11.206060     6A     -1.292449
       7A     -1.041597     8A     -0.986431     9A     -0.784895
      10A     -0.760201    11A     -0.737311    12A     -0.590150
      13A     -0.579096    14A     -0.570539    15A     -0.560467
      16A     -0.504286    17A     -0.346516    18A     -0.309218

  @DF-RHF Final Energy:  -208.87451229910448

   => Energetics <=

    Nuclear Repulsion Energy =            161.8967976594973663
    One-Electron Energy =                -602.3898724987208197
    Two-Electron Energy =                 231.6185625401190009
    Total Energy =                       -208.8745122991044809
  Basis Set: (AUG-CC-PVTZ AUX)
    Blend: AUG-CC-PVTZ-RI
    Molecular point group: c1

    Geometry (in Angstrom), charge = 0, multiplicity = 1:

       Center              X                  Y                   Z               Mass
    ------------   -----------------  -----------------  -----------------  -----------------
         N           -1.102329386062    -0.005403729022     0.000021768702    14.003074004430
         C           -0.316346386062     1.120432270978    -0.000004231298    12.000000000000
         C           -0.316323386062    -1.131222729022     0.000019768702    12.000000000000
         C            0.906958713938     0.733975970978    -0.000032031298    12.000000000000
         C            1.002328613938    -0.714615729022    -0.000009231298    12.000000000000
         H           -2.113138386062    -0.005412729022     0.000058768702     1.007825032230
         H           -0.753371386062     2.109213270978    -0.000017231298     1.007825032230
         H           -0.753325386062    -2.120012729022     0.000043768702     1.007825032230
         H            1.867745613938     1.353205270978    -0.000061231298     1.007825032230
         H            1.867773613938    -1.363950729022    -0.000020231298     1.007825032230

  Basis Set: AUG-CC-PVTZ
    Blend: AUG-CC-PVTZ
  Basis Set: (AUG-CC-PVTZ AUX)
    Blend: AUG-CC-PVTZ-JKFIT
	 Reference Energy          =    -208.8745122991044809 [Eh]
	 Singles Energy            =      -0.0000000000000000 [Eh]
	 Same-Spin Energy          =      -0.2291427960460967 [Eh]
	 Opposite-Spin Energy      =      -0.7212566145897525 [Eh]
	 Correlation Energy        =      -0.9503994106358492 [Eh]
	 Total Energy              =    -209.8249117097403200 [Eh]

	 ================> DF-SCS-MP2 Energies <==================
	-----------------------------------------------------------
	 SCS Same-Spin Scale       =       0.3333333333333333 [-]
	 SCS Opposite-Spin Scale   =       1.2000000000000000 [-]
	 SCS Same-Spin Energy      =      -0.0763809320153656 [Eh]
	 SCS Opposite-Spin Energy  =      -0.8655079375077031 [Eh]
	 SCS Correlation Energy    =      -0.9418888695230686 [Eh]
	 SCS Total Energy          =    -209.8164011686275501 [Eh]
	-----------------------------------------------------------

  Dipole Moment: [D]
     X:    -1.8153      Y:     0.0211      Z:     0.0001     Total:     1.8154

*** Psi4 exiting successfully. Buy a developer a beer!
