                               Psi4 1.4a3.dev225

  ==> Input File <==

--------------------------------------------------------------------------
#psi4
#
memory 32 gb

molecule  {
0 1
  N       -1.1198630    -0.0000120     0.0000220
  C       -0.3625017     1.0848265    -0.0000031
  C       -0.3338570    -1.1258310     0.0000200
  C        0.9847800     0.7092440    -0.0000340
  C        0.9847950    -0.7092240    -0.0000090
  H       -2.1306720    -0.0000210     0.0000590
  H       -0.7709050     2.1146050    -0.0000170
  H       -0.7708590    -2.1146210     0.0000440
  H        1.8502120     1.3585970    -0.0000610
  H        1.8502400    -1.3585590    -0.0000200
units angstrom
no_reorient  #important for SAPT in psi4, default
symmetry c1  #important for SAPT in psi4, default
}

set PROPERTIES_ORIGIN ["COM"]
properties('MP2/aug-cc-pvtz', properties = ['dipole'])
--------------------------------------------------------------------------

    Molecular point group: c1
  Charge       = 0
  Multiplicity = 1
  Basis Set: AUG-CC-PVTZ
    Blend: AUG-CC-PVTZ
  Basis Set: (AUG-CC-PVTZ AUX)
    Blend: AUG-CC-PVTZ-JKFIT

    Orbital Energies [Eh]
    ---------------------

    Doubly Occupied:

       1A    -15.611672     2A    -11.255130     3A    -11.249861
       4A    -11.211907     5A    -11.208411     6A     -1.305326
       7A     -1.042294     8A     -0.974660     9A     -0.795268
      10A     -0.769475    11A     -0.732232    12A     -0.598783
      13A     -0.579846    14A     -0.575817    15A     -0.543881
      16A     -0.520816    17A     -0.348526    18A     -0.293274

  @DF-RHF Final Energy:  -208.88285922008544

   => Energetics <=

    Nuclear Repulsion Energy =            161.3797560658650809
    One-Electron Energy =                -601.2908713924524591
    Two-Electron Energy =                 231.0282561065019422
    Total Energy =                       -208.8828592200854359
  Basis Set: (AUG-CC-PVTZ AUX)
    Blend: AUG-CC-PVTZ-RI
    Molecular point group: c1

    Geometry (in Angstrom), charge = 0, multiplicity = 1:

       Center              X                  Y                   Z               Mass
    ------------   -----------------  -----------------  -----------------  -----------------
         N           -1.114274077763     0.007326378442     0.000022001391    14.003074004430
         C           -0.356912777763     1.092164878442    -0.000003098609    12.000000000000
         C           -0.328268077763    -1.118492621558     0.000020001391    12.000000000000
         C            0.990368922237     0.716582378442    -0.000033998609    12.000000000000
         C            0.990383922237    -0.701885621558    -0.000008998609    12.000000000000
         H           -2.125083077763     0.007317378442     0.000059001391     1.007825032230
         H           -0.765316077763     2.121943378442    -0.000016998609     1.007825032230
         H           -0.765270077763    -2.107282621558     0.000044001391     1.007825032230
         H            1.855800922237     1.365935378442    -0.000060998609     1.007825032230
         H            1.855828922237    -1.351220621558    -0.000019998609     1.007825032230

  Basis Set: AUG-CC-PVTZ
    Blend: AUG-CC-PVTZ
  Basis Set: (AUG-CC-PVTZ AUX)
    Blend: AUG-CC-PVTZ-JKFIT
	 Reference Energy          =    -208.8828592200854359 [Eh]
	 Singles Energy            =      -0.0000000000000000 [Eh]
	 Same-Spin Energy          =      -0.2306181476452974 [Eh]
	 Opposite-Spin Energy      =      -0.7226573513701249 [Eh]
	 Correlation Energy        =      -0.9532754990154223 [Eh]
	 Total Energy              =    -209.8361347191008690 [Eh]

	 ================> DF-SCS-MP2 Energies <==================
	-----------------------------------------------------------
	 SCS Same-Spin Scale       =       0.3333333333333333 [-]
	 SCS Opposite-Spin Scale   =       1.2000000000000000 [-]
	 SCS Same-Spin Energy      =      -0.0768727158817658 [Eh]
	 SCS Opposite-Spin Energy  =      -0.8671888216441498 [Eh]
	 SCS Correlation Energy    =      -0.9440615375259156 [Eh]
	 SCS Total Energy          =    -209.8269207576113615 [Eh]
	-----------------------------------------------------------

  Dipole Moment: [D]
     X:    -1.9513      Y:    -0.0039      Z:     0.0001     Total:     1.9513

*** Psi4 exiting successfully. Buy a developer a beer!
