                               Psi4 1.4a3.dev225

  ==> Input File <==

--------------------------------------------------------------------------
#psi4
#
memory 32 gb

molecule  {
0 1
  N       -1.1198630    -0.0000120     0.0000220
  C       -0.3338800     1.1258240    -0.0000040
  C       -0.3338570    -1.1258310     0.0000200
  C        0.9847800     0.7092440    -0.0000340
  C        0.9847950    -0.7092240    -0.0000090
  H       -2.1306720    -0.0000210     0.0000590
  H       -0.7506921     2.0688728    -0.0000164
  H       -0.7708590    -2.1146210     0.0000440
  H        1.8502120     1.3585970    -0.0000610
  H        1.8502400    -1.3585590    -0.0000200
units angstrom
no_reorient  #important for SAPT in psi4, default
symmetry c1  #important for SAPT in psi4, default
}

set PROPERTIES_ORIGIN ["COM"]
properties('MP2/aug-cc-pvtz', properties = ['dipole'])
--------------------------------------------------------------------------

    Molecular point group: c1
  Charge       = 0
  Multiplicity = 1
  Basis Set: AUG-CC-PVTZ
    Blend: AUG-CC-PVTZ
  Basis Set: (AUG-CC-PVTZ AUX)
    Blend: AUG-CC-PVTZ-JKFIT

    Orbital Energies [Eh]
    ---------------------

    Doubly Occupied:

       1A    -15.607820     2A    -11.253964     3A    -11.248320
       4A    -11.211168     5A    -11.210104     6A     -1.289352
       7A     -1.040428     8A     -0.977831     9A     -0.792754
      10A     -0.766706    11A     -0.741336    12A     -0.590796
      13A     -0.587631    14A     -0.566283    15A     -0.545457
      16A     -0.530210    17A     -0.347224    18A     -0.296592

  @DF-RHF Final Energy:  -208.88461540462799

   => Energetics <=

    Nuclear Repulsion Energy =            160.9903347994872149
    One-Electron Energy =                -600.5419460540501859
    Two-Electron Energy =                 230.6669958499350059
    Total Energy =                       -208.8846154046279935
  Basis Set: (AUG-CC-PVTZ AUX)
    Blend: AUG-CC-PVTZ-RI
    Molecular point group: c1

    Geometry (in Angstrom), charge = 0, multiplicity = 1:

       Center              X                  Y                   Z               Mass
    ------------   -----------------  -----------------  -----------------  -----------------
         N           -1.119700980089     0.000675642792     0.000022153464    14.003074004430
         C           -0.333717980089     1.126511642792    -0.000003846536    12.000000000000
         C           -0.333694980089    -1.125143357208     0.000020153464    12.000000000000
         C            0.984942019911     0.709931642792    -0.000033846536    12.000000000000
         C            0.984957019911    -0.708536357208    -0.000008846536    12.000000000000
         H           -2.130509980089     0.000666642792     0.000059153464     1.007825032230
         H           -0.750530080089     2.069560442792    -0.000016246536     1.007825032230
         H           -0.770696980089    -2.113933357208     0.000044153464     1.007825032230
         H            1.850374019911     1.359284642792    -0.000060846536     1.007825032230
         H            1.850402019911    -1.357871357208    -0.000019846536     1.007825032230

  Basis Set: AUG-CC-PVTZ
    Blend: AUG-CC-PVTZ
  Basis Set: (AUG-CC-PVTZ AUX)
    Blend: AUG-CC-PVTZ-JKFIT
	 Reference Energy          =    -208.8846154046279935 [Eh]
	 Singles Energy            =      -0.0000000000000000 [Eh]
	 Same-Spin Energy          =      -0.2302805232333083 [Eh]
	 Opposite-Spin Energy      =      -0.7227279544075056 [Eh]
	 Correlation Energy        =      -0.9530084776408139 [Eh]
	 Total Energy              =    -209.8376238822688151 [Eh]

	 ================> DF-SCS-MP2 Energies <==================
	-----------------------------------------------------------
	 SCS Same-Spin Scale       =       0.3333333333333333 [-]
	 SCS Opposite-Spin Scale   =       1.2000000000000000 [-]
	 SCS Same-Spin Energy      =      -0.0767601744111027 [Eh]
	 SCS Opposite-Spin Energy  =      -0.8672735452890067 [Eh]
	 SCS Correlation Energy    =      -0.9440337197001094 [Eh]
	 SCS Total Energy          =    -209.8286491243281091 [Eh]
	-----------------------------------------------------------

  Dipole Moment: [D]
     X:    -1.8736      Y:     0.0028      Z:     0.0001     Total:     1.8736

*** Psi4 exiting successfully. Buy a developer a beer!
