                               Psi4 1.3.2 release

  ==> Input File <==

--------------------------------------------------------------------------
#psi4
#
memory 32 gb

molecule  {
0 1
  N       -1.1198630    -0.0000120     0.0000220
  C       -0.3185383     1.1715908    -0.0000052
  C       -0.3338570    -1.1258310     0.0000200
  C        0.9847800     0.7092440    -0.0000340
  C        0.9847950    -0.7092240    -0.0000090
  H       -2.1306720    -0.0000210     0.0000590
  H       -0.7709050     2.1146050    -0.0000170
  H       -0.7708590    -2.1146210     0.0000440
  H        1.8502120     1.3585970    -0.0000610
  H        1.8502400    -1.3585590    -0.0000200
units angstrom
no_reorient  #important for SAPT in psi4, default
symmetry c1  #important for SAPT in psi4, default
}

set PROPERTIES_ORIGIN ["COM"]
properties('MP2/aug-cc-pvtz', properties = ['dipole'])
--------------------------------------------------------------------------

    Molecular point group: c1
  Charge       = 0
  Multiplicity = 1
  Basis Set: AUG-CC-PVTZ
    Blend: AUG-CC-PVTZ
  Basis Set: (AUG-CC-PVTZ AUX)
    Blend: AUG-CC-PVTZ-JKFIT

    Orbital Energies [Eh]
    ---------------------

    Doubly Occupied:

       1A    -15.605805     2A    -11.258060     3A    -11.254201
       4A    -11.215053     5A    -11.210545     6A     -1.276416
       7A     -1.038414     8A     -0.975801     9A     -0.790706
      10A     -0.763439    11A     -0.736878    12A     -0.593046
      13A     -0.578296    14A     -0.558627    15A     -0.544126
      16A     -0.534865    17A     -0.346892    18A     -0.298022

  @DF-RHF Final Energy:  -208.88164642884320

   => Energetics <=

    Nuclear Repulsion Energy =            160.0111444486601044
    One-Electron Energy =                -598.6271945403796053
    Two-Electron Energy =                 229.7344036628763035
    Total Energy =                       -208.8816464288431973
  Basis Set: (AUG-CC-PVTZ AUX)
    Blend: AUG-CC-PVTZ-RI
    Molecular point group: c1

    Geometry (in Angstrom), charge = 0, multiplicity = 1:

       Center              X                  Y                   Z               Mass
    ------------   -----------------  -----------------  -----------------  -----------------
         N           -1.122143163303    -0.008203714737     0.000022377274    14.003074004430
         C           -0.320818463303     1.163399085263    -0.000004822726    12.000000000000
         C           -0.336137163303    -1.134022714737     0.000020377274    12.000000000000
         C            0.982499836697     0.701052285263    -0.000033622726    12.000000000000
         C            0.982514836697    -0.717415714737    -0.000008622726    12.000000000000
         H           -2.132952163303    -0.008212714737     0.000059377274     1.007825032230
         H           -0.773185163303     2.106413285263    -0.000016622726     1.007825032230
         H           -0.773139163303    -2.122812714737     0.000044377274     1.007825032230
         H            1.847931836697     1.350405285263    -0.000060622726     1.007825032230
         H            1.847959836697    -1.366750714737    -0.000019622726     1.007825032230

  Basis Set: AUG-CC-PVTZ
    Blend: AUG-CC-PVTZ
  Basis Set: (AUG-CC-PVTZ AUX)
    Blend: AUG-CC-PVTZ-JKFIT
	 Reference Energy          =    -208.8816464288431973 [Eh]
	 Singles Energy            =      -0.0000000000000000 [Eh]
	 Same-Spin Energy          =      -0.2303181672159882 [Eh]
	 Opposite-Spin Energy      =      -0.7237859190481574 [Eh]
	 Correlation Energy        =      -0.9541040862641456 [Eh]
	 Total Energy              =    -209.8357505151073497 [Eh]

	 ================> DF-SCS-MP2 Energies <==================
	-----------------------------------------------------------
	 SCS Same-Spin Scale       =       0.3333333333333333 [-]
	 SCS Opposite-Spin Scale   =       1.2000000000000000 [-]
	 SCS Same-Spin Energy      =      -0.0767727224053294 [Eh]
	 SCS Opposite-Spin Energy  =      -0.8685431028577888 [Eh]
	 SCS Correlation Energy    =      -0.9453158252631182 [Eh]
	 SCS Total Energy          =    -209.8269622541063200 [Eh]
	-----------------------------------------------------------

  Dipole Moment: [D]
     X:    -1.8080      Y:    -0.0061      Z:     0.0001     Total:     1.8080

*** Psi4 exiting successfully. Buy a developer a beer!
