                               Psi4 1.3.2 release

  ==> Input File <==

--------------------------------------------------------------------------
#psi4
#
memory 32 gb

molecule  {
0 1
  N       -1.1198630    -0.0000120     0.0000220
  C       -0.2572603     1.0682541    -0.0000069
  C       -0.3338570    -1.1258310     0.0000200
  C        0.9847800     0.7092440    -0.0000340
  C        0.9847950    -0.7092240    -0.0000090
  H       -2.1306720    -0.0000210     0.0000590
  H       -0.7709050     2.1146050    -0.0000170
  H       -0.7708590    -2.1146210     0.0000440
  H        1.8502120     1.3585970    -0.0000610
  H        1.8502400    -1.3585590    -0.0000200
units angstrom
no_reorient  #important for SAPT in psi4, default
symmetry c1  #important for SAPT in psi4, default
}

set PROPERTIES_ORIGIN ["COM"]
properties('MP2/aug-cc-pvtz', properties = ['dipole'])
--------------------------------------------------------------------------

    Molecular point group: c1
  Charge       = 0
  Multiplicity = 1
  Basis Set: AUG-CC-PVTZ
    Blend: AUG-CC-PVTZ
  Basis Set: (AUG-CC-PVTZ AUX)
    Blend: AUG-CC-PVTZ-JKFIT

    Orbital Energies [Eh]
    ---------------------

    Doubly Occupied:

       1A    -15.601743     2A    -11.253237     3A    -11.250792
       4A    -11.208892     5A    -11.200116     6A     -1.293560
       7A     -1.054546     8A     -0.974823     9A     -0.791644
      10A     -0.769838    11A     -0.721830    12A     -0.605853
      13A     -0.571436    14A     -0.561755    15A     -0.550889
      16A     -0.517998    17A     -0.354397    18A     -0.303012

  @DF-RHF Final Energy:  -208.87383568329230

   => Energetics <=

    Nuclear Repulsion Energy =            162.1302087052251011
    One-Electron Energy =                -602.8353701737833035
    Two-Electron Energy =                 231.8313257852659319
    Total Energy =                       -208.8738356832922989
  Basis Set: (AUG-CC-PVTZ AUX)
    Blend: AUG-CC-PVTZ-RI
    Molecular point group: c1

    Geometry (in Angstrom), charge = 0, multiplicity = 1:

       Center              X                  Y                   Z               Mass
    ------------   -----------------  -----------------  -----------------  -----------------
         N           -1.133111419254     0.010292701183     0.000022681559    14.003074004430
         C           -0.270508719254     1.078558801183    -0.000006218441    12.000000000000
         C           -0.347105419254    -1.115526298817     0.000020681559    12.000000000000
         C            0.971531580746     0.719548701183    -0.000033318441    12.000000000000
         C            0.971546580746    -0.698919298817    -0.000008318441    12.000000000000
         H           -2.143920419254     0.010283701183     0.000059681559     1.007825032230
         H           -0.784153419254     2.124909701183    -0.000016318441     1.007825032230
         H           -0.784107419254    -2.104316298817     0.000044681559     1.007825032230
         H            1.836963580746     1.368901701183    -0.000060318441     1.007825032230
         H            1.836991580746    -1.348254298817    -0.000019318441     1.007825032230

  Basis Set: AUG-CC-PVTZ
    Blend: AUG-CC-PVTZ
  Basis Set: (AUG-CC-PVTZ AUX)
    Blend: AUG-CC-PVTZ-JKFIT
	 Reference Energy          =    -208.8738356832922989 [Eh]
	 Singles Energy            =      -0.0000000000000000 [Eh]
	 Same-Spin Energy          =      -0.2295308114637485 [Eh]
	 Opposite-Spin Energy      =      -0.7217502485149558 [Eh]
	 Correlation Energy        =      -0.9512810599787043 [Eh]
	 Total Energy              =    -209.8251167432709963 [Eh]

	 ================> DF-SCS-MP2 Energies <==================
	-----------------------------------------------------------
	 SCS Same-Spin Scale       =       0.3333333333333333 [-]
	 SCS Opposite-Spin Scale   =       1.2000000000000000 [-]
	 SCS Same-Spin Energy      =      -0.0765102704879162 [Eh]
	 SCS Opposite-Spin Energy  =      -0.8661002982179470 [Eh]
	 SCS Correlation Energy    =      -0.9426105687058631 [Eh]
	 SCS Total Energy          =    -209.8164462519981726 [Eh]
	-----------------------------------------------------------

  Dipole Moment: [D]
     X:    -1.7885      Y:     0.0500      Z:     0.0001     Total:     1.7892

*** Psi4 exiting successfully. Buy a developer a beer!
