                               Psi4 1.3.2 release

  ==> Input File <==

--------------------------------------------------------------------------
#psi4
#
memory 32 gb

molecule  {
0 1
  N       -1.1198630    -0.0000120     0.0000220
  C       -0.3338800     1.1258240    -0.0000040
  C       -0.3338570    -1.1258310     0.0000200
  C        0.9918495     0.7323212    -0.0000348
  C        0.9847950    -0.7092240    -0.0000090
  H       -2.1306720    -0.0000210     0.0000590
  H       -0.7709050     2.1146050    -0.0000170
  H       -0.7708590    -2.1146210     0.0000440
  H        1.8502120     1.3585970    -0.0000610
  H        1.8502400    -1.3585590    -0.0000200
units angstrom
no_reorient  #important for SAPT in psi4, default
symmetry c1  #important for SAPT in psi4, default
}

set PROPERTIES_ORIGIN ["COM"]
properties('MP2/aug-cc-pvtz', properties = ['dipole'])
--------------------------------------------------------------------------

    Molecular point group: c1
  Charge       = 0
  Multiplicity = 1
  Basis Set: AUG-CC-PVTZ
    Blend: AUG-CC-PVTZ
  Basis Set: (AUG-CC-PVTZ AUX)
    Blend: AUG-CC-PVTZ-JKFIT

    Orbital Energies [Eh]
    ---------------------

    Doubly Occupied:

       1A    -15.607694     2A    -11.255447     3A    -11.254568
       4A    -11.213035     5A    -11.211382     6A     -1.288464
       7A     -1.037256     8A     -0.975972     9A     -0.790825
      10A     -0.768006    11A     -0.734264    12A     -0.592858
      13A     -0.582494    14A     -0.565785    15A     -0.550716
      16A     -0.522830    17A     -0.344757    18A     -0.298306

  @DF-RHF Final Energy:  -208.88510552221237

   => Energetics <=

    Nuclear Repulsion Energy =            160.4231427233212628
    One-Electron Energy =                -599.4271761452221199
    Two-Electron Energy =                 230.1189278996885150
    Total Energy =                       -208.8851055222123705
  Basis Set: (AUG-CC-PVTZ AUX)
    Blend: AUG-CC-PVTZ-RI
    Molecular point group: c1

    Geometry (in Angstrom), charge = 0, multiplicity = 1:

       Center              X                  Y                   Z               Mass
    ------------   -----------------  -----------------  -----------------  -----------------
         N           -1.120662507817    -0.004142463714     0.000022305677    14.003074004430
         C           -0.334679507817     1.121693536286    -0.000003694323    12.000000000000
         C           -0.334656507817    -1.129961463714     0.000020305677    12.000000000000
         C            0.991049992183     0.728190736286    -0.000034494323    12.000000000000
         C            0.983995492183    -0.713354463714    -0.000008694323    12.000000000000
         H           -2.131471507817    -0.004151463714     0.000059305677     1.007825032230
         H           -0.771704507817     2.110474536286    -0.000016694323     1.007825032230
         H           -0.771658507817    -2.118751463714     0.000044305677     1.007825032230
         H            1.849412492183     1.354466536286    -0.000060694323     1.007825032230
         H            1.849440492183    -1.362689463714    -0.000019694323     1.007825032230

  Basis Set: AUG-CC-PVTZ
    Blend: AUG-CC-PVTZ
  Basis Set: (AUG-CC-PVTZ AUX)
    Blend: AUG-CC-PVTZ-JKFIT
	 Reference Energy          =    -208.8851055222123705 [Eh]
	 Singles Energy            =      -0.0000000000000000 [Eh]
	 Same-Spin Energy          =      -0.2300640054301556 [Eh]
	 Opposite-Spin Energy      =      -0.7228753663926508 [Eh]
	 Correlation Energy        =      -0.9529393718228065 [Eh]
	 Total Energy              =    -209.8380448940351641 [Eh]

	 ================> DF-SCS-MP2 Energies <==================
	-----------------------------------------------------------
	 SCS Same-Spin Scale       =       0.3333333333333333 [-]
	 SCS Opposite-Spin Scale   =       1.2000000000000000 [-]
	 SCS Same-Spin Energy      =      -0.0766880018100519 [Eh]
	 SCS Opposite-Spin Energy  =      -0.8674504396711810 [Eh]
	 SCS Correlation Energy    =      -0.9441384414812328 [Eh]
	 SCS Total Energy          =    -209.8292439636936138 [Eh]
	-----------------------------------------------------------

  Dipole Moment: [D]
     X:    -1.8746      Y:    -0.0003      Z:     0.0001     Total:     1.8746

*** Psi4 exiting successfully. Buy a developer a beer!
