                               Psi4 1.3.2 release

  ==> Input File <==

--------------------------------------------------------------------------
#psi4
#
memory 32 gb

molecule  {
0 1
  N       -1.1198630    -0.0000120     0.0000220
  C       -0.3338800     1.1258240    -0.0000040
  C       -0.3338570    -1.1258310     0.0000200
  C        0.9847800     0.7092440    -0.0000340
  C        0.9847971    -0.9092240    -0.0000055
  H       -2.1306720    -0.0000210     0.0000590
  H       -0.7709050     2.1146050    -0.0000170
  H       -0.7708590    -2.1146210     0.0000440
  H        1.8502120     1.3585970    -0.0000610
  H        1.8502400    -1.3585590    -0.0000200
units angstrom
no_reorient  #important for SAPT in psi4, default
symmetry c1  #important for SAPT in psi4, default
}

set PROPERTIES_ORIGIN ["COM"]
properties('MP2/aug-cc-pvtz', properties = ['dipole'])
--------------------------------------------------------------------------

    Molecular point group: c1
  Charge       = 0
  Multiplicity = 1
  Basis Set: AUG-CC-PVTZ
    Blend: AUG-CC-PVTZ
  Basis Set: (AUG-CC-PVTZ AUX)
    Blend: AUG-CC-PVTZ-JKFIT

    Orbital Energies [Eh]
    ---------------------

    Doubly Occupied:

       1A    -15.601572     2A    -11.259840     3A    -11.258823
       4A    -11.222337     5A    -11.215108     6A     -1.283803
       7A     -1.023905     8A     -0.983120     9A     -0.796309
      10A     -0.771146    11A     -0.731787    12A     -0.625965
      13A     -0.581520    14A     -0.564873    15A     -0.563620
      16A     -0.468681    17A     -0.334248    18A     -0.311885

  @DF-RHF Final Energy:  -208.85073696610192

   => Energetics <=

    Nuclear Repulsion Energy =            158.9120447592858909
    One-Electron Energy =                -596.3284794954006429
    Two-Electron Energy =                 228.5656977700128323
    Total Energy =                       -208.8507369661019197
  Basis Set: (AUG-CC-PVTZ AUX)
    Blend: AUG-CC-PVTZ-RI
    Molecular point group: c1

    Geometry (in Angstrom), charge = 0, multiplicity = 1:

       Center              X                  Y                   Z               Mass
    ------------   -----------------  -----------------  -----------------  -----------------
         N           -1.119397501581     0.035786512861     0.000021536012    14.003074004430
         C           -0.333414501581     1.161622512861    -0.000004463988    12.000000000000
         C           -0.333391501581    -1.090032487139     0.000019536012    12.000000000000
         C            0.985245498419     0.745042512861    -0.000034463988    12.000000000000
         C            0.985262598419    -0.873425487139    -0.000005963988    12.000000000000
         H           -2.130206501581     0.035777512861     0.000058536012     1.007825032230
         H           -0.770439501581     2.150403512861    -0.000017463988     1.007825032230
         H           -0.770393501581    -2.078822487139     0.000043536012     1.007825032230
         H            1.850677498419     1.394395512861    -0.000061463988     1.007825032230
         H            1.850705498419    -1.322760487139    -0.000020463988     1.007825032230

  Basis Set: AUG-CC-PVTZ
    Blend: AUG-CC-PVTZ
  Basis Set: (AUG-CC-PVTZ AUX)
    Blend: AUG-CC-PVTZ-JKFIT
	 Reference Energy          =    -208.8507369661019197 [Eh]
	 Singles Energy            =      -0.0000000000000000 [Eh]
	 Same-Spin Energy          =      -0.2282340384639512 [Eh]
	 Opposite-Spin Energy      =      -0.7229288187091525 [Eh]
	 Correlation Energy        =      -0.9511628571731037 [Eh]
	 Total Energy              =    -209.8018998232750221 [Eh]

	 ================> DF-SCS-MP2 Energies <==================
	-----------------------------------------------------------
	 SCS Same-Spin Scale       =       0.3333333333333333 [-]
	 SCS Opposite-Spin Scale   =       1.2000000000000000 [-]
	 SCS Same-Spin Energy      =      -0.0760780128213171 [Eh]
	 SCS Opposite-Spin Energy  =      -0.8675145824509830 [Eh]
	 SCS Correlation Energy    =      -0.9435925952723001 [Eh]
	 SCS Total Energy          =    -209.7943295613742123 [Eh]
	-----------------------------------------------------------

  Dipole Moment: [D]
     X:    -1.8554      Y:     0.0180      Z:     0.0001     Total:     1.8555

*** Psi4 exiting successfully. Buy a developer a beer!
