                               Psi4 1.3.2 release

  ==> Input File <==

--------------------------------------------------------------------------
#psi4
#
memory 32 gb

molecule  {
0 1
  N       -1.1198630    -0.0000120     0.0000220
  C       -0.3702007     0.9857044    -0.0000005
  C       -0.3338570    -1.1258310     0.0000200
  C        0.9847800     0.7092440    -0.0000340
  C        0.9847950    -0.7092240    -0.0000090
  H       -2.1306720    -0.0000210     0.0000590
  H       -0.7709050     2.1146050    -0.0000170
  H       -0.7708590    -2.1146210     0.0000440
  H        1.8502120     1.3585970    -0.0000610
  H        1.8502400    -1.3585590    -0.0000200
units angstrom
no_reorient  #important for SAPT in psi4, default
symmetry c1  #important for SAPT in psi4, default
}

set PROPERTIES_ORIGIN ["COM"]
properties('MP2/aug-cc-pvtz', properties = ['dipole'])
--------------------------------------------------------------------------

    Molecular point group: c1
  Charge       = 0
  Multiplicity = 1
  Basis Set: AUG-CC-PVTZ
    Blend: AUG-CC-PVTZ
  Basis Set: (AUG-CC-PVTZ AUX)
    Blend: AUG-CC-PVTZ-JKFIT

    Orbital Energies [Eh]
    ---------------------

    Doubly Occupied:

       1A    -15.613865     2A    -11.256673     3A    -11.242485
       4A    -11.212912     5A    -11.200778     6A     -1.339708
       7A     -1.051793     8A     -0.974106     9A     -0.807743
      10A     -0.779601    11A     -0.719272    12A     -0.617287
      13A     -0.597339    14A     -0.568985    15A     -0.542392
      16A     -0.497707    17A     -0.353495    18A     -0.290816

  @DF-RHF Final Energy:  -208.85742901246766

   => Energetics <=

    Nuclear Repulsion Energy =            163.2404031433738680
    One-Electron Energy =                -604.8617518072881012
    Two-Electron Energy =                 232.7639196514465425
    Total Energy =                       -208.8574290124676622
  Basis Set: (AUG-CC-PVTZ AUX)
    Blend: AUG-CC-PVTZ-RI
    Molecular point group: c1

    Geometry (in Angstrom), charge = 0, multiplicity = 1:

       Center              X                  Y                   Z               Mass
    ------------   -----------------  -----------------  -----------------  -----------------
         N           -1.112896020343     0.025068415768     0.000021536012    14.003074004430
         C           -0.363233720343     1.010784815768    -0.000000963988    12.000000000000
         C           -0.326890020343    -1.100750584232     0.000019536012    12.000000000000
         C            0.991746979657     0.734324415768    -0.000034463988    12.000000000000
         C            0.991761979657    -0.684143584232    -0.000009463988    12.000000000000
         H           -2.123705020343     0.025059415768     0.000058536012     1.007825032230
         H           -0.763938020343     2.139685415768    -0.000017463988     1.007825032230
         H           -0.763892020343    -2.089540584232     0.000043536012     1.007825032230
         H            1.857178979657     1.383677415768    -0.000061463988     1.007825032230
         H            1.857206979657    -1.333478584232    -0.000020463988     1.007825032230

  Basis Set: AUG-CC-PVTZ
    Blend: AUG-CC-PVTZ
  Basis Set: (AUG-CC-PVTZ AUX)
    Blend: AUG-CC-PVTZ-JKFIT
	 Reference Energy          =    -208.8574290124676622 [Eh]
	 Singles Energy            =      -0.0000000000000000 [Eh]
	 Same-Spin Energy          =      -0.2307304016024288 [Eh]
	 Opposite-Spin Energy      =      -0.7217545276900478 [Eh]
	 Correlation Energy        =      -0.9524849292924766 [Eh]
	 Total Energy              =    -209.8099139417601293 [Eh]

	 ================> DF-SCS-MP2 Energies <==================
	-----------------------------------------------------------
	 SCS Same-Spin Scale       =       0.3333333333333333 [-]
	 SCS Opposite-Spin Scale   =       1.2000000000000000 [-]
	 SCS Same-Spin Energy      =      -0.0769101338674763 [Eh]
	 SCS Opposite-Spin Energy  =      -0.8661054332280573 [Eh]
	 SCS Correlation Energy    =      -0.9430155670955336 [Eh]
	 SCS Total Energy          =    -209.8004445795631909 [Eh]
	-----------------------------------------------------------

  Dipole Moment: [D]
     X:    -2.0569      Y:    -0.0020      Z:     0.0001     Total:     2.0569

*** Psi4 exiting successfully. Buy a developer a beer!
