                               Psi4 1.3.2 release

  ==> Input File <==

--------------------------------------------------------------------------
#psi4
#
memory 32 gb

molecule  {
0 1
  N       -1.1964827     0.0575579     0.0000217
  C       -0.3338800     1.1258240    -0.0000040
  C       -0.3338570    -1.1258310     0.0000200
  C        0.9847800     0.7092440    -0.0000340
  C        0.9847950    -0.7092240    -0.0000090
  H       -2.1306720    -0.0000210     0.0000590
  H       -0.7709050     2.1146050    -0.0000170
  H       -0.7708590    -2.1146210     0.0000440
  H        1.8502120     1.3585970    -0.0000610
  H        1.8502400    -1.3585590    -0.0000200
units angstrom
no_reorient  #important for SAPT in psi4, default
symmetry c1  #important for SAPT in psi4, default
}

set PROPERTIES_ORIGIN ["COM"]
properties('MP2/aug-cc-pvtz', properties = ['dipole'])
--------------------------------------------------------------------------

    Molecular point group: c1
  Charge       = 0
  Multiplicity = 1
  Basis Set: AUG-CC-PVTZ
    Blend: AUG-CC-PVTZ
  Basis Set: (AUG-CC-PVTZ AUX)
    Blend: AUG-CC-PVTZ-JKFIT

    Orbital Energies [Eh]
    ---------------------

    Doubly Occupied:

       1A    -15.600580     2A    -11.262072     3A    -11.260214
       4A    -11.220099     5A    -11.212429     6A     -1.272504
       7A     -1.053367     8A     -0.965953     9A     -0.812458
      10A     -0.759882    11A     -0.729539    12A     -0.611120
      13A     -0.558013    14A     -0.554148    15A     -0.550139
      16A     -0.531571    17A     -0.354642    18A     -0.295615

  @DF-RHF Final Energy:  -208.87232948877465

   => Energetics <=

    Nuclear Repulsion Energy =            159.3256846579116086
    One-Electron Energy =                -597.1873376520354668
    Two-Electron Energy =                 228.9893235053492049
    Total Energy =                       -208.8723294887746533
  Basis Set: (AUG-CC-PVTZ AUX)
    Blend: AUG-CC-PVTZ-RI
    Molecular point group: c1

    Geometry (in Angstrom), charge = 0, multiplicity = 1:

       Center              X                  Y                   Z               Mass
    ------------   -----------------  -----------------  -----------------  -----------------
         N           -1.180013303400     0.045533465374     0.000021925144    14.003074004430
         C           -0.317410603400     1.113799565374    -0.000003774856    12.000000000000
         C           -0.317387603400    -1.137855434626     0.000020225144    12.000000000000
         C            1.001249396600     0.697219565374    -0.000033774856    12.000000000000
         C            1.001264396600    -0.721248434626    -0.000008774856    12.000000000000
         H           -2.114202603400    -0.012045434626     0.000059225144     1.007825032230
         H           -0.754435603400     2.102580565374    -0.000016774856     1.007825032230
         H           -0.754389603400    -2.126645434626     0.000044225144     1.007825032230
         H            1.866681396600     1.346572565374    -0.000060774856     1.007825032230
         H            1.866709396600    -1.370583434626    -0.000019774856     1.007825032230

  Basis Set: AUG-CC-PVTZ
    Blend: AUG-CC-PVTZ
  Basis Set: (AUG-CC-PVTZ AUX)
    Blend: AUG-CC-PVTZ-JKFIT
	 Reference Energy          =    -208.8723294887746533 [Eh]
	 Singles Energy            =      -0.0000000000000000 [Eh]
	 Same-Spin Energy          =      -0.2294807122297342 [Eh]
	 Opposite-Spin Energy      =      -0.7235199859094018 [Eh]
	 Correlation Energy        =      -0.9530006981391360 [Eh]
	 Total Energy              =    -209.8253301869137886 [Eh]

	 ================> DF-SCS-MP2 Energies <==================
	-----------------------------------------------------------
	 SCS Same-Spin Scale       =       0.3333333333333333 [-]
	 SCS Opposite-Spin Scale   =       1.2000000000000000 [-]
	 SCS Same-Spin Energy      =      -0.0764935707432447 [Eh]
	 SCS Opposite-Spin Energy  =      -0.8682239830912821 [Eh]
	 SCS Correlation Energy    =      -0.9447175538345268 [Eh]
	 SCS Total Energy          =    -209.8170470426091754 [Eh]
	-----------------------------------------------------------

  Dipole Moment: [D]
     X:    -1.5912      Y:    -0.0410      Z:     0.0001     Total:     1.5917

*** Psi4 exiting successfully. Buy a developer a beer!
