                               Psi4 1.3.2 release

  ==> Input File <==

--------------------------------------------------------------------------
#psi4
#
memory 32 gb

molecule  {
0 1
  N       -1.1198630    -0.0000120     0.0000220
  C       -0.3476151     1.0795497    -0.0000033
  C       -0.3338570    -1.1258310     0.0000200
  C        0.9847800     0.7092440    -0.0000340
  C        0.9847950    -0.7092240    -0.0000090
  H       -2.1306720    -0.0000210     0.0000590
  H       -0.7709050     2.1146050    -0.0000170
  H       -0.7708590    -2.1146210     0.0000440
  H        1.8502120     1.3585970    -0.0000610
  H        1.8502400    -1.3585590    -0.0000200
units angstrom
no_reorient  #important for SAPT in psi4, default
symmetry c1  #important for SAPT in psi4, default
}

set PROPERTIES_ORIGIN ["COM"]
properties('MP2/aug-cc-pvtz', properties = ['dipole'])
--------------------------------------------------------------------------

    Molecular point group: c1
  Charge       = 0
  Multiplicity = 1
  Basis Set: AUG-CC-PVTZ
    Blend: AUG-CC-PVTZ
  Basis Set: (AUG-CC-PVTZ AUX)
    Blend: AUG-CC-PVTZ-JKFIT

    Orbital Energies [Eh]
    ---------------------

    Doubly Occupied:

       1A    -15.610277     2A    -11.254487     3A    -11.250127
       4A    -11.211447     5A    -11.207117     6A     -1.304394
       7A     -1.043668     8A     -0.974820     9A     -0.795017
      10A     -0.769782    11A     -0.730302    12A     -0.599100
      13A     -0.577338    14A     -0.575581    15A     -0.545278
      16A     -0.520853    17A     -0.348801    18A     -0.294990

  @DF-RHF Final Energy:  -208.88325416355457

   => Energetics <=

    Nuclear Repulsion Energy =            161.5319966941403322
    One-Electron Energy =                -601.6037401198428825
    Two-Electron Energy =                 231.1884892621479821
    Total Energy =                       -208.8832541635545681
  Basis Set: (AUG-CC-PVTZ AUX)
    Blend: AUG-CC-PVTZ-RI
    Molecular point group: c1

    Geometry (in Angstrom), charge = 0, multiplicity = 1:

       Center              X                  Y                   Z               Mass
    ------------   -----------------  -----------------  -----------------  -----------------
         N           -1.116938656226     0.008270882065     0.000022037189    14.003074004430
         C           -0.344690756226     1.087832582065    -0.000003262811    12.000000000000
         C           -0.330932656226    -1.117548117935     0.000020037189    12.000000000000
         C            0.987704343774     0.717526882065    -0.000033962811    12.000000000000
         C            0.987719343774    -0.700941117935    -0.000008962811    12.000000000000
         H           -2.127747656226     0.008261882065     0.000059037189     1.007825032230
         H           -0.767980656226     2.122887882065    -0.000016962811     1.007825032230
         H           -0.767934656226    -2.106338117935     0.000044037189     1.007825032230
         H            1.853136343774     1.366879882065    -0.000060962811     1.007825032230
         H            1.853164343774    -1.350276117935    -0.000019962811     1.007825032230

  Basis Set: AUG-CC-PVTZ
    Blend: AUG-CC-PVTZ
  Basis Set: (AUG-CC-PVTZ AUX)
    Blend: AUG-CC-PVTZ-JKFIT
	 Reference Energy          =    -208.8832541635545681 [Eh]
	 Singles Energy            =      -0.0000000000000000 [Eh]
	 Same-Spin Energy          =      -0.2304448291648267 [Eh]
	 Opposite-Spin Energy      =      -0.7224257924444227 [Eh]
	 Correlation Energy        =      -0.9528706216092494 [Eh]
	 Total Energy              =    -209.8361247851638041 [Eh]

	 ================> DF-SCS-MP2 Energies <==================
	-----------------------------------------------------------
	 SCS Same-Spin Scale       =       0.3333333333333333 [-]
	 SCS Opposite-Spin Scale   =       1.2000000000000000 [-]
	 SCS Same-Spin Energy      =      -0.0768149430549422 [Eh]
	 SCS Opposite-Spin Energy  =      -0.8669109509333073 [Eh]
	 SCS Correlation Energy    =      -0.9437258939882495 [Eh]
	 SCS Total Energy          =    -209.8269800575428121 [Eh]
	-----------------------------------------------------------

  Dipole Moment: [D]
     X:    -1.9341      Y:     0.0047      Z:     0.0001     Total:     1.9341

*** Psi4 exiting successfully. Buy a developer a beer!
