                               Psi4 1.3.2 release

  ==> Input File <==

--------------------------------------------------------------------------
#psi4
#
memory 32 gb

molecule  {
0 1
  N       -1.1198630    -0.0000120     0.0000220
  C       -0.3338800     1.1258240    -0.0000040
  C       -0.3338570    -1.1258310     0.0000200
  C        1.1754898     0.6489965    -0.0000383
  C        0.9847950    -0.7092240    -0.0000090
  H       -2.1306720    -0.0000210     0.0000590
  H       -0.7709050     2.1146050    -0.0000170
  H       -0.7708590    -2.1146210     0.0000440
  H        1.8502120     1.3585970    -0.0000610
  H        1.8502400    -1.3585590    -0.0000200
units angstrom
no_reorient  #important for SAPT in psi4, default
symmetry c1  #important for SAPT in psi4, default
}

set PROPERTIES_ORIGIN ["COM"]
properties('MP2/aug-cc-pvtz', properties = ['dipole'])
--------------------------------------------------------------------------

    Molecular point group: c1
  Charge       = 0
  Multiplicity = 1
  Basis Set: AUG-CC-PVTZ
    Blend: AUG-CC-PVTZ
  Basis Set: (AUG-CC-PVTZ AUX)
    Blend: AUG-CC-PVTZ-JKFIT

    Orbital Energies [Eh]
    ---------------------

    Doubly Occupied:

       1A    -15.625926     2A    -11.273790     3A    -11.249181
       4A    -11.221347     5A    -11.215814     6A     -1.288250
       7A     -1.045548     8A     -0.959121     9A     -0.813311
      10A     -0.772427    11A     -0.732503    12A     -0.610149
      13A     -0.582577    14A     -0.572521    15A     -0.562814
      16A     -0.484114    17A     -0.359000    18A     -0.273438

  @DF-RHF Final Energy:  -208.83671239860553

   => Energetics <=

    Nuclear Repulsion Energy =            158.7397113358865965
    One-Electron Energy =                -595.8691911012651872
    Two-Electron Energy =                 228.2927673667730915
    Total Energy =                       -208.8367123986055276
  Basis Set: (AUG-CC-PVTZ AUX)
    Blend: AUG-CC-PVTZ-RI
    Molecular point group: c1

    Geometry (in Angstrom), charge = 0, multiplicity = 1:

       Center              X                  Y                   Z               Mass
    ------------   -----------------  -----------------  -----------------  -----------------
         N           -1.153532604971     0.010771969471     0.000022932148    14.003074004430
         C           -0.367549604971     1.136607969471    -0.000003067852    12.000000000000
         C           -0.367526604971    -1.115047030529     0.000020932148    12.000000000000
         C            1.141820195029     0.659780469471    -0.000037367852    12.000000000000
         C            0.951125395029    -0.698440030529    -0.000008067852    12.000000000000
         H           -2.164341604971     0.010762969471     0.000059932148     1.007825032230
         H           -0.804574604971     2.125388969471    -0.000016067852     1.007825032230
         H           -0.804528604971    -2.103837030529     0.000044932148     1.007825032230
         H            1.816542395029     1.369380969471    -0.000060067852     1.007825032230
         H            1.816570395029    -1.347775030529    -0.000019067852     1.007825032230

  Basis Set: AUG-CC-PVTZ
    Blend: AUG-CC-PVTZ
  Basis Set: (AUG-CC-PVTZ AUX)
    Blend: AUG-CC-PVTZ-JKFIT
	 Reference Energy          =    -208.8367123986055276 [Eh]
	 Singles Energy            =      -0.0000000000000000 [Eh]
	 Same-Spin Energy          =      -0.2334407597513551 [Eh]
	 Opposite-Spin Energy      =      -0.7291822532913701 [Eh]
	 Correlation Energy        =      -0.9626230130427252 [Eh]
	 Total Energy              =    -209.7993354116482578 [Eh]

	 ================> DF-SCS-MP2 Energies <==================
	-----------------------------------------------------------
	 SCS Same-Spin Scale       =       0.3333333333333333 [-]
	 SCS Opposite-Spin Scale   =       1.2000000000000000 [-]
	 SCS Same-Spin Energy      =      -0.0778135865837850 [Eh]
	 SCS Opposite-Spin Energy  =      -0.8750187039496441 [Eh]
	 SCS Correlation Energy    =      -0.9528322905334291 [Eh]
	 SCS Total Energy          =    -209.7895446891389497 [Eh]
	-----------------------------------------------------------

  Dipole Moment: [D]
     X:    -1.9484      Y:    -0.0751      Z:     0.0001     Total:     1.9498

*** Psi4 exiting successfully. Buy a developer a beer!
