                               Psi4 1.3.2 release

  ==> Input File <==

--------------------------------------------------------------------------
#psi4
#
memory 32 gb

molecule  {
0 1
  N       -1.1586753     0.0281042     0.0000219
  C       -0.3338800     1.1258240    -0.0000040
  C       -0.3338570    -1.1258310     0.0000200
  C        0.9847800     0.7092440    -0.0000340
  C        0.9847950    -0.7092240    -0.0000090
  H       -2.1306720    -0.0000210     0.0000590
  H       -0.7709050     2.1146050    -0.0000170
  H       -0.7708590    -2.1146210     0.0000440
  H        1.8502120     1.3585970    -0.0000610
  H        1.8502400    -1.3585590    -0.0000200
units angstrom
no_reorient  #important for SAPT in psi4, default
symmetry c1  #important for SAPT in psi4, default
}

set PROPERTIES_ORIGIN ["COM"]
properties('MP2/aug-cc-pvtz', properties = ['dipole'])
--------------------------------------------------------------------------

    Molecular point group: c1
  Charge       = 0
  Multiplicity = 1
  Basis Set: AUG-CC-PVTZ
    Blend: AUG-CC-PVTZ
  Basis Set: (AUG-CC-PVTZ AUX)
    Blend: AUG-CC-PVTZ-JKFIT

    Orbital Energies [Eh]
    ---------------------

    Doubly Occupied:

       1A    -15.604356     2A    -11.257986     3A    -11.257193
       4A    -11.215599     5A    -11.211575     6A     -1.280152
       7A     -1.046897     8A     -0.970049     9A     -0.802123
      10A     -0.762629    11A     -0.732027    12A     -0.601304
      13A     -0.570811    14A     -0.559902    15A     -0.547701
      16A     -0.530485    17A     -0.350799    18A     -0.296298

  @DF-RHF Final Energy:  -208.88234764446403

   => Energetics <=

    Nuclear Repulsion Energy =            160.0143077889657377
    One-Electron Energy =                -598.5975339267394020
    Two-Electron Energy =                 229.7008784933096024
    Total Energy =                       -208.8823476444640335
  Basis Set: (AUG-CC-PVTZ AUX)
    Blend: AUG-CC-PVTZ-RI
    Molecular point group: c1

    Geometry (in Angstrom), charge = 0, multiplicity = 1:

       Center              X                  Y                   Z               Mass
    ------------   -----------------  -----------------  -----------------  -----------------
         N           -1.150102718043     0.022231746453     0.000022083370    14.003074004430
         C           -0.325307418043     1.119951546453    -0.000003816630    12.000000000000
         C           -0.325284418043    -1.131703453547     0.000020183370    12.000000000000
         C            0.993352581957     0.703371546453    -0.000033816630    12.000000000000
         C            0.993367581957    -0.715096453547    -0.000008816630    12.000000000000
         H           -2.122099418043    -0.005893453547     0.000059183370     1.007825032230
         H           -0.762332418043     2.108732546453    -0.000016816630     1.007825032230
         H           -0.762286418043    -2.120493453547     0.000044183370     1.007825032230
         H            1.858784581957     1.352724546453    -0.000060816630     1.007825032230
         H            1.858812581957    -1.364431453547    -0.000019816630     1.007825032230

  Basis Set: AUG-CC-PVTZ
    Blend: AUG-CC-PVTZ
  Basis Set: (AUG-CC-PVTZ AUX)
    Blend: AUG-CC-PVTZ-JKFIT
	 Reference Energy          =    -208.8823476444640335 [Eh]
	 Singles Energy            =      -0.0000000000000000 [Eh]
	 Same-Spin Energy          =      -0.2298598336667912 [Eh]
	 Opposite-Spin Energy      =      -0.7231056391056858 [Eh]
	 Correlation Energy        =      -0.9529654727724770 [Eh]
	 Total Energy              =    -209.8353131172365238 [Eh]

	 ================> DF-SCS-MP2 Energies <==================
	-----------------------------------------------------------
	 SCS Same-Spin Scale       =       0.3333333333333333 [-]
	 SCS Opposite-Spin Scale   =       1.2000000000000000 [-]
	 SCS Same-Spin Energy      =      -0.0766199445555971 [Eh]
	 SCS Opposite-Spin Energy  =      -0.8677267669268229 [Eh]
	 SCS Correlation Energy    =      -0.9443467114824200 [Eh]
	 SCS Total Energy          =    -209.8266943559464437 [Eh]
	-----------------------------------------------------------

  Dipole Moment: [D]
     X:    -1.7325      Y:    -0.0167      Z:     0.0001     Total:     1.7326

*** Psi4 exiting successfully. Buy a developer a beer!
