                               Psi4 1.3.2 release

  ==> Input File <==

--------------------------------------------------------------------------
#psi4
#
memory 32 gb

molecule  {
0 1
  N       -1.1198630    -0.0000120     0.0000220
  C       -0.3338800     1.1258240    -0.0000040
  C       -0.3338570    -1.1258310     0.0000200
  C        0.9847800     0.7092440    -0.0000340
  C        0.8365246    -0.7014551    -0.0000065
  H       -2.1306720    -0.0000210     0.0000590
  H       -0.7709050     2.1146050    -0.0000170
  H       -0.7708590    -2.1146210     0.0000440
  H        1.8502120     1.3585970    -0.0000610
  H        1.8502400    -1.3585590    -0.0000200
units angstrom
no_reorient  #important for SAPT in psi4, default
symmetry c1  #important for SAPT in psi4, default
}

set PROPERTIES_ORIGIN ["COM"]
properties('MP2/aug-cc-pvtz', properties = ['dipole'])
--------------------------------------------------------------------------

    Molecular point group: c1
  Charge       = 0
  Multiplicity = 1
  Basis Set: AUG-CC-PVTZ
    Blend: AUG-CC-PVTZ
  Basis Set: (AUG-CC-PVTZ AUX)
    Blend: AUG-CC-PVTZ-JKFIT

    Orbital Energies [Eh]
    ---------------------

    Doubly Occupied:

       1A    -15.597194     2A    -11.257319     3A    -11.233738
       4A    -11.207629     5A    -11.203715     6A     -1.298356
       7A     -1.047979     8A     -0.991670     9A     -0.788777
      10A     -0.752087    11A     -0.739779    12A     -0.592140
      13A     -0.576708    14A     -0.575587    15A     -0.566880
      16A     -0.488426    17A     -0.351688    18A     -0.311634

  @DF-RHF Final Energy:  -208.85433303570659

   => Energetics <=

    Nuclear Repulsion Energy =            163.1146326573644103
    One-Electron Energy =                -604.7753205991820096
    Two-Electron Energy =                 232.8063549061110393
    Total Energy =                       -208.8543330357065884
  Basis Set: (AUG-CC-PVTZ AUX)
    Blend: AUG-CC-PVTZ-RI
    Molecular point group: c1

    Geometry (in Angstrom), charge = 0, multiplicity = 1:

       Center              X                  Y                   Z               Mass
    ------------   -----------------  -----------------  -----------------  -----------------
         N           -1.092857948551    -0.001402404433     0.000021715004    14.003074004430
         C           -0.306874948551     1.124433595567    -0.000004284996    12.000000000000
         C           -0.306851948551    -1.127221404433     0.000019715004    12.000000000000
         C            1.011785051449     0.707853595567    -0.000034284996    12.000000000000
         C            0.863529651449    -0.702845504433    -0.000006784996    12.000000000000
         H           -2.103666948551    -0.001411404433     0.000058715004     1.007825032230
         H           -0.743899948551     2.113214595567    -0.000017284996     1.007825032230
         H           -0.743853948551    -2.116011404433     0.000043715004     1.007825032230
         H            1.877217051449     1.357206595567    -0.000061284996     1.007825032230
         H            1.877245051449    -1.359949404433    -0.000020284996     1.007825032230

  Basis Set: AUG-CC-PVTZ
    Blend: AUG-CC-PVTZ
  Basis Set: (AUG-CC-PVTZ AUX)
    Blend: AUG-CC-PVTZ-JKFIT
	 Reference Energy          =    -208.8543330357065884 [Eh]
	 Singles Energy            =      -0.0000000000000000 [Eh]
	 Same-Spin Energy          =      -0.2295357530684489 [Eh]
	 Opposite-Spin Energy      =      -0.7215302166306042 [Eh]
	 Correlation Energy        =      -0.9510659696990531 [Eh]
	 Total Energy              =    -209.8053990054056328 [Eh]

	 ================> DF-SCS-MP2 Energies <==================
	-----------------------------------------------------------
	 SCS Same-Spin Scale       =       0.3333333333333333 [-]
	 SCS Opposite-Spin Scale   =       1.2000000000000000 [-]
	 SCS Same-Spin Energy      =      -0.0765119176894830 [Eh]
	 SCS Opposite-Spin Energy  =      -0.8658362599567251 [Eh]
	 SCS Correlation Energy    =      -0.9423481776462080 [Eh]
	 SCS Total Energy          =    -209.7966812133527981 [Eh]
	-----------------------------------------------------------

  Dipole Moment: [D]
     X:    -1.8262      Y:    -0.0029      Z:     0.0001     Total:     1.8262

*** Psi4 exiting successfully. Buy a developer a beer!
