                               Psi4 1.4a3.dev225

  ==> Input File <==

--------------------------------------------------------------------------
#psi4
#
memory 32 gb

molecule  {
0 1
  N       -1.1198630    -0.0000120     0.0000220
  C       -0.3338800     1.1258240    -0.0000040
  C       -0.3338570    -1.1258310     0.0000200
  C        0.9847800     0.7092440    -0.0000340
  C        0.9847950    -0.7092240    -0.0000090
  H       -2.1306720    -0.0000210     0.0000590
  H       -0.7789902     2.1328979    -0.0000172
  H       -0.7708590    -2.1146210     0.0000440
  H        1.8502120     1.3585970    -0.0000610
  H        1.8502400    -1.3585590    -0.0000200
units angstrom
no_reorient  #important for SAPT in psi4, default
symmetry c1  #important for SAPT in psi4, default
}

set PROPERTIES_ORIGIN ["COM"]
properties('MP2/aug-cc-pvtz', properties = ['dipole'])
--------------------------------------------------------------------------

    Molecular point group: c1
  Charge       = 0
  Multiplicity = 1
  Basis Set: AUG-CC-PVTZ
    Blend: AUG-CC-PVTZ
  Basis Set: (AUG-CC-PVTZ AUX)
    Blend: AUG-CC-PVTZ-JKFIT

    Orbital Energies [Eh]
    ---------------------

    Doubly Occupied:

       1A    -15.608352     2A    -11.256375     3A    -11.254181
       4A    -11.211585     5A    -11.210522     6A     -1.289613
       7A     -1.040835     8A     -0.974400     9A     -0.791523
      10A     -0.765436    11A     -0.732009    12A     -0.590825
      13A     -0.580329    14A     -0.566700    15A     -0.545358
      16A     -0.528344    17A     -0.347594    18A     -0.296756

  @DF-RHF Final Energy:  -208.88483141087107

   => Energetics <=

    Nuclear Repulsion Energy =            160.6570291474942564
    One-Electron Energy =                -599.9022461672760755
    Two-Electron Energy =                 230.3603856089107467
    Total Energy =                       -208.8848314108710724
  Basis Set: (AUG-CC-PVTZ AUX)
    Blend: AUG-CC-PVTZ-RI
    Molecular point group: c1

    Geometry (in Angstrom), charge = 0, multiplicity = 1:

       Center              X                  Y                   Z               Mass
    ------------   -----------------  -----------------  -----------------  -----------------
         N           -1.119275583341    -0.000286827104     0.000022165490    14.003074004430
         C           -0.333292583341     1.125549172896    -0.000003834510    12.000000000000
         C           -0.333269583341    -1.126105827104     0.000020165490    12.000000000000
         C            0.985367416659     0.708969172896    -0.000033834510    12.000000000000
         C            0.985382416659    -0.709498827104    -0.000008834510    12.000000000000
         H           -2.130084583341    -0.000295827104     0.000059165490     1.007825032230
         H           -0.778402783341     2.132623072896    -0.000017034510     1.007825032230
         H           -0.770271583341    -2.114895827104     0.000044165490     1.007825032230
         H            1.850799416659     1.358322172896    -0.000060834510     1.007825032230
         H            1.850827416659    -1.358833827104    -0.000019834510     1.007825032230

  Basis Set: AUG-CC-PVTZ
    Blend: AUG-CC-PVTZ
  Basis Set: (AUG-CC-PVTZ AUX)
    Blend: AUG-CC-PVTZ-JKFIT
	 Reference Energy          =    -208.8848314108710724 [Eh]
	 Singles Energy            =      -0.0000000000000000 [Eh]
	 Same-Spin Energy          =      -0.2303962517793147 [Eh]
	 Opposite-Spin Energy      =      -0.7231717021222880 [Eh]
	 Correlation Energy        =      -0.9535679539016026 [Eh]
	 Total Energy              =    -209.8383993647726697 [Eh]

	 ================> DF-SCS-MP2 Energies <==================
	-----------------------------------------------------------
	 SCS Same-Spin Scale       =       0.3333333333333333 [-]
	 SCS Opposite-Spin Scale   =       1.2000000000000000 [-]
	 SCS Same-Spin Energy      =      -0.0767987505931049 [Eh]
	 SCS Opposite-Spin Energy  =      -0.8678060425467455 [Eh]
	 SCS Correlation Energy    =      -0.9446047931398505 [Eh]
	 SCS Total Energy          =    -209.8294362040109320 [Eh]
	-----------------------------------------------------------

  Dipole Moment: [D]
     X:    -1.8701      Y:    -0.0019      Z:     0.0001     Total:     1.8701

*** Psi4 exiting successfully. Buy a developer a beer!
