                               Psi4 1.3.2 release

  ==> Input File <==

--------------------------------------------------------------------------
#psi4
#
memory 32 gb

molecule  {
0 1
  N       -1.1198630    -0.0000120     0.0000220
  C       -0.3338800     1.1258240    -0.0000040
  C       -0.3338570    -1.1258310     0.0000200
  C        0.9340118     0.5736886    -0.0000288
  C        0.9847950    -0.7092240    -0.0000090
  H       -2.1306720    -0.0000210     0.0000590
  H       -0.7709050     2.1146050    -0.0000170
  H       -0.7708590    -2.1146210     0.0000440
  H        1.8502120     1.3585970    -0.0000610
  H        1.8502400    -1.3585590    -0.0000200
units angstrom
no_reorient  #important for SAPT in psi4, default
symmetry c1  #important for SAPT in psi4, default
}

set PROPERTIES_ORIGIN ["COM"]
properties('MP2/aug-cc-pvtz', properties = ['dipole'])
--------------------------------------------------------------------------

    Molecular point group: c1
  Charge       = 0
  Multiplicity = 1
  Basis Set: AUG-CC-PVTZ
    Blend: AUG-CC-PVTZ
  Basis Set: (AUG-CC-PVTZ AUX)
    Blend: AUG-CC-PVTZ-JKFIT

    Orbital Energies [Eh]
    ---------------------

    Doubly Occupied:

       1A    -15.612431     2A    -11.252664     3A    -11.247631
       4A    -11.208268     5A    -11.198207     6A     -1.298935
       7A     -1.066844     8A     -0.971638     9A     -0.805588
      10A     -0.753593    11A     -0.732385    12A     -0.592037
      13A     -0.586001    14A     -0.574015    15A     -0.561054
      16A     -0.494711    17A     -0.367586    18A     -0.287776

  @DF-RHF Final Energy:  -208.85256479691057

   => Energetics <=

    Nuclear Repulsion Energy =            162.9281624293481059
    One-Electron Energy =                -604.3387221151920130
    Two-Electron Energy =                 232.5579948889333366
    Total Energy =                       -208.8525647969105705
  Basis Set: (AUG-CC-PVTZ AUX)
    Blend: AUG-CC-PVTZ-RI
    Molecular point group: c1

    Geometry (in Angstrom), charge = 0, multiplicity = 1:

       Center              X                  Y                   Z               Mass
    ------------   -----------------  -----------------  -----------------  -----------------
         N           -1.110310037154     0.024251461660     0.000021231726    14.003074004430
         C           -0.324327037154     1.150087461660    -0.000004768274    12.000000000000
         C           -0.324304037154    -1.101567538340     0.000019231726    12.000000000000
         C            0.943564762846     0.597952061660    -0.000029568274    12.000000000000
         C            0.994347962846    -0.684960538340    -0.000009768274    12.000000000000
         H           -2.121119037154     0.024242461660     0.000058231726     1.007825032230
         H           -0.761352037154     2.138868461660    -0.000017768274     1.007825032230
         H           -0.761306037154    -2.090357538340     0.000043231726     1.007825032230
         H            1.859764962846     1.382860461660    -0.000061768274     1.007825032230
         H            1.859792962846    -1.334295538340    -0.000020768274     1.007825032230

  Basis Set: AUG-CC-PVTZ
    Blend: AUG-CC-PVTZ
  Basis Set: (AUG-CC-PVTZ AUX)
    Blend: AUG-CC-PVTZ-JKFIT
	 Reference Energy          =    -208.8525647969105705 [Eh]
	 Singles Energy            =      -0.0000000000000000 [Eh]
	 Same-Spin Energy          =      -0.2326232050446902 [Eh]
	 Opposite-Spin Energy      =      -0.7255319504204638 [Eh]
	 Correlation Energy        =      -0.9581551554651540 [Eh]
	 Total Energy              =    -209.8107199523757345 [Eh]

	 ================> DF-SCS-MP2 Energies <==================
	-----------------------------------------------------------
	 SCS Same-Spin Scale       =       0.3333333333333333 [-]
	 SCS Opposite-Spin Scale   =       1.2000000000000000 [-]
	 SCS Same-Spin Energy      =      -0.0775410683482301 [Eh]
	 SCS Opposite-Spin Energy  =      -0.8706383405045566 [Eh]
	 SCS Correlation Energy    =      -0.9481794088527866 [Eh]
	 SCS Total Energy          =    -209.8007442057633511 [Eh]
	-----------------------------------------------------------

  Dipole Moment: [D]
     X:    -1.8842      Y:    -0.0548      Z:     0.0001     Total:     1.8850

*** Psi4 exiting successfully. Buy a developer a beer!
