                               Psi4 1.4a3.dev225

  ==> Input File <==

--------------------------------------------------------------------------
#psi4
#
memory 32 gb

molecule  {
0 1
  N       -1.1198630    -0.0000120     0.0000220
  C       -0.3453287     1.1094250    -0.0000036
  C       -0.3338570    -1.1258310     0.0000200
  C        0.9847800     0.7092440    -0.0000340
  C        0.9847950    -0.7092240    -0.0000090
  H       -2.1306720    -0.0000210     0.0000590
  H       -0.7709050     2.1146050    -0.0000170
  H       -0.7708590    -2.1146210     0.0000440
  H        1.8502120     1.3585970    -0.0000610
  H        1.8502400    -1.3585590    -0.0000200
units angstrom
no_reorient  #important for SAPT in psi4, default
symmetry c1  #important for SAPT in psi4, default
}

set PROPERTIES_ORIGIN ["COM"]
properties('MP2/aug-cc-pvtz', properties = ['dipole'])
--------------------------------------------------------------------------

    Molecular point group: c1
  Charge       = 0
  Multiplicity = 1
  Basis Set: AUG-CC-PVTZ
    Blend: AUG-CC-PVTZ
  Basis Set: (AUG-CC-PVTZ AUX)
    Blend: AUG-CC-PVTZ-JKFIT

    Orbital Energies [Eh]
    ---------------------

    Doubly Occupied:

       1A    -15.609606     2A    -11.254450     3A    -11.252442
       4A    -11.211457     5A    -11.209744     6A     -1.295570
       7A     -1.041253     8A     -0.975032     9A     -0.792942
      10A     -0.767088    11A     -0.733844    12A     -0.593359
      13A     -0.581955    14A     -0.570105    15A     -0.544915
      16A     -0.525973    17A     -0.347746    18A     -0.295449

  @DF-RHF Final Energy:  -208.88520070772000

   => Energetics <=

    Nuclear Repulsion Energy =            160.9971666666640431
    One-Electron Energy =                -600.5588746640897853
    Two-Electron Energy =                 230.6765072897057394
    Total Energy =                       -208.8852007077200028
  Basis Set: (AUG-CC-PVTZ AUX)
    Blend: AUG-CC-PVTZ-RI
    Molecular point group: c1

    Geometry (in Angstrom), charge = 0, multiplicity = 1:

       Center              X                  Y                   Z               Mass
    ------------   -----------------  -----------------  -----------------  -----------------
         N           -1.117347902944     0.002923450082     0.000022090887    14.003074004430
         C           -0.342813602944     1.112360450082    -0.000003509113    12.000000000000
         C           -0.331341902944    -1.122895549918     0.000020090887    12.000000000000
         C            0.987295097056     0.712179450082    -0.000033909113    12.000000000000
         C            0.987310097056    -0.706288549918    -0.000008909113    12.000000000000
         H           -2.128156902944     0.002914450082     0.000059090887     1.007825032230
         H           -0.768389902944     2.117540450082    -0.000016909113     1.007825032230
         H           -0.768343902944    -2.111685549918     0.000044090887     1.007825032230
         H            1.852727097056     1.361532450082    -0.000060909113     1.007825032230
         H            1.852755097056    -1.355623549918    -0.000019909113     1.007825032230

  Basis Set: AUG-CC-PVTZ
    Blend: AUG-CC-PVTZ
  Basis Set: (AUG-CC-PVTZ AUX)
    Blend: AUG-CC-PVTZ-JKFIT
	 Reference Energy          =    -208.8852007077200028 [Eh]
	 Singles Energy            =      -0.0000000000000000 [Eh]
	 Same-Spin Energy          =      -0.2304602379459028 [Eh]
	 Opposite-Spin Energy      =      -0.7228651753935692 [Eh]
	 Correlation Energy        =      -0.9533254133394720 [Eh]
	 Total Energy              =    -209.8385261210594877 [Eh]

	 ================> DF-SCS-MP2 Energies <==================
	-----------------------------------------------------------
	 SCS Same-Spin Scale       =       0.3333333333333333 [-]
	 SCS Opposite-Spin Scale   =       1.2000000000000000 [-]
	 SCS Same-Spin Energy      =      -0.0768200793153009 [Eh]
	 SCS Opposite-Spin Energy  =      -0.8674382104722830 [Eh]
	 SCS Correlation Energy    =      -0.9442582897875839 [Eh]
	 SCS Total Energy          =    -209.8294589975076008 [Eh]
	-----------------------------------------------------------

  Dipole Moment: [D]
     X:    -1.9029      Y:    -0.0023      Z:     0.0001     Total:     1.9029

*** Psi4 exiting successfully. Buy a developer a beer!
