                               Psi4 1.3.2 release

  ==> Input File <==

--------------------------------------------------------------------------
#psi4
#
memory 32 gb

molecule  {
0 1
  N       -1.1393918     0.0138768     0.0000219
  C       -0.3338800     1.1258240    -0.0000040
  C       -0.3338570    -1.1258310     0.0000200
  C        0.9847800     0.7092440    -0.0000340
  C        0.9847950    -0.7092240    -0.0000090
  H       -2.1306720    -0.0000210     0.0000590
  H       -0.7709050     2.1146050    -0.0000170
  H       -0.7708590    -2.1146210     0.0000440
  H        1.8502120     1.3585970    -0.0000610
  H        1.8502400    -1.3585590    -0.0000200
units angstrom
no_reorient  #important for SAPT in psi4, default
symmetry c1  #important for SAPT in psi4, default
}

set PROPERTIES_ORIGIN ["COM"]
properties('MP2/aug-cc-pvtz', properties = ['dipole'])
--------------------------------------------------------------------------

    Molecular point group: c1
  Charge       = 0
  Multiplicity = 1
  Basis Set: AUG-CC-PVTZ
    Blend: AUG-CC-PVTZ
  Basis Set: (AUG-CC-PVTZ AUX)
    Blend: AUG-CC-PVTZ-JKFIT

    Orbital Energies [Eh]
    ---------------------

    Doubly Occupied:

       1A    -15.606270     2A    -11.256021     3A    -11.255655
       4A    -11.213365     5A    -11.211137     6A     -1.284615
       7A     -1.043750     8A     -0.972535     9A     -0.796933
      10A     -0.764134    11A     -0.733317    12A     -0.596013
      13A     -0.576907    14A     -0.563117    15A     -0.546521
      16A     -0.529777    17A     -0.349060    18A     -0.296543

  @DF-RHF Final Energy:  -208.88480173995481

   => Energetics <=

    Nuclear Repulsion Energy =            160.3757713682048518
    One-Electron Energy =                -599.3298074825183903
    Two-Electron Energy =                 230.0692343743587571
    Total Energy =                       -208.8848017399548098
  Basis Set: (AUG-CC-PVTZ AUX)
    Blend: AUG-CC-PVTZ-RI
    Molecular point group: c1

    Geometry (in Angstrom), charge = 0, multiplicity = 1:

       Center              X                  Y                   Z               Mass
    ------------   -----------------  -----------------  -----------------  -----------------
         N           -1.134846954020     0.010976017096     0.000022083370    14.003074004430
         C           -0.329335154020     1.122923217096    -0.000003816630    12.000000000000
         C           -0.329312154020    -1.128731782904     0.000020183370    12.000000000000
         C            0.989324845980     0.706343217096    -0.000033816630    12.000000000000
         C            0.989339845980    -0.712124782904    -0.000008816630    12.000000000000
         H           -2.126127154020    -0.002921782904     0.000059183370     1.007825032230
         H           -0.766360154020     2.111704217096    -0.000016816630     1.007825032230
         H           -0.766314154020    -2.117521782904     0.000044183370     1.007825032230
         H            1.854756845980     1.355696217096    -0.000060816630     1.007825032230
         H            1.854784845980    -1.361459782904    -0.000019816630     1.007825032230

  Basis Set: AUG-CC-PVTZ
    Blend: AUG-CC-PVTZ
  Basis Set: (AUG-CC-PVTZ AUX)
    Blend: AUG-CC-PVTZ-JKFIT
	 Reference Energy          =    -208.8848017399548098 [Eh]
	 Singles Energy            =      -0.0000000000000000 [Eh]
	 Same-Spin Energy          =      -0.2300957303724032 [Eh]
	 Opposite-Spin Energy      =      -0.7230242126416275 [Eh]
	 Correlation Energy        =      -0.9531199430140307 [Eh]
	 Total Energy              =    -209.8379216829688403 [Eh]

	 ================> DF-SCS-MP2 Energies <==================
	-----------------------------------------------------------
	 SCS Same-Spin Scale       =       0.3333333333333333 [-]
	 SCS Opposite-Spin Scale   =       1.2000000000000000 [-]
	 SCS Same-Spin Energy      =      -0.0766985767908011 [Eh]
	 SCS Opposite-Spin Energy  =      -0.8676290551699530 [Eh]
	 SCS Correlation Energy    =      -0.9443276319607541 [Eh]
	 SCS Total Energy          =    -209.8291293719155703 [Eh]
	-----------------------------------------------------------

  Dipole Moment: [D]
     X:    -1.8024      Y:    -0.0073      Z:     0.0001     Total:     1.8024

*** Psi4 exiting successfully. Buy a developer a beer!
