                               Psi4 1.3.2 release

  ==> Input File <==

--------------------------------------------------------------------------
#psi4
#
memory 32 gb

molecule  {
0 1
  N       -1.1198630    -0.0000120     0.0000220
  C       -0.3338800     1.1258240    -0.0000040
  C       -0.3338570    -1.1258310     0.0000200
  C        0.9525087     0.6182737    -0.0000305
  C        0.9847950    -0.7092240    -0.0000090
  H       -2.1306720    -0.0000210     0.0000590
  H       -0.7709050     2.1146050    -0.0000170
  H       -0.7708590    -2.1146210     0.0000440
  H        1.8502120     1.3585970    -0.0000610
  H        1.8502400    -1.3585590    -0.0000200
units angstrom
no_reorient  #important for SAPT in psi4, default
symmetry c1  #important for SAPT in psi4, default
}

set PROPERTIES_ORIGIN ["COM"]
properties('MP2/aug-cc-pvtz', properties = ['dipole'])
--------------------------------------------------------------------------

    Molecular point group: c1
  Charge       = 0
  Multiplicity = 1
  Basis Set: AUG-CC-PVTZ
    Blend: AUG-CC-PVTZ
  Basis Set: (AUG-CC-PVTZ AUX)
    Blend: AUG-CC-PVTZ-JKFIT

    Orbital Energies [Eh]
    ---------------------

    Doubly Occupied:

       1A    -15.610760     2A    -11.252833     3A    -11.249477
       4A    -11.208989     5A    -11.202469     6A     -1.295145
       7A     -1.057131     8A     -0.972698     9A     -0.800005
      10A     -0.756293    11A     -0.734489    12A     -0.590069
      13A     -0.583200    14A     -0.570936    15A     -0.553025
      16A     -0.513077    17A     -0.360165    18A     -0.290552

  @DF-RHF Final Energy:  -208.87066346669184

   => Energetics <=

    Nuclear Repulsion Energy =            162.1581908777836531
    One-Electron Energy =                -602.8550816830480699
    Two-Electron Energy =                 231.8262273385725507
    Total Energy =                       -208.8706634666918376
  Basis Set: (AUG-CC-PVTZ AUX)
    Blend: AUG-CC-PVTZ-RI
    Molecular point group: c1

    Geometry (in Angstrom), charge = 0, multiplicity = 1:

       Center              X                  Y                   Z               Mass
    ------------   -----------------  -----------------  -----------------  -----------------
         N           -1.113620829502     0.016271096955     0.000021536012    14.003074004430
         C           -0.327637829502     1.142107096955    -0.000004463988    12.000000000000
         C           -0.327614829502    -1.109547903045     0.000019536012    12.000000000000
         C            0.958750870498     0.634556796955    -0.000030963988    12.000000000000
         C            0.991037170498    -0.692940903045    -0.000009463988    12.000000000000
         H           -2.124429829502     0.016262096955     0.000058536012     1.007825032230
         H           -0.764662829502     2.130888096955    -0.000017463988     1.007825032230
         H           -0.764616829502    -2.098337903045     0.000043536012     1.007825032230
         H            1.856454170498     1.374880096955    -0.000061463988     1.007825032230
         H            1.856482170498    -1.342275903045    -0.000020463988     1.007825032230

  Basis Set: AUG-CC-PVTZ
    Blend: AUG-CC-PVTZ
  Basis Set: (AUG-CC-PVTZ AUX)
    Blend: AUG-CC-PVTZ-JKFIT
	 Reference Energy          =    -208.8706634666918376 [Eh]
	 Singles Energy            =      -0.0000000000000000 [Eh]
	 Same-Spin Energy          =      -0.2317825305811324 [Eh]
	 Opposite-Spin Energy      =      -0.7244092161572226 [Eh]
	 Correlation Energy        =      -0.9561917467383549 [Eh]
	 Total Energy              =    -209.8268552134301785 [Eh]

	 ================> DF-SCS-MP2 Energies <==================
	-----------------------------------------------------------
	 SCS Same-Spin Scale       =       0.3333333333333333 [-]
	 SCS Opposite-Spin Scale   =       1.2000000000000000 [-]
	 SCS Same-Spin Energy      =      -0.0772608435270441 [Eh]
	 SCS Opposite-Spin Energy  =      -0.8692910593886671 [Eh]
	 SCS Correlation Energy    =      -0.9465519029157112 [Eh]
	 SCS Total Energy          =    -209.8172153696075384 [Eh]
	-----------------------------------------------------------

  Dipole Moment: [D]
     X:    -1.8722      Y:    -0.0239      Z:     0.0001     Total:     1.8723

*** Psi4 exiting successfully. Buy a developer a beer!
