                               Psi4 1.4a3.dev225

  ==> Input File <==

--------------------------------------------------------------------------
#psi4
#
memory 32 gb

molecule  {
0 1
  N       -1.1198630    -0.0000120     0.0000220
  C       -0.3338800     1.1258240    -0.0000040
  C       -0.3338570    -1.1258310     0.0000200
  C        1.0324575     0.6941821    -0.0000351
  C        0.9847950    -0.7092240    -0.0000090
  H       -2.1306720    -0.0000210     0.0000590
  H       -0.7709050     2.1146050    -0.0000170
  H       -0.7708590    -2.1146210     0.0000440
  H        1.8502120     1.3585970    -0.0000610
  H        1.8502400    -1.3585590    -0.0000200
units angstrom
no_reorient  #important for SAPT in psi4, default
symmetry c1  #important for SAPT in psi4, default
}

set PROPERTIES_ORIGIN ["COM"]
properties('MP2/aug-cc-pvtz', properties = ['dipole'])
--------------------------------------------------------------------------

    Molecular point group: c1
  Charge       = 0
  Multiplicity = 1
  Basis Set: AUG-CC-PVTZ
    Blend: AUG-CC-PVTZ
  Basis Set: (AUG-CC-PVTZ AUX)
    Blend: AUG-CC-PVTZ-JKFIT

    Orbital Energies [Eh]
    ---------------------

    Doubly Occupied:

       1A    -15.612771     2A    -11.259919     3A    -11.252899
       4A    -11.213499     5A    -11.211436     6A     -1.288762
       7A     -1.041586     8A     -0.970130     9A     -0.796901
      10A     -0.767019    11A     -0.733783    12A     -0.593991
      13A     -0.582708    14A     -0.565250    15A     -0.549558
      16A     -0.525057    17A     -0.349761    18A     -0.290170

  @DF-RHF Final Energy:  -208.88056456689824

   => Energetics <=

    Nuclear Repulsion Energy =            160.2193429358746641
    One-Electron Energy =                -598.9894180052012871
    Two-Electron Energy =                 229.8895105024283509
    Total Energy =                       -208.8805645668982436
  Basis Set: (AUG-CC-PVTZ AUX)
    Blend: AUG-CC-PVTZ-RI
    Molecular point group: c1

    Geometry (in Angstrom), charge = 0, multiplicity = 1:

       Center              X                  Y                   Z               Mass
    ------------   -----------------  -----------------  -----------------  -----------------
         N           -1.127931004466     0.002684120224     0.000022359374    14.003074004430
         C           -0.341948004466     1.128520120224    -0.000003640626    12.000000000000
         C           -0.341925004466    -1.123134879776     0.000020359374    12.000000000000
         C            1.024389495534     0.696878220224    -0.000034740626    12.000000000000
         C            0.976726995534    -0.706527879776    -0.000008640626    12.000000000000
         H           -2.138740004466     0.002675120224     0.000059359374     1.007825032230
         H           -0.778973004466     2.117301120224    -0.000016640626     1.007825032230
         H           -0.778927004466    -2.111924879776     0.000044359374     1.007825032230
         H            1.842143995534     1.361293120224    -0.000060640626     1.007825032230
         H            1.842171995534    -1.355862879776    -0.000019640626     1.007825032230

  Basis Set: AUG-CC-PVTZ
    Blend: AUG-CC-PVTZ
  Basis Set: (AUG-CC-PVTZ AUX)
    Blend: AUG-CC-PVTZ-JKFIT
	 Reference Energy          =    -208.8805645668982436 [Eh]
	 Singles Energy            =      -0.0000000000000000 [Eh]
	 Same-Spin Energy          =      -0.2310726301814844 [Eh]
	 Opposite-Spin Energy      =      -0.7242616858750432 [Eh]
	 Correlation Energy        =      -0.9553343160565277 [Eh]
	 Total Energy              =    -209.8358988829547798 [Eh]

	 ================> DF-SCS-MP2 Energies <==================
	-----------------------------------------------------------
	 SCS Same-Spin Scale       =       0.3333333333333333 [-]
	 SCS Opposite-Spin Scale   =       1.2000000000000000 [-]
	 SCS Same-Spin Energy      =      -0.0770242100604948 [Eh]
	 SCS Opposite-Spin Energy  =      -0.8691140230500519 [Eh]
	 SCS Correlation Energy    =      -0.9461382331105467 [Eh]
	 SCS Total Energy          =    -209.8267028000088033 [Eh]
	-----------------------------------------------------------

  Dipole Moment: [D]
     X:    -1.8956      Y:    -0.0134      Z:     0.0001     Total:     1.8956

*** Psi4 exiting successfully. Buy a developer a beer!
