                               Psi4 1.3.2 release

  ==> Input File <==

--------------------------------------------------------------------------
#psi4
#
memory 32 gb

molecule  {
0 1
  N       -1.0800931    -0.0267566     0.0000221
  C       -0.3338800     1.1258240    -0.0000040
  C       -0.3338570    -1.1258310     0.0000200
  C        0.9847800     0.7092440    -0.0000340
  C        0.9847950    -0.7092240    -0.0000090
  H       -2.1306720    -0.0000210     0.0000590
  H       -0.7709050     2.1146050    -0.0000170
  H       -0.7708590    -2.1146210     0.0000440
  H        1.8502120     1.3585970    -0.0000610
  H        1.8502400    -1.3585590    -0.0000200
units angstrom
no_reorient  #important for SAPT in psi4, default
symmetry c1  #important for SAPT in psi4, default
}

set PROPERTIES_ORIGIN ["COM"]
properties('MP2/aug-cc-pvtz', properties = ['dipole'])
--------------------------------------------------------------------------

    Molecular point group: c1
  Charge       = 0
  Multiplicity = 1
  Basis Set: AUG-CC-PVTZ
    Blend: AUG-CC-PVTZ
  Basis Set: (AUG-CC-PVTZ AUX)
    Blend: AUG-CC-PVTZ-JKFIT

    Orbital Energies [Eh]
    ---------------------

    Doubly Occupied:

       1A    -15.612019     2A    -11.251025     3A    -11.250466
       4A    -11.210384     5A    -11.206257     6A     -1.300729
       7A     -1.035164     8A     -0.981278     9A     -0.781748
      10A     -0.768736    11A     -0.737548    12A     -0.594804
      13A     -0.577661    14A     -0.574242    15A     -0.543330
      16A     -0.526983    17A     -0.344929    18A     -0.296639

  @DF-RHF Final Energy:  -208.88135182652118

   => Energetics <=

    Nuclear Repulsion Energy =            161.5323003211751143
    One-Electron Energy =                -601.6394220542496214
    Two-Electron Energy =                 231.2257699065533245
    Total Energy =                       -208.8813518265211826
  Basis Set: (AUG-CC-PVTZ AUX)
    Blend: AUG-CC-PVTZ-RI
    Molecular point group: c1

    Geometry (in Angstrom), charge = 0, multiplicity = 1:

       Center              X                  Y                   Z               Mass
    ------------   -----------------  -----------------  -----------------  -----------------
         N           -1.087933946835    -0.021170302910     0.000022241596    14.003074004430
         C           -0.341720846835     1.131410297090    -0.000003858404    12.000000000000
         C           -0.341697846835    -1.120244702910     0.000020141596    12.000000000000
         C            0.976939153165     0.714830297090    -0.000033858404    12.000000000000
         C            0.976954153165    -0.703637702910    -0.000008858404    12.000000000000
         H           -2.138512846835     0.005565297090     0.000059141596     1.007825032230
         H           -0.778745846835     2.120191297090    -0.000016858404     1.007825032230
         H           -0.778699846835    -2.109034702910     0.000044141596     1.007825032230
         H            1.842371153165     1.364183297090    -0.000060858404     1.007825032230
         H            1.842399153165    -1.352972702910    -0.000019858404     1.007825032230

  Basis Set: AUG-CC-PVTZ
    Blend: AUG-CC-PVTZ
  Basis Set: (AUG-CC-PVTZ AUX)
    Blend: AUG-CC-PVTZ-JKFIT
	 Reference Energy          =    -208.8813518265211826 [Eh]
	 Singles Energy            =      -0.0000000000000000 [Eh]
	 Same-Spin Energy          =      -0.2309580624749066 [Eh]
	 Opposite-Spin Energy      =      -0.7232528680261557 [Eh]
	 Correlation Energy        =      -0.9542109305010624 [Eh]
	 Total Energy              =    -209.8355627570222453 [Eh]

	 ================> DF-SCS-MP2 Energies <==================
	-----------------------------------------------------------
	 SCS Same-Spin Scale       =       0.3333333333333333 [-]
	 SCS Opposite-Spin Scale   =       1.2000000000000000 [-]
	 SCS Same-Spin Energy      =      -0.0769860208249689 [Eh]
	 SCS Opposite-Spin Energy  =      -0.8679034416313869 [Eh]
	 SCS Correlation Energy    =      -0.9448894624563557 [Eh]
	 SCS Total Energy          =    -209.8262412889775419 [Eh]
	-----------------------------------------------------------

  Dipole Moment: [D]
     X:    -2.0047      Y:     0.0075      Z:     0.0001     Total:     2.0047

*** Psi4 exiting successfully. Buy a developer a beer!
