                               Psi4 1.3.2 release

  ==> Input File <==

--------------------------------------------------------------------------
#psi4
#
memory 32 gb

molecule  {
0 1
  N       -1.1198630    -0.0000120     0.0000220
  C       -0.3338800     1.1258240    -0.0000040
  C       -0.3338570    -1.1258310     0.0000200
  C        0.9847800     0.7092440    -0.0000340
  C        1.0342988    -0.7083594    -0.0000099
  H       -2.1306720    -0.0000210     0.0000590
  H       -0.7709050     2.1146050    -0.0000170
  H       -0.7708590    -2.1146210     0.0000440
  H        1.8502120     1.3585970    -0.0000610
  H        1.8502400    -1.3585590    -0.0000200
units angstrom
no_reorient  #important for SAPT in psi4, default
symmetry c1  #important for SAPT in psi4, default
}

set PROPERTIES_ORIGIN ["COM"]
properties('MP2/aug-cc-pvtz', properties = ['dipole'])
--------------------------------------------------------------------------

    Molecular point group: c1
  Charge       = 0
  Multiplicity = 1
  Basis Set: AUG-CC-PVTZ
    Blend: AUG-CC-PVTZ
  Basis Set: (AUG-CC-PVTZ AUX)
    Blend: AUG-CC-PVTZ-JKFIT

    Orbital Energies [Eh]
    ---------------------

    Doubly Occupied:

       1A    -15.612249     2A    -11.260494     3A    -11.253279
       4A    -11.213864     5A    -11.212559     6A     -1.288264
       7A     -1.039279     8A     -0.970903     9A     -0.796381
      10A     -0.768218    11A     -0.733647    12A     -0.595063
      13A     -0.582570    14A     -0.564899    15A     -0.551563
      16A     -0.522858    17A     -0.347866    18A     -0.291469

  @DF-RHF Final Energy:  -208.88051142835766

   => Energetics <=

    Nuclear Repulsion Energy =            160.0547790295738935
    One-Electron Energy =                -598.6597325617956358
    Two-Electron Energy =                 229.7244421038641065
    Total Energy =                       -208.8805114283576643
  Basis Set: (AUG-CC-PVTZ AUX)
    Blend: AUG-CC-PVTZ-RI
    Molecular point group: c1

    Geometry (in Angstrom), charge = 0, multiplicity = 1:

       Center              X                  Y                   Z               Mass
    ------------   -----------------  -----------------  -----------------  -----------------
         N           -1.128257897084    -0.000166591751     0.000022323576    14.003074004430
         C           -0.342274897084     1.125669408249    -0.000003676424    12.000000000000
         C           -0.342251897084    -1.125985591751     0.000020323576    12.000000000000
         C            0.976385102916     0.709089408249    -0.000033676424    12.000000000000
         C            1.025903902916    -0.708513991751    -0.000009576424    12.000000000000
         H           -2.139066897084    -0.000175591751     0.000059323576     1.007825032230
         H           -0.779299897084     2.114450408249    -0.000016676424     1.007825032230
         H           -0.779253897084    -2.114775591751     0.000044323576     1.007825032230
         H            1.841817102916     1.358442408249    -0.000060676424     1.007825032230
         H            1.841845102916    -1.358713591751    -0.000019676424     1.007825032230

  Basis Set: AUG-CC-PVTZ
    Blend: AUG-CC-PVTZ
  Basis Set: (AUG-CC-PVTZ AUX)
    Blend: AUG-CC-PVTZ-JKFIT
	 Reference Energy          =    -208.8805114283576643 [Eh]
	 Singles Energy            =      -0.0000000000000000 [Eh]
	 Same-Spin Energy          =      -0.2308685612076390 [Eh]
	 Opposite-Spin Energy      =      -0.7241201745552921 [Eh]
	 Correlation Energy        =      -0.9549887357629312 [Eh]
	 Total Energy              =    -209.8355001641205888 [Eh]

	 ================> DF-SCS-MP2 Energies <==================
	-----------------------------------------------------------
	 SCS Same-Spin Scale       =       0.3333333333333333 [-]
	 SCS Opposite-Spin Scale   =       1.2000000000000000 [-]
	 SCS Same-Spin Energy      =      -0.0769561870692130 [Eh]
	 SCS Opposite-Spin Energy  =      -0.8689442094663505 [Eh]
	 SCS Correlation Energy    =      -0.9459003965355636 [Eh]
	 SCS Total Energy          =    -209.8264118248932277 [Eh]
	-----------------------------------------------------------

  Dipole Moment: [D]
     X:    -1.8992      Y:     0.0142      Z:     0.0001     Total:     1.8993

*** Psi4 exiting successfully. Buy a developer a beer!
