                               Psi4 1.3.2 release

  ==> Input File <==

--------------------------------------------------------------------------
#psi4
#
memory 32 gb

molecule  {
0 1
  N       -1.1198630    -0.0000120     0.0000220
  C       -0.3338800     1.1258240    -0.0000040
  C       -0.3338570    -1.1258310     0.0000200
  C        0.9847800     0.7092440    -0.0000340
  C        0.9847950    -0.7092240    -0.0000090
  H       -2.1306720    -0.0000210     0.0000590
  H       -0.8113308     2.2060695    -0.0000182
  H       -0.7708590    -2.1146210     0.0000440
  H        1.8502120     1.3585970    -0.0000610
  H        1.8502400    -1.3585590    -0.0000200
units angstrom
no_reorient  #important for SAPT in psi4, default
symmetry c1  #important for SAPT in psi4, default
}

set PROPERTIES_ORIGIN ["COM"]
properties('MP2/aug-cc-pvtz', properties = ['dipole'])
--------------------------------------------------------------------------

    Molecular point group: c1
  Charge       = 0
  Multiplicity = 1
  Basis Set: AUG-CC-PVTZ
    Blend: AUG-CC-PVTZ
  Basis Set: (AUG-CC-PVTZ AUX)
    Blend: AUG-CC-PVTZ-JKFIT

    Orbital Energies [Eh]
    ---------------------

    Doubly Occupied:

       1A    -15.609095     2A    -11.265079     3A    -11.254549
       4A    -11.212198     5A    -11.211123     6A     -1.290079
       7A     -1.041401     8A     -0.971639     9A     -0.791027
      10A     -0.764997    11A     -0.722205    12A     -0.591380
      13A     -0.571904    14A     -0.567293    15A     -0.545133
      16A     -0.524809    17A     -0.348104    18A     -0.297097

  @DF-RHF Final Energy:  -208.87787165393556

   => Energetics <=

    Nuclear Repulsion Energy =            160.3113038983840397
    One-Electron Energy =                -599.2201251620482481
    Two-Electron Energy =                 230.0309496097286512
    Total Energy =                       -208.8778716539355571
  Basis Set: (AUG-CC-PVTZ AUX)
    Blend: AUG-CC-PVTZ-RI
    Molecular point group: c1

    Geometry (in Angstrom), charge = 0, multiplicity = 1:

       Center              X                  Y                   Z               Mass
    ------------   -----------------  -----------------  -----------------  -----------------
         N           -1.118789416916    -0.001386793559     0.000022180523    14.003074004430
         C           -0.332806416916     1.124449206441    -0.000003819477    12.000000000000
         C           -0.332783416916    -1.127205793559     0.000020180523    12.000000000000
         C            0.985853583084     0.707869206441    -0.000033819477    12.000000000000
         C            0.985868583084    -0.710598793559    -0.000008819477    12.000000000000
         H           -2.129598416916    -0.001395793559     0.000059180523     1.007825032230
         H           -0.810257216916     2.204694706441    -0.000018019477     1.007825032230
         H           -0.769785416916    -2.115995793559     0.000044180523     1.007825032230
         H            1.851285583084     1.357222206441    -0.000060819477     1.007825032230
         H            1.851313583084    -1.359933793559    -0.000019819477     1.007825032230

  Basis Set: AUG-CC-PVTZ
    Blend: AUG-CC-PVTZ
  Basis Set: (AUG-CC-PVTZ AUX)
    Blend: AUG-CC-PVTZ-JKFIT
	 Reference Energy          =    -208.8778716539355571 [Eh]
	 Singles Energy            =      -0.0000000000000000 [Eh]
	 Same-Spin Energy          =      -0.2305703003215694 [Eh]
	 Opposite-Spin Energy      =      -0.7239178828733857 [Eh]
	 Correlation Energy        =      -0.9544881831949551 [Eh]
	 Total Energy              =    -209.8323598371305252 [Eh]

	 ================> DF-SCS-MP2 Energies <==================
	-----------------------------------------------------------
	 SCS Same-Spin Scale       =       0.3333333333333333 [-]
	 SCS Opposite-Spin Scale   =       1.2000000000000000 [-]
	 SCS Same-Spin Energy      =      -0.0768567667738565 [Eh]
	 SCS Opposite-Spin Energy  =      -0.8687014594480628 [Eh]
	 SCS Correlation Energy    =      -0.9455582262219192 [Eh]
	 SCS Total Energy          =    -209.8234298801574766 [Eh]
	-----------------------------------------------------------

  Dipole Moment: [D]
     X:    -1.8635      Y:    -0.0138      Z:     0.0001     Total:     1.8636

*** Psi4 exiting successfully. Buy a developer a beer!
