                               Psi4 1.3.2 release

  ==> Input File <==

--------------------------------------------------------------------------
#psi4
#
memory 32 gb

molecule  {
0 1
  N       -1.1198630    -0.0000120     0.0000220
  C       -0.3338800     1.1258240    -0.0000040
  C       -0.3338570    -1.1258310     0.0000200
  C        0.9847800     0.7092440    -0.0000340
  C        0.9352912    -0.7083604    -0.0000081
  H       -2.1306720    -0.0000210     0.0000590
  H       -0.7709050     2.1146050    -0.0000170
  H       -0.7708590    -2.1146210     0.0000440
  H        1.8502120     1.3585970    -0.0000610
  H        1.8502400    -1.3585590    -0.0000200
units angstrom
no_reorient  #important for SAPT in psi4, default
symmetry c1  #important for SAPT in psi4, default
}

set PROPERTIES_ORIGIN ["COM"]
properties('MP2/aug-cc-pvtz', properties = ['dipole'])
--------------------------------------------------------------------------

    Molecular point group: c1
  Charge       = 0
  Multiplicity = 1
  Basis Set: AUG-CC-PVTZ
    Blend: AUG-CC-PVTZ
  Basis Set: (AUG-CC-PVTZ AUX)
    Blend: AUG-CC-PVTZ-JKFIT

    Orbital Energies [Eh]
    ---------------------

    Doubly Occupied:

       1A    -15.604266     2A    -11.255037     3A    -11.247418
       4A    -11.209617     5A    -11.208135     6A     -1.291523
       7A     -1.042601     8A     -0.980274     9A     -0.789041
      10A     -0.762111    11A     -0.736013    12A     -0.588871
      13A     -0.581118    14A     -0.568819    15A     -0.551098
      16A     -0.520189    17A     -0.347830    18A     -0.301954

  @DF-RHF Final Energy:  -208.88328849301220

   => Energetics <=

    Nuclear Repulsion Energy =            161.4892247999097208
    One-Electron Energy =                -601.5731937108690772
    Two-Electron Energy =                 231.2006804179471544
    Total Energy =                       -208.8832884930122020
  Basis Set: (AUG-CC-PVTZ AUX)
    Blend: AUG-CC-PVTZ-RI
    Molecular point group: c1

    Geometry (in Angstrom), charge = 0, multiplicity = 1:

       Center              X                  Y                   Z               Mass
    ------------   -----------------  -----------------  -----------------  -----------------
         N           -1.110536354313    -0.000166412759     0.000022001391    14.003074004430
         C           -0.324553354313     1.125669587241    -0.000003998609    12.000000000000
         C           -0.324530354313    -1.125985412759     0.000020001391    12.000000000000
         C            0.994106645687     0.709089587241    -0.000033998609    12.000000000000
         C            0.944617845687    -0.708514812759    -0.000008098609    12.000000000000
         H           -2.121345354313    -0.000175412759     0.000059001391     1.007825032230
         H           -0.761578354313     2.114450587241    -0.000016998609     1.007825032230
         H           -0.761532354313    -2.114775412759     0.000044001391     1.007825032230
         H            1.859538645687     1.358442587241    -0.000060998609     1.007825032230
         H            1.859566645687    -1.358713412759    -0.000019998609     1.007825032230

  Basis Set: AUG-CC-PVTZ
    Blend: AUG-CC-PVTZ
  Basis Set: (AUG-CC-PVTZ AUX)
    Blend: AUG-CC-PVTZ-JKFIT
	 Reference Energy          =    -208.8832884930122020 [Eh]
	 Singles Energy            =      -0.0000000000000000 [Eh]
	 Same-Spin Energy          =      -0.2299596139674617 [Eh]
	 Opposite-Spin Energy      =      -0.7222298479370354 [Eh]
	 Correlation Energy        =      -0.9521894619044970 [Eh]
	 Total Energy              =    -209.8354779549167120 [Eh]

	 ================> DF-SCS-MP2 Energies <==================
	-----------------------------------------------------------
	 SCS Same-Spin Scale       =       0.3333333333333333 [-]
	 SCS Opposite-Spin Scale   =       1.2000000000000000 [-]
	 SCS Same-Spin Energy      =      -0.0766532046558206 [Eh]
	 SCS Opposite-Spin Energy  =      -0.8666758175244424 [Eh]
	 SCS Correlation Energy    =      -0.9433290221802630 [Eh]
	 SCS Total Energy          =    -209.8266175151924529 [Eh]
	-----------------------------------------------------------

  Dipole Moment: [D]
     X:    -1.8481      Y:    -0.0079      Z:     0.0001     Total:     1.8481

*** Psi4 exiting successfully. Buy a developer a beer!
