                               Psi4 1.3.2 release

  ==> Input File <==

--------------------------------------------------------------------------
#psi4
#
memory 32 gb

molecule  {
0 1
  N       -1.1198630    -0.0000120     0.0000220
  C       -0.3338800     1.1258240    -0.0000040
  C       -0.3338570    -1.1258310     0.0000200
  C        0.9847800     0.7092440    -0.0000340
  C        0.9847939    -0.6092240    -0.0000108
  H       -2.1306720    -0.0000210     0.0000590
  H       -0.7709050     2.1146050    -0.0000170
  H       -0.7708590    -2.1146210     0.0000440
  H        1.8502120     1.3585970    -0.0000610
  H        1.8502400    -1.3585590    -0.0000200
units angstrom
no_reorient  #important for SAPT in psi4, default
symmetry c1  #important for SAPT in psi4, default
}

set PROPERTIES_ORIGIN ["COM"]
properties('MP2/aug-cc-pvtz', properties = ['dipole'])
--------------------------------------------------------------------------

    Molecular point group: c1
  Charge       = 0
  Multiplicity = 1
  Basis Set: AUG-CC-PVTZ
    Blend: AUG-CC-PVTZ
  Basis Set: (AUG-CC-PVTZ AUX)
    Blend: AUG-CC-PVTZ-JKFIT

    Orbital Energies [Eh]
    ---------------------

    Doubly Occupied:

       1A    -15.613772     2A    -11.253047     3A    -11.251751
       4A    -11.210290     5A    -11.202366     6A     -1.293938
       7A     -1.058485     8A     -0.968613     9A     -0.802248
      10A     -0.757064    11A     -0.733719    12A     -0.591265
      13A     -0.583569    14A     -0.569620    15A     -0.551504
      16A     -0.515494    17A     -0.362203    18A     -0.286026

  @DF-RHF Final Energy:  -208.86939940754121

   => Energetics <=

    Nuclear Repulsion Energy =            161.7830050640008039
    One-Electron Energy =                -602.0948602326901664
    Two-Electron Energy =                 231.4424557611481532
    Total Energy =                       -208.8693994075412093
  Basis Set: (AUG-CC-PVTZ AUX)
    Blend: AUG-CC-PVTZ-RI
    Molecular point group: c1

    Geometry (in Angstrom), charge = 0, multiplicity = 1:

       Center              X                  Y                   Z               Mass
    ------------   -----------------  -----------------  -----------------  -----------------
         N           -1.119396928807    -0.017911009667     0.000022484669    14.003074004430
         C           -0.333413928807     1.107924990333    -0.000003515331    12.000000000000
         C           -0.333390928807    -1.143730009667     0.000020484669    12.000000000000
         C            0.985246071193     0.691344990333    -0.000033515331    12.000000000000
         C            0.985259971193    -0.627123009667    -0.000010315331    12.000000000000
         H           -2.130205928807    -0.017920009667     0.000059484669     1.007825032230
         H           -0.770438928807     2.096705990333    -0.000016515331     1.007825032230
         H           -0.770392928807    -2.132520009667     0.000044484669     1.007825032230
         H            1.850678071193     1.340697990333    -0.000060515331     1.007825032230
         H            1.850706071193    -1.376458009667    -0.000019515331     1.007825032230

  Basis Set: AUG-CC-PVTZ
    Blend: AUG-CC-PVTZ
  Basis Set: (AUG-CC-PVTZ AUX)
    Blend: AUG-CC-PVTZ-JKFIT
	 Reference Energy          =    -208.8693994075412093 [Eh]
	 Singles Energy            =      -0.0000000000000000 [Eh]
	 Same-Spin Energy          =      -0.2321803752007247 [Eh]
	 Opposite-Spin Energy      =      -0.7251076038278115 [Eh]
	 Correlation Energy        =      -0.9572879790285361 [Eh]
	 Total Energy              =    -209.8266873865697448 [Eh]

	 ================> DF-SCS-MP2 Energies <==================
	-----------------------------------------------------------
	 SCS Same-Spin Scale       =       0.3333333333333333 [-]
	 SCS Opposite-Spin Scale   =       1.2000000000000000 [-]
	 SCS Same-Spin Energy      =      -0.0773934584002416 [Eh]
	 SCS Opposite-Spin Energy  =      -0.8701291245933738 [Eh]
	 SCS Correlation Energy    =      -0.9475225829936154 [Eh]
	 SCS Total Energy          =    -209.8169219905348371 [Eh]
	-----------------------------------------------------------

  Dipole Moment: [D]
     X:    -1.8730      Y:     0.0235      Z:     0.0001     Total:     1.8732

*** Psi4 exiting successfully. Buy a developer a beer!
