                               Psi4 1.3.2 release

  ==> Input File <==

--------------------------------------------------------------------------
#psi4
#
memory 32 gb

molecule  {
0 1
  N       -1.1198630    -0.0000120     0.0000220
  C       -0.3338800     1.1258240    -0.0000040
  C       -0.3338570    -1.1258310     0.0000200
  C        0.9847800     0.7092440    -0.0000340
  C        1.0837423    -0.7057676    -0.0000108
  H       -2.1306720    -0.0000210     0.0000590
  H       -0.7709050     2.1146050    -0.0000170
  H       -0.7708590    -2.1146210     0.0000440
  H        1.8502120     1.3585970    -0.0000610
  H        1.8502400    -1.3585590    -0.0000200
units angstrom
no_reorient  #important for SAPT in psi4, default
symmetry c1  #important for SAPT in psi4, default
}

set PROPERTIES_ORIGIN ["COM"]
properties('MP2/aug-cc-pvtz', properties = ['dipole'])
--------------------------------------------------------------------------

    Molecular point group: c1
  Charge       = 0
  Multiplicity = 1
  Basis Set: AUG-CC-PVTZ
    Blend: AUG-CC-PVTZ
  Basis Set: (AUG-CC-PVTZ AUX)
    Blend: AUG-CC-PVTZ-JKFIT

    Orbital Energies [Eh]
    ---------------------

    Doubly Occupied:

       1A    -15.616370     2A    -11.266455     3A    -11.252516
       4A    -11.216539     5A    -11.214917     6A     -1.287600
       7A     -1.038248     8A     -0.967235     9A     -0.802347
      10A     -0.770273    11A     -0.732939    12A     -0.600846
      13A     -0.582172    14A     -0.563690    15A     -0.560279
      16A     -0.511146    17A     -0.348815    18A     -0.286429

  @DF-RHF Final Energy:  -208.86908531920955

   => Energetics <=

    Nuclear Repulsion Energy =            159.4036236457019982
    One-Electron Energy =                -597.3077852769098399
    Two-Electron Energy =                 229.0350763119982958
    Total Energy =                       -208.8690853192095460
  Basis Set: (AUG-CC-PVTZ AUX)
    Blend: AUG-CC-PVTZ-RI
    Molecular point group: c1

    Geometry (in Angstrom), charge = 0, multiplicity = 1:

       Center              X                  Y                   Z               Mass
    ------------   -----------------  -----------------  -----------------  -----------------
         N           -1.137107875268    -0.000630502547     0.000022484669    14.003074004430
         C           -0.351124875268     1.125205497453    -0.000003515331    12.000000000000
         C           -0.351101875268    -1.126449502547     0.000020484669    12.000000000000
         C            0.967535124732     0.708625497453    -0.000033515331    12.000000000000
         C            1.066497424732    -0.706386102547    -0.000010315331    12.000000000000
         H           -2.147916875268    -0.000639502547     0.000059484669     1.007825032230
         H           -0.788149875268     2.113986497453    -0.000016515331     1.007825032230
         H           -0.788103875268    -2.115239502547     0.000044484669     1.007825032230
         H            1.832967124732     1.357978497453    -0.000060515331     1.007825032230
         H            1.832995124732    -1.359177502547    -0.000019515331     1.007825032230

  Basis Set: AUG-CC-PVTZ
    Blend: AUG-CC-PVTZ
  Basis Set: (AUG-CC-PVTZ AUX)
    Blend: AUG-CC-PVTZ-JKFIT
	 Reference Energy          =    -208.8690853192095460 [Eh]
	 Singles Energy            =      -0.0000000000000000 [Eh]
	 Same-Spin Energy          =      -0.2314756331890856 [Eh]
	 Opposite-Spin Energy      =      -0.7255130989480567 [Eh]
	 Correlation Energy        =      -0.9569887321371424 [Eh]
	 Total Energy              =    -209.8260740513466942 [Eh]

	 ================> DF-SCS-MP2 Energies <==================
	-----------------------------------------------------------
	 SCS Same-Spin Scale       =       0.3333333333333333 [-]
	 SCS Opposite-Spin Scale   =       1.2000000000000000 [-]
	 SCS Same-Spin Energy      =      -0.0771585443963619 [Eh]
	 SCS Opposite-Spin Energy  =      -0.8706157187376681 [Eh]
	 SCS Correlation Energy    =      -0.9477742631340300 [Eh]
	 SCS Total Energy          =    -209.8168595823435680 [Eh]
	-----------------------------------------------------------

  Dipole Moment: [D]
     X:    -1.9295      Y:     0.0345      Z:     0.0001     Total:     1.9298

*** Psi4 exiting successfully. Buy a developer a beer!
