                               Psi4 1.3.2 release

  ==> Input File <==

--------------------------------------------------------------------------
#psi4
#
memory 32 gb

molecule  {
0 1
  N       -1.1198630    -0.0000120     0.0000220
  C       -0.3338800     1.1258240    -0.0000040
  C       -0.3338570    -1.1258310     0.0000200
  C        0.9847800     0.7092440    -0.0000340
  C        0.9847950    -0.7092240    -0.0000090
  H       -2.1306720    -0.0000210     0.0000590
  H       -0.8517566     2.2975340    -0.0000194
  H       -0.7708590    -2.1146210     0.0000440
  H        1.8502120     1.3585970    -0.0000610
  H        1.8502400    -1.3585590    -0.0000200
units angstrom
no_reorient  #important for SAPT in psi4, default
symmetry c1  #important for SAPT in psi4, default
}

set PROPERTIES_ORIGIN ["COM"]
properties('MP2/aug-cc-pvtz', properties = ['dipole'])
--------------------------------------------------------------------------

    Molecular point group: c1
  Charge       = 0
  Multiplicity = 1
  Basis Set: AUG-CC-PVTZ
    Blend: AUG-CC-PVTZ
  Basis Set: (AUG-CC-PVTZ AUX)
    Blend: AUG-CC-PVTZ-JKFIT

    Orbital Energies [Eh]
    ---------------------

    Doubly Occupied:

       1A    -15.610209     2A    -11.275061     3A    -11.255188
       4A    -11.213183     5A    -11.212038     6A     -1.290884
       7A     -1.042259     8A     -0.969480     9A     -0.791093
      10A     -0.765171    11A     -0.712454    12A     -0.592282
      13A     -0.568207    14A     -0.563749    15A     -0.544667
      16A     -0.516955    17A     -0.348875    18A     -0.297750

  @DF-RHF Final Energy:  -208.86245096659587

   => Energetics <=

    Nuclear Repulsion Energy =            159.9230591034845474
    One-Electron Energy =                -598.4320101427464351
    Two-Electron Energy =                 229.6465000726660151
    Total Energy =                       -208.8624509665958726
  Basis Set: (AUG-CC-PVTZ AUX)
    Blend: AUG-CC-PVTZ-RI
    Molecular point group: c1

    Geometry (in Angstrom), charge = 0, multiplicity = 1:

       Center              X                  Y                   Z               Mass
    ------------   -----------------  -----------------  -----------------  -----------------
         N           -1.118181708135    -0.002761751627     0.000022198562    14.003074004430
         C           -0.332198708135     1.123074248373    -0.000003801438    12.000000000000
         C           -0.332175708135    -1.128580751627     0.000020198562    12.000000000000
         C            0.986461291865     0.706494248373    -0.000033801438    12.000000000000
         C            0.986476291865    -0.711973751627    -0.000008801438    12.000000000000
         H           -2.128990708135    -0.002770751627     0.000059198562     1.007825032230
         H           -0.850075308135     2.294784248373    -0.000019201438     1.007825032230
         H           -0.769177708135    -2.117370751627     0.000044198562     1.007825032230
         H            1.851893291865     1.355847248373    -0.000060801438     1.007825032230
         H            1.851921291865    -1.361308751627    -0.000019801438     1.007825032230

  Basis Set: AUG-CC-PVTZ
    Blend: AUG-CC-PVTZ
  Basis Set: (AUG-CC-PVTZ AUX)
    Blend: AUG-CC-PVTZ-JKFIT
	 Reference Energy          =    -208.8624509665958726 [Eh]
	 Singles Energy            =      -0.0000000000000000 [Eh]
	 Same-Spin Energy          =      -0.2308297046203548 [Eh]
	 Opposite-Spin Energy      =      -0.7251414634248576 [Eh]
	 Correlation Energy        =      -0.9559711680452125 [Eh]
	 Total Energy              =    -209.8184221346410823 [Eh]

	 ================> DF-SCS-MP2 Energies <==================
	-----------------------------------------------------------
	 SCS Same-Spin Scale       =       0.3333333333333333 [-]
	 SCS Opposite-Spin Scale   =       1.2000000000000000 [-]
	 SCS Same-Spin Energy      =      -0.0769432348734516 [Eh]
	 SCS Opposite-Spin Energy  =      -0.8701697561098292 [Eh]
	 SCS Correlation Energy    =      -0.9471129909832807 [Eh]
	 SCS Total Energy          =    -209.8095639575791438 [Eh]
	-----------------------------------------------------------

  Dipole Moment: [D]
     X:    -1.8512      Y:    -0.0383      Z:     0.0001     Total:     1.8516

*** Psi4 exiting successfully. Buy a developer a beer!
