                               Psi4 1.3.2 release

  ==> Input File <==

--------------------------------------------------------------------------
#psi4
#
memory 32 gb

molecule  {
0 1
  N       -1.1198630    -0.0000120     0.0000220
  C       -0.3338800     1.1258240    -0.0000040
  C       -0.3338570    -1.1258310     0.0000200
  C        0.9847800     0.7092440    -0.0000340
  C        0.9847961    -0.8092240    -0.0000072
  H       -2.1306720    -0.0000210     0.0000590
  H       -0.7709050     2.1146050    -0.0000170
  H       -0.7708590    -2.1146210     0.0000440
  H        1.8502120     1.3585970    -0.0000610
  H        1.8502400    -1.3585590    -0.0000200
units angstrom
no_reorient  #important for SAPT in psi4, default
symmetry c1  #important for SAPT in psi4, default
}

set PROPERTIES_ORIGIN ["COM"]
properties('MP2/aug-cc-pvtz', properties = ['dipole'])
--------------------------------------------------------------------------

    Molecular point group: c1
  Charge       = 0
  Multiplicity = 1
  Basis Set: AUG-CC-PVTZ
    Blend: AUG-CC-PVTZ
  Basis Set: (AUG-CC-PVTZ AUX)
    Blend: AUG-CC-PVTZ-JKFIT

    Orbital Energies [Eh]
    ---------------------

    Doubly Occupied:

       1A    -15.604135     2A    -11.256557     3A    -11.256182
       4A    -11.217579     5A    -11.212255     6A     -1.286184
       7A     -1.029363     8A     -0.980339     9A     -0.788686
      10A     -0.771870    11A     -0.733217    12A     -0.603770
      13A     -0.582145    14A     -0.564669    15A     -0.561094
      16A     -0.500483    17A     -0.337770    18A     -0.306132

  @DF-RHF Final Energy:  -208.87716190156328

   => Energetics <=

    Nuclear Repulsion Energy =            159.8059199050314305
    One-Electron Energy =                -598.1813071107087580
    Two-Electron Energy =                 229.4982253041140439
    Total Energy =                       -208.8771619015632837
  Basis Set: (AUG-CC-PVTZ AUX)
    Blend: AUG-CC-PVTZ-RI
    Molecular point group: c1

    Geometry (in Angstrom), charge = 0, multiplicity = 1:

       Center              X                  Y                   Z               Mass
    ------------   -----------------  -----------------  -----------------  -----------------
         N           -1.119397322589     0.017887338685     0.000021840298    14.003074004430
         C           -0.333414322589     1.143723338685    -0.000004159702    12.000000000000
         C           -0.333391322589    -1.107931661315     0.000019840298    12.000000000000
         C            0.985245677411     0.727143338685    -0.000034159702    12.000000000000
         C            0.985261777411    -0.791324661315    -0.000007359702    12.000000000000
         H           -2.130206322589     0.017878338685     0.000058840298     1.007825032230
         H           -0.770439322589     2.132504338685    -0.000017159702     1.007825032230
         H           -0.770393322589    -2.096721661315     0.000043840298     1.007825032230
         H            1.850677677411     1.376496338685    -0.000061159702     1.007825032230
         H            1.850705677411    -1.340659661315    -0.000020159702     1.007825032230

  Basis Set: AUG-CC-PVTZ
    Blend: AUG-CC-PVTZ
  Basis Set: (AUG-CC-PVTZ AUX)
    Blend: AUG-CC-PVTZ-JKFIT
	 Reference Energy          =    -208.8771619015632837 [Eh]
	 Singles Energy            =      -0.0000000000000000 [Eh]
	 Same-Spin Energy          =      -0.2289885809463485 [Eh]
	 Opposite-Spin Energy      =      -0.7222875152784988 [Eh]
	 Correlation Energy        =      -0.9512760962248472 [Eh]
	 Total Energy              =    -209.8284379977881429 [Eh]

	 ================> DF-SCS-MP2 Energies <==================
	-----------------------------------------------------------
	 SCS Same-Spin Scale       =       0.3333333333333333 [-]
	 SCS Opposite-Spin Scale   =       1.2000000000000000 [-]
	 SCS Same-Spin Energy      =      -0.0763295269821161 [Eh]
	 SCS Opposite-Spin Energy  =      -0.8667450183341985 [Eh]
	 SCS Correlation Energy    =      -0.9430745453163146 [Eh]
	 SCS Total Energy          =    -209.8202364468795906 [Eh]
	-----------------------------------------------------------

  Dipole Moment: [D]
     X:    -1.8642      Y:     0.0001      Z:     0.0001     Total:     1.8642

*** Psi4 exiting successfully. Buy a developer a beer!
