                               Psi4 1.3.2 release

  ==> Input File <==

--------------------------------------------------------------------------
#psi4
#
memory 32 gb

molecule  {
0 1
  N       -1.1198630    -0.0000120     0.0000220
  C       -0.3536483     1.1393698    -0.0000038
  C       -0.3338570    -1.1258310     0.0000200
  C        0.9847800     0.7092440    -0.0000340
  C        0.9847950    -0.7092240    -0.0000090
  H       -2.1306720    -0.0000210     0.0000590
  H       -0.7709050     2.1146050    -0.0000170
  H       -0.7708590    -2.1146210     0.0000440
  H        1.8502120     1.3585970    -0.0000610
  H        1.8502400    -1.3585590    -0.0000200
units angstrom
no_reorient  #important for SAPT in psi4, default
symmetry c1  #important for SAPT in psi4, default
}

set PROPERTIES_ORIGIN ["COM"]
properties('MP2/aug-cc-pvtz', properties = ['dipole'])
--------------------------------------------------------------------------

    Molecular point group: c1
  Charge       = 0
  Multiplicity = 1
  Basis Set: AUG-CC-PVTZ
    Blend: AUG-CC-PVTZ
  Basis Set: (AUG-CC-PVTZ AUX)
    Blend: AUG-CC-PVTZ-JKFIT

    Orbital Energies [Eh]
    ---------------------

    Doubly Occupied:

       1A    -15.610023     2A    -11.254995     3A    -11.254449
       4A    -11.213655     5A    -11.211485     6A     -1.288835
       7A     -1.038452     8A     -0.975123     9A     -0.792172
      10A     -0.765279    11A     -0.737681    12A     -0.589086
      13A     -0.587854    14A     -0.565726    15A     -0.542893
      16A     -0.529482    17A     -0.346677    18A     -0.294725

  @DF-RHF Final Energy:  -208.88379714119094

   => Energetics <=

    Nuclear Repulsion Energy =            160.4311069975626651
    One-Electron Energy =                -599.4326232898828266
    Two-Electron Energy =                 230.1177191511292222
    Total Energy =                       -208.8837971411909393
  Basis Set: (AUG-CC-PVTZ AUX)
    Blend: AUG-CC-PVTZ-RI
    Molecular point group: c1

    Geometry (in Angstrom), charge = 0, multiplicity = 1:

       Center              X                  Y                   Z               Mass
    ------------   -----------------  -----------------  -----------------  -----------------
         N           -1.115858763250    -0.002436421826     0.000022126685    14.003074004430
         C           -0.349644063250     1.136945378174    -0.000003673315    12.000000000000
         C           -0.329852763250    -1.128255421826     0.000020126685    12.000000000000
         C            0.988784236750     0.706819578174    -0.000033873315    12.000000000000
         C            0.988799236750    -0.711648421826    -0.000008873315    12.000000000000
         H           -2.126667763250    -0.002445421826     0.000059126685     1.007825032230
         H           -0.766900763250     2.112180578174    -0.000016873315     1.007825032230
         H           -0.766854763250    -2.117045421826     0.000044126685     1.007825032230
         H            1.854216236750     1.356172578174    -0.000060873315     1.007825032230
         H            1.854244236750    -1.360983421826    -0.000019873315     1.007825032230

  Basis Set: AUG-CC-PVTZ
    Blend: AUG-CC-PVTZ
  Basis Set: (AUG-CC-PVTZ AUX)
    Blend: AUG-CC-PVTZ-JKFIT
	 Reference Energy          =    -208.8837971411909393 [Eh]
	 Singles Energy            =      -0.0000000000000000 [Eh]
	 Same-Spin Energy          =      -0.2306446186309207 [Eh]
	 Opposite-Spin Energy      =      -0.7235638049769830 [Eh]
	 Correlation Energy        =      -0.9542084236079037 [Eh]
	 Total Energy              =    -209.8380055647988343 [Eh]

	 ================> DF-SCS-MP2 Energies <==================
	-----------------------------------------------------------
	 SCS Same-Spin Scale       =       0.3333333333333333 [-]
	 SCS Opposite-Spin Scale   =       1.2000000000000000 [-]
	 SCS Same-Spin Energy      =      -0.0768815395436402 [Eh]
	 SCS Opposite-Spin Energy  =      -0.8682765659723796 [Eh]
	 SCS Correlation Energy    =      -0.9451581055160198 [Eh]
	 SCS Total Energy          =    -209.8289552467069541 [Eh]
	-----------------------------------------------------------

  Dipole Moment: [D]
     X:    -1.8850      Y:    -0.0217      Z:     0.0001     Total:     1.8852

*** Psi4 exiting successfully. Buy a developer a beer!
