                               Psi4 1.3.2 release

  ==> Input File <==

--------------------------------------------------------------------------
#psi4
#
memory 32 gb

molecule  {
0 1
  N       -1.1198630    -0.0000120     0.0000220
  C       -0.3597270     1.0328242    -0.0000026
  C       -0.3338570    -1.1258310     0.0000200
  C        0.9847800     0.7092440    -0.0000340
  C        0.9847950    -0.7092240    -0.0000090
  H       -2.1306720    -0.0000210     0.0000590
  H       -0.7709050     2.1146050    -0.0000170
  H       -0.7708590    -2.1146210     0.0000440
  H        1.8502120     1.3585970    -0.0000610
  H        1.8502400    -1.3585590    -0.0000200
units angstrom
no_reorient  #important for SAPT in psi4, default
symmetry c1  #important for SAPT in psi4, default
}

set PROPERTIES_ORIGIN ["COM"]
properties('MP2/aug-cc-pvtz', properties = ['dipole'])
--------------------------------------------------------------------------

    Molecular point group: c1
  Charge       = 0
  Multiplicity = 1
  Basis Set: AUG-CC-PVTZ
    Blend: AUG-CC-PVTZ
  Basis Set: (AUG-CC-PVTZ AUX)
    Blend: AUG-CC-PVTZ-JKFIT

    Orbital Energies [Eh]
    ---------------------

    Doubly Occupied:

       1A    -15.612142     2A    -11.255332     3A    -11.246212
       4A    -11.212054     5A    -11.203762     6A     -1.321117
       7A     -1.047345     8A     -0.974433     9A     -0.800382
      10A     -0.774655    11A     -0.724918    12A     -0.608393
      13A     -0.585794    14A     -0.572425    15A     -0.544171
      16A     -0.510424    17A     -0.350822    18A     -0.292990

  @DF-RHF Final Energy:  -208.87417328011850

   => Energetics <=

    Nuclear Repulsion Energy =            162.3619638193027299
    One-Electron Energy =                -603.1975314264035433
    Two-Electron Energy =                 231.9613943269823153
    Total Energy =                       -208.8741732801184980
  Basis Set: (AUG-CC-PVTZ AUX)
    Blend: AUG-CC-PVTZ-RI
    Molecular point group: c1

    Geometry (in Angstrom), charge = 0, multiplicity = 1:

       Center              X                  Y                   Z               Mass
    ------------   -----------------  -----------------  -----------------  -----------------
         N           -1.114770726149     0.016634360695     0.000021911895    14.003074004430
         C           -0.354634726149     1.049470560695    -0.000002688105    12.000000000000
         C           -0.328764726149    -1.109184639305     0.000019911895    12.000000000000
         C            0.989872273851     0.725890360695    -0.000034088105    12.000000000000
         C            0.989887273851    -0.692577639305    -0.000009088105    12.000000000000
         H           -2.125579726149     0.016625360695     0.000058911895     1.007825032230
         H           -0.765812726149     2.131251360695    -0.000017088105     1.007825032230
         H           -0.765766726149    -2.097974639305     0.000043911895     1.007825032230
         H            1.855304273851     1.375243360695    -0.000061088105     1.007825032230
         H            1.855332273851    -1.341912639305    -0.000020088105     1.007825032230

  Basis Set: AUG-CC-PVTZ
    Blend: AUG-CC-PVTZ
  Basis Set: (AUG-CC-PVTZ AUX)
    Blend: AUG-CC-PVTZ-JKFIT
	 Reference Energy          =    -208.8741732801184980 [Eh]
	 Singles Energy            =      -0.0000000000000000 [Eh]
	 Same-Spin Energy          =      -0.2305698720880117 [Eh]
	 Opposite-Spin Energy      =      -0.7220010947319792 [Eh]
	 Correlation Energy        =      -0.9525709668199909 [Eh]
	 Total Energy              =    -209.8267442469384889 [Eh]

	 ================> DF-SCS-MP2 Energies <==================
	-----------------------------------------------------------
	 SCS Same-Spin Scale       =       0.3333333333333333 [-]
	 SCS Opposite-Spin Scale   =       1.2000000000000000 [-]
	 SCS Same-Spin Energy      =      -0.0768566240293372 [Eh]
	 SCS Opposite-Spin Energy  =      -0.8664013136783749 [Eh]
	 SCS Correlation Energy    =      -0.9432579377077122 [Eh]
	 SCS Total Energy          =    -209.8174312178261971 [Eh]
	-----------------------------------------------------------

  Dipole Moment: [D]
     X:    -1.9961      Y:     0.0052      Z:     0.0001     Total:     1.9961

*** Psi4 exiting successfully. Buy a developer a beer!
