                               Psi4 1.3.2 release

  ==> Input File <==

--------------------------------------------------------------------------
#psi4
#
memory 32 gb

molecule  {
0 1
  N       -1.1198630    -0.0000120     0.0000220
  C       -0.3338800     1.1258240    -0.0000040
  C       -0.3338570    -1.1258310     0.0000200
  C        0.9847800     0.7092440    -0.0000340
  C        0.9847950    -0.7092240    -0.0000090
  H       -2.1306720    -0.0000210     0.0000590
  H       -0.7709050     2.1146050    -0.0000170
  H       -0.7708590    -2.1146210     0.0000440
  H        1.9301996     1.4186135    -0.0000635
  H        1.8502400    -1.3585590    -0.0000200
units angstrom
no_reorient  #important for SAPT in psi4, default
symmetry c1  #important for SAPT in psi4, default
}

set PROPERTIES_ORIGIN ["COM"]
properties('MP2/aug-cc-pvtz', properties = ['dipole'])
--------------------------------------------------------------------------

    Molecular point group: c1
  Charge       = 0
  Multiplicity = 1
  Basis Set: AUG-CC-PVTZ
    Blend: AUG-CC-PVTZ
  Basis Set: (AUG-CC-PVTZ AUX)
    Blend: AUG-CC-PVTZ-JKFIT

    Orbital Energies [Eh]
    ---------------------

    Doubly Occupied:

       1A    -15.608884     2A    -11.255050     3A    -11.254889
       4A    -11.222223     5A    -11.212030     6A     -1.290327
       7A     -1.039738     8A     -0.975025     9A     -0.789402
      10A     -0.758679    11A     -0.733806    12A     -0.586319
      13A     -0.582215    14A     -0.567383    15A     -0.538177
      16A     -0.523133    17A     -0.348229    18A     -0.297380

  @DF-RHF Final Energy:  -208.87802627019417

   => Energetics <=

    Nuclear Repulsion Energy =            160.3187259416608015
    One-Electron Energy =                -599.2277282989897458
    Two-Electron Energy =                 230.0309760871348033
    Total Energy =                       -208.8780262701941695
  Basis Set: (AUG-CC-PVTZ AUX)
    Blend: AUG-CC-PVTZ-RI
    Molecular point group: c1

    Geometry (in Angstrom), charge = 0, multiplicity = 1:

       Center              X                  Y                   Z               Mass
    ------------   -----------------  -----------------  -----------------  -----------------
         N           -1.120599555012    -0.000914045320     0.000022200065    14.003074004430
         C           -0.334616555012     1.124921954680    -0.000003799935    12.000000000000
         C           -0.334593555012    -1.126733045320     0.000020200065    12.000000000000
         C            0.984043444988     0.708341954680    -0.000033799935    12.000000000000
         C            0.984058444988    -0.710126045320    -0.000008799935    12.000000000000
         H           -2.131408555012    -0.000923045320     0.000059200065     1.007825032230
         H           -0.771641555012     2.113702954680    -0.000016799935     1.007825032230
         H           -0.771595555012    -2.115523045320     0.000044200065     1.007825032230
         H            1.929463044988     1.417711454680    -0.000063299935     1.007825032230
         H            1.849503444988    -1.359461045320    -0.000019799935     1.007825032230

  Basis Set: AUG-CC-PVTZ
    Blend: AUG-CC-PVTZ
  Basis Set: (AUG-CC-PVTZ AUX)
    Blend: AUG-CC-PVTZ-JKFIT
	 Reference Energy          =    -208.8780262701941695 [Eh]
	 Singles Energy            =      -0.0000000000000000 [Eh]
	 Same-Spin Energy          =      -0.2305084844050833 [Eh]
	 Opposite-Spin Energy      =      -0.7238252560892096 [Eh]
	 Correlation Energy        =      -0.9543337404942929 [Eh]
	 Total Energy              =    -209.8323600106884612 [Eh]

	 ================> DF-SCS-MP2 Energies <==================
	-----------------------------------------------------------
	 SCS Same-Spin Scale       =       0.3333333333333333 [-]
	 SCS Opposite-Spin Scale   =       1.2000000000000000 [-]
	 SCS Same-Spin Energy      =      -0.0768361614683611 [Eh]
	 SCS Opposite-Spin Energy  =      -0.8685903073070514 [Eh]
	 SCS Correlation Energy    =      -0.9454264687754126 [Eh]
	 SCS Total Energy          =    -209.8234527389695927 [Eh]
	-----------------------------------------------------------

  Dipole Moment: [D]
     X:    -1.8897      Y:    -0.0225      Z:     0.0001     Total:     1.8899

*** Psi4 exiting successfully. Buy a developer a beer!
