                               Psi4 1.3.2 release

  ==> Input File <==

--------------------------------------------------------------------------
#psi4
#
memory 32 gb

molecule  {
0 1
  N       -1.1198630    -0.0000120     0.0000220
  C       -0.4143290     1.1779089    -0.0000031
  C       -0.3338570    -1.1258310     0.0000200
  C        0.9847800     0.7092440    -0.0000340
  C        0.9847950    -0.7092240    -0.0000090
  H       -2.1306720    -0.0000210     0.0000590
  H       -0.7709050     2.1146050    -0.0000170
  H       -0.7708590    -2.1146210     0.0000440
  H        1.8502120     1.3585970    -0.0000610
  H        1.8502400    -1.3585590    -0.0000200
units angstrom
no_reorient  #important for SAPT in psi4, default
symmetry c1  #important for SAPT in psi4, default
}

set PROPERTIES_ORIGIN ["COM"]
properties('MP2/aug-cc-pvtz', properties = ['dipole'])
--------------------------------------------------------------------------

    Molecular point group: c1
  Charge       = 0
  Multiplicity = 1
  Basis Set: AUG-CC-PVTZ
    Blend: AUG-CC-PVTZ
  Basis Set: (AUG-CC-PVTZ AUX)
    Blend: AUG-CC-PVTZ-JKFIT

    Orbital Energies [Eh]
    ---------------------

    Doubly Occupied:

       1A    -15.615994     2A    -11.257730     3A    -11.255700
       4A    -11.220878     5A    -11.213981     6A     -1.287416
       7A     -1.034357     8A     -0.974215     9A     -0.795015
      10A     -0.766049    11A     -0.745028    12A     -0.607717
      13A     -0.583027    14A     -0.563924    15A     -0.536617
      16A     -0.524115    17A     -0.345965    18A     -0.288312

  @DF-RHF Final Energy:  -208.86862264722279

   => Energetics <=

    Nuclear Repulsion Energy =            159.5392762133994893
    One-Electron Energy =                -597.5837194549216065
    Two-Electron Energy =                 229.1758205942993243
    Total Energy =                       -208.8686226472227929
  Basis Set: (AUG-CC-PVTZ AUX)
    Blend: AUG-CC-PVTZ-RI
    Molecular point group: c1

    Geometry (in Angstrom), charge = 0, multiplicity = 1:

       Center              X                  Y                   Z               Mass
    ------------   -----------------  -----------------  -----------------  -----------------
         N           -1.104997419066    -0.009334602461     0.000022001391    14.003074004430
         C           -0.399463419066     1.168586297539    -0.000003098609    12.000000000000
         C           -0.318991419066    -1.135153602461     0.000020001391    12.000000000000
         C            0.999645580934     0.699921397539    -0.000033998609    12.000000000000
         C            0.999660580934    -0.718546602461    -0.000008998609    12.000000000000
         H           -2.115806419066    -0.009343602461     0.000059001391     1.007825032230
         H           -0.756039419066     2.105282397539    -0.000016998609     1.007825032230
         H           -0.755993419066    -2.123943602461     0.000044001391     1.007825032230
         H            1.865077580934     1.349274397539    -0.000060998609     1.007825032230
         H            1.865105580934    -1.367881602461    -0.000019998609     1.007825032230

  Basis Set: AUG-CC-PVTZ
    Blend: AUG-CC-PVTZ
  Basis Set: (AUG-CC-PVTZ AUX)
    Blend: AUG-CC-PVTZ-JKFIT
	 Reference Energy          =    -208.8686226472227929 [Eh]
	 Singles Energy            =      -0.0000000000000000 [Eh]
	 Same-Spin Energy          =      -0.2316779678224278 [Eh]
	 Opposite-Spin Energy      =      -0.7257378798739182 [Eh]
	 Correlation Energy        =      -0.9574158476963460 [Eh]
	 Total Energy              =    -209.8260384949191462 [Eh]

	 ================> DF-SCS-MP2 Energies <==================
	-----------------------------------------------------------
	 SCS Same-Spin Scale       =       0.3333333333333333 [-]
	 SCS Opposite-Spin Scale   =       1.2000000000000000 [-]
	 SCS Same-Spin Energy      =      -0.0772259892741426 [Eh]
	 SCS Opposite-Spin Energy  =      -0.8708854558487019 [Eh]
	 SCS Correlation Energy    =      -0.9481114451228445 [Eh]
	 SCS Total Energy          =    -209.8167340923456266 [Eh]
	-----------------------------------------------------------

  Dipole Moment: [D]
     X:    -1.9125      Y:    -0.1033      Z:     0.0001     Total:     1.9153

*** Psi4 exiting successfully. Buy a developer a beer!
