                               Psi4 1.3.2 release

  ==> Input File <==

--------------------------------------------------------------------------
#psi4
#
memory 32 gb

molecule  {
0 1
  N       -1.1198630    -0.0000120     0.0000220
  C       -0.3736499     1.1525686    -0.0000025
  C       -0.3338570    -1.1258310     0.0000200
  C        0.9847800     0.7092440    -0.0000340
  C        0.9847950    -0.7092240    -0.0000090
  H       -2.1306720    -0.0000210     0.0000590
  H       -0.7709050     2.1146050    -0.0000170
  H       -0.7708590    -2.1146210     0.0000440
  H        1.8502120     1.3585970    -0.0000610
  H        1.8502400    -1.3585590    -0.0000200
units angstrom
no_reorient  #important for SAPT in psi4, default
symmetry c1  #important for SAPT in psi4, default
}

set PROPERTIES_ORIGIN ["COM"]
properties('MP2/aug-cc-pvtz', properties = ['dipole'])
--------------------------------------------------------------------------

    Molecular point group: c1
  Charge       = 0
  Multiplicity = 1
  Basis Set: AUG-CC-PVTZ
    Blend: AUG-CC-PVTZ
  Basis Set: (AUG-CC-PVTZ AUX)
    Blend: AUG-CC-PVTZ-JKFIT

    Orbital Energies [Eh]
    ---------------------

    Doubly Occupied:

       1A    -15.611938     2A    -11.255893     3A    -11.254831
       4A    -11.216115     5A    -11.212304     6A     -1.288258
       7A     -1.036660     8A     -0.974883     9A     -0.792799
      10A     -0.765201    11A     -0.740473    12A     -0.595370
      13A     -0.585823    14A     -0.565009    15A     -0.540224
      16A     -0.529131    17A     -0.346181    18A     -0.292649

  @DF-RHF Final Energy:  -208.88038763824119

   => Energetics <=

    Nuclear Repulsion Energy =            160.1236453357136327
    One-Electron Energy =                -598.8005842029592714
    Two-Electron Energy =                 229.7965512290044785
    Total Energy =                       -208.8803876382411886
  Basis Set: (AUG-CC-PVTZ AUX)
    Blend: AUG-CC-PVTZ-RI
    Molecular point group: c1

    Geometry (in Angstrom), charge = 0, multiplicity = 1:

       Center              X                  Y                   Z               Mass
    ------------   -----------------  -----------------  -----------------  -----------------
         N           -1.112278642028    -0.004798898027     0.000021893996    14.003074004430
         C           -0.366065542028     1.147781701973    -0.000002606004    12.000000000000
         C           -0.326272642028    -1.130617898027     0.000019893996    12.000000000000
         C            0.992364357972     0.704457101973    -0.000034106004    12.000000000000
         C            0.992379357972    -0.714010898027    -0.000009106004    12.000000000000
         H           -2.123087642028    -0.004807898027     0.000058893996     1.007825032230
         H           -0.763320642028     2.109818101973    -0.000017106004     1.007825032230
         H           -0.763274642028    -2.119407898027     0.000043893996     1.007825032230
         H            1.857796357972     1.353810101973    -0.000061106004     1.007825032230
         H            1.857824357972    -1.363345898027    -0.000020106004     1.007825032230

  Basis Set: AUG-CC-PVTZ
    Blend: AUG-CC-PVTZ
  Basis Set: (AUG-CC-PVTZ AUX)
    Blend: AUG-CC-PVTZ-JKFIT
	 Reference Energy          =    -208.8803876382411886 [Eh]
	 Singles Energy            =      -0.0000000000000000 [Eh]
	 Same-Spin Energy          =      -0.2309599501074922 [Eh]
	 Opposite-Spin Energy      =      -0.7241965033169973 [Eh]
	 Correlation Energy        =      -0.9551564534244894 [Eh]
	 Total Energy              =    -209.8355440916656676 [Eh]

	 ================> DF-SCS-MP2 Energies <==================
	-----------------------------------------------------------
	 SCS Same-Spin Scale       =       0.3333333333333333 [-]
	 SCS Opposite-Spin Scale   =       1.2000000000000000 [-]
	 SCS Same-Spin Energy      =      -0.0769866500358307 [Eh]
	 SCS Opposite-Spin Energy  =      -0.8690358039803967 [Eh]
	 SCS Correlation Energy    =      -0.9460224540162274 [Eh]
	 SCS Total Energy          =    -209.8264100922574187 [Eh]
	-----------------------------------------------------------

  Dipole Moment: [D]
     X:    -1.8964      Y:    -0.0464      Z:     0.0001     Total:     1.8969

*** Psi4 exiting successfully. Buy a developer a beer!
