                               Psi4 1.3.2 release

  ==> Input File <==

--------------------------------------------------------------------------
#psi4
#
memory 32 gb

molecule  {
0 1
  N       -1.1198630    -0.0000120     0.0000220
  C       -0.3338800     1.1258240    -0.0000040
  C       -0.3338570    -1.1258310     0.0000200
  C        0.7940702     0.7694915    -0.0000297
  C        0.9847950    -0.7092240    -0.0000090
  H       -2.1306720    -0.0000210     0.0000590
  H       -0.7709050     2.1146050    -0.0000170
  H       -0.7708590    -2.1146210     0.0000440
  H        1.8502120     1.3585970    -0.0000610
  H        1.8502400    -1.3585590    -0.0000200
units angstrom
no_reorient  #important for SAPT in psi4, default
symmetry c1  #important for SAPT in psi4, default
}

set PROPERTIES_ORIGIN ["COM"]
properties('MP2/aug-cc-pvtz', properties = ['dipole'])
--------------------------------------------------------------------------

    Molecular point group: c1
  Charge       = 0
  Multiplicity = 1
  Basis Set: AUG-CC-PVTZ
    Blend: AUG-CC-PVTZ
  Basis Set: (AUG-CC-PVTZ AUX)
    Blend: AUG-CC-PVTZ-JKFIT

    Orbital Energies [Eh]
    ---------------------

    Doubly Occupied:

       1A    -15.591010     2A    -11.259102     3A    -11.226110
       4A    -11.211154     5A    -11.201100     6A     -1.297849
       7A     -1.049913     8A     -0.994481     9A     -0.783954
      10A     -0.749279    11A     -0.740878    12A     -0.595953
      13A     -0.577226    14A     -0.574088    15A     -0.570770
      16A     -0.472547    17A     -0.356023    18A     -0.315615

  @DF-RHF Final Energy:  -208.82557151341177

   => Energetics <=

    Nuclear Repulsion Energy =            163.2058434578353001
    One-Electron Energy =                -604.9287315377462164
    Two-Electron Energy =                 232.8973165664991711
    Total Energy =                       -208.8255715134117736
  Basis Set: (AUG-CC-PVTZ AUX)
    Blend: AUG-CC-PVTZ-RI
    Molecular point group: c1

    Geometry (in Angstrom), charge = 0, multiplicity = 1:

       Center              X                  Y                   Z               Mass
    ------------   -----------------  -----------------  -----------------  -----------------
         N           -1.085261646426    -0.010795640452     0.000021392819    14.003074004430
         C           -0.299278646426     1.115040359548    -0.000004607181    12.000000000000
         C           -0.299255646426    -1.136614640452     0.000019392819    12.000000000000
         C            0.828671553574     0.758707859548    -0.000030307181    12.000000000000
         C            1.019396353574    -0.720007640452    -0.000009607181    12.000000000000
         H           -2.096070646426    -0.010804640452     0.000058392819     1.007825032230
         H           -0.736303646426     2.103821359548    -0.000017607181     1.007825032230
         H           -0.736257646426    -2.125404640452     0.000043392819     1.007825032230
         H            1.884813353574     1.347813359548    -0.000061607181     1.007825032230
         H            1.884841353574    -1.369342640452    -0.000020607181     1.007825032230

  Basis Set: AUG-CC-PVTZ
    Blend: AUG-CC-PVTZ
  Basis Set: (AUG-CC-PVTZ AUX)
    Blend: AUG-CC-PVTZ-JKFIT
	 Reference Energy          =    -208.8255715134117736 [Eh]
	 Singles Energy            =      -0.0000000000000000 [Eh]
	 Same-Spin Energy          =      -0.2283673403079768 [Eh]
	 Opposite-Spin Energy      =      -0.7205172909106217 [Eh]
	 Correlation Energy        =      -0.9488846312185985 [Eh]
	 Total Energy              =    -209.7744561446303635 [Eh]

	 ================> DF-SCS-MP2 Energies <==================
	-----------------------------------------------------------
	 SCS Same-Spin Scale       =       0.3333333333333333 [-]
	 SCS Opposite-Spin Scale   =       1.2000000000000000 [-]
	 SCS Same-Spin Energy      =      -0.0761224467693256 [Eh]
	 SCS Opposite-Spin Energy  =      -0.8646207490927460 [Eh]
	 SCS Correlation Energy    =      -0.9407431958620716 [Eh]
	 SCS Total Energy          =    -209.7663147092738427 [Eh]
	-----------------------------------------------------------

  Dipole Moment: [D]
     X:    -1.7565      Y:     0.0370      Z:     0.0001     Total:     1.7569

*** Psi4 exiting successfully. Buy a developer a beer!
