                               Psi4 1.4a3.dev225

  ==> Input File <==

--------------------------------------------------------------------------
#psi4
#
memory 32 gb

molecule  {
0 1
  C        0.1866420     0.7562470     0.4534190
  C        0.2792091    -0.7399836     0.5804939
  C       -0.7958940    -0.0000060    -0.4032040
  C        1.3017950     1.5715540    -0.1562120
  C        1.3018100    -1.5715430    -0.1562120
  C       -2.2698350    -0.0000050    -0.0828370
  H       -0.2448680     1.2051630     1.3480830
  H       -0.2448540    -1.2051680     1.3480870
  H       -0.5605670    -0.0000080    -1.4682010
  H        0.9553190     2.5847770    -0.3848190
  H        2.1550520     1.6529780     0.5256790
  H        1.6595600     1.1289300    -1.0891140
  H        2.1551040    -1.6528880     0.5256410
  H        0.9553680    -2.5847950    -0.3847400
  H        1.6595080    -1.1289620    -1.0891610
  H       -2.7665390    -0.8865100    -0.4914230
  H       -2.4235610    -0.0000430     1.0010740
  H       -2.7665230     0.8865400    -0.4913590
units angstrom
no_reorient  #important for SAPT in psi4, default
symmetry c1  #important for SAPT in psi4, default
}

set PROPERTIES_ORIGIN ["COM"]
properties('MP2/aug-cc-pvtz', properties = ['dipole'])
--------------------------------------------------------------------------

    Molecular point group: c1
  Charge       = 0
  Multiplicity = 1
  Basis Set: AUG-CC-PVTZ
    Blend: AUG-CC-PVTZ
  Basis Set: (AUG-CC-PVTZ AUX)
    Blend: AUG-CC-PVTZ-JKFIT

    Orbital Energies [Eh]
    ---------------------

    Doubly Occupied:

       1A    -11.227990     2A    -11.222591     3A    -11.219790
       4A    -11.214042     5A    -11.212736     6A    -11.211652
       7A     -1.137189     8A     -0.982272     9A     -0.976893
      10A     -0.903681    11A     -0.775150    12A     -0.746553
      13A     -0.643013    14A     -0.605764    15A     -0.571538
      16A     -0.564911    17A     -0.544959    18A     -0.537293
      19A     -0.532807    20A     -0.523709    21A     -0.489822
      22A     -0.478122    23A     -0.404770    24A     -0.342882

  @DF-RHF Final Energy:  -234.23381161340123

   => Energetics <=

    Nuclear Repulsion Energy =            245.1508770248114786
    One-Electron Energy =                -800.6291190970143816
    Two-Electron Energy =                 321.2444304588016735
    Total Energy =                       -234.2338116134012012
  Basis Set: (AUG-CC-PVTZ AUX)
    Blend: AUG-CC-PVTZ-RI
    Molecular point group: c1

    Geometry (in Angstrom), charge = 0, multiplicity = 1:

       Center              X                  Y                   Z               Mass
    ------------   -----------------  -----------------  -----------------  -----------------
         C            0.179722414493     0.753926083636     0.427614113565    12.000000000000
         C            0.272289514493    -0.742304516364     0.554689013565    12.000000000000
         C           -0.802813585507    -0.002326916364    -0.429008886435    12.000000000000
         C            1.294875414493     1.569233083636    -0.182016886435    12.000000000000
         C            1.294890414493    -1.573863916364    -0.182016886435    12.000000000000
         C           -2.276754585507    -0.002325916364    -0.108641886435    12.000000000000
         H           -0.251787585507     1.202842083636     1.322278113565     1.007825032230
         H           -0.251773585507    -1.207488916364     1.322282113565     1.007825032230
         H           -0.567486585507    -0.002328916364    -1.494005886435     1.007825032230
         H            0.948399414493     2.582456083636    -0.410623886435     1.007825032230
         H            2.148132414493     1.650657083636     0.499874113565     1.007825032230
         H            1.652640414493     1.126609083636    -1.114918886435     1.007825032230
         H            2.148184414493    -1.655208916364     0.499836113565     1.007825032230
         H            0.948448414493    -2.587115916364    -0.410544886435     1.007825032230
         H            1.652588414493    -1.131282916364    -1.114965886435     1.007825032230
         H           -2.773458585507    -0.888830916364    -0.517227886435     1.007825032230
         H           -2.430480585507    -0.002363916364     0.975269113565     1.007825032230
         H           -2.773442585507     0.884219083636    -0.517163886435     1.007825032230

  Basis Set: AUG-CC-PVTZ
    Blend: AUG-CC-PVTZ
  Basis Set: (AUG-CC-PVTZ AUX)
    Blend: AUG-CC-PVTZ-JKFIT
	 Reference Energy          =    -234.2338116134012296 [Eh]
	 Singles Energy            =      -0.0000000000000000 [Eh]
	 Same-Spin Energy          =      -0.2543541988030341 [Eh]
	 Opposite-Spin Energy      =      -0.9217993338606314 [Eh]
	 Correlation Energy        =      -1.1761535326636654 [Eh]
	 Total Energy              =    -235.4099651460649056 [Eh]

	 ================> DF-SCS-MP2 Energies <==================
	-----------------------------------------------------------
	 SCS Same-Spin Scale       =       0.3333333333333333 [-]
	 SCS Opposite-Spin Scale   =       1.2000000000000000 [-]
	 SCS Same-Spin Energy      =      -0.0847847329343447 [Eh]
	 SCS Opposite-Spin Energy  =      -1.1061592006327576 [Eh]
	 SCS Correlation Energy    =      -1.1909439335671024 [Eh]
	 SCS Total Energy          =    -235.4247555469683277 [Eh]
	-----------------------------------------------------------

  Dipole Moment: [D]
     X:     0.0023      Y:     0.0651      Z:     0.0007     Total:     0.0652

*** Psi4 exiting successfully. Buy a developer a beer!
