                               Psi4 1.4a3.dev225

  ==> Input File <==

--------------------------------------------------------------------------
#psi4
#
memory 32 gb

molecule  {
0 1
  C        0.1866420     0.7562470     0.4534190
  C        0.1866490    -0.7562500     0.4534210
  C       -0.7958940    -0.0000060    -0.4032040
  C        1.3017950     1.5715540    -0.1562120
  C        1.3018100    -1.5715430    -0.1562120
  C       -2.2698350    -0.0000050    -0.0828370
  H       -0.2448680     1.2051630     1.3480830
  H       -0.2448540    -1.2051680     1.3480870
  H       -0.5605670    -0.0000080    -1.4682010
  H        0.9553190     2.5847770    -0.3848190
  H        2.1550520     1.6529780     0.5256790
  H        1.7250366     1.0479229    -1.2598497
  H        2.1551040    -1.6528880     0.5256410
  H        0.9553680    -2.5847950    -0.3847400
  H        1.6595080    -1.1289620    -1.0891610
  H       -2.7665390    -0.8865100    -0.4914230
  H       -2.4235610    -0.0000430     1.0010740
  H       -2.7665230     0.8865400    -0.4913590
units angstrom
no_reorient  #important for SAPT in psi4, default
symmetry c1  #important for SAPT in psi4, default
}

set PROPERTIES_ORIGIN ["COM"]
properties('MP2/aug-cc-pvtz', properties = ['dipole'])
--------------------------------------------------------------------------

    Molecular point group: c1
  Charge       = 0
  Multiplicity = 1
  Basis Set: AUG-CC-PVTZ
    Blend: AUG-CC-PVTZ
  Basis Set: (AUG-CC-PVTZ AUX)
    Blend: AUG-CC-PVTZ-JKFIT

    Orbital Energies [Eh]
    ---------------------

    Doubly Occupied:

       1A    -11.236074     2A    -11.223223     3A    -11.221183
       4A    -11.219983     5A    -11.213006     6A    -11.211641
       7A     -1.151585     8A     -0.981830     9A     -0.970693
      10A     -0.903867    11A     -0.769311    12A     -0.741865
      13A     -0.640379    14A     -0.608714    15A     -0.571131
      16A     -0.567029    17A     -0.547339    18A     -0.533277
      19A     -0.529980    20A     -0.510328    21A     -0.484659
      22A     -0.461866    23A     -0.383773    24A     -0.381824

  @DF-RHF Final Energy:  -234.22825998208123

   => Energetics <=

    Nuclear Repulsion Energy =            245.6091161490637376
    One-Electron Energy =                -801.5456306916607900
    Two-Electron Energy =                 321.7082545605157975
    Total Energy =                       -234.2282599820812266
  Basis Set: (AUG-CC-PVTZ AUX)
    Blend: AUG-CC-PVTZ-RI
    Molecular point group: c1

    Geometry (in Angstrom), charge = 0, multiplicity = 1:

       Center              X                  Y                   Z               Mass
    ------------   -----------------  -----------------  -----------------  -----------------
         C            0.192145815461     0.757218091521     0.447793300219    12.000000000000
         C            0.192152815461    -0.755278908479     0.447795300219    12.000000000000
         C           -0.790390184539     0.000965091521    -0.408829699781    12.000000000000
         C            1.307298815461     1.572525091521    -0.161837699781    12.000000000000
         C            1.307313815461    -1.570571908479    -0.161837699781    12.000000000000
         C           -2.264331184539     0.000966091521    -0.088462699781    12.000000000000
         H           -0.239364184539     1.206134091521     1.342457300219     1.007825032230
         H           -0.239350184539    -1.204196908479     1.342461300219     1.007825032230
         H           -0.555063184539     0.000963091521    -1.473826699781     1.007825032230
         H            0.960822815461     2.585748091521    -0.390444699781     1.007825032230
         H            2.160555815461     1.653949091521     0.520053300219     1.007825032230
         H            1.730540415461     1.048893991521    -1.265475399781     1.007825032230
         H            2.160607815461    -1.651916908479     0.520015300219     1.007825032230
         H            0.960871815461    -2.583823908479    -0.390365699781     1.007825032230
         H            1.665011815461    -1.127990908479    -1.094786699781     1.007825032230
         H           -2.761035184539    -0.885538908479    -0.497048699781     1.007825032230
         H           -2.418057184539     0.000928091521     0.995448300219     1.007825032230
         H           -2.761019184539     0.887511091521    -0.496984699781     1.007825032230

  Basis Set: AUG-CC-PVTZ
    Blend: AUG-CC-PVTZ
  Basis Set: (AUG-CC-PVTZ AUX)
    Blend: AUG-CC-PVTZ-JKFIT
	 Reference Energy          =    -234.2282599820812266 [Eh]
	 Singles Energy            =      -0.0000000000000000 [Eh]
	 Same-Spin Energy          =      -0.2540294234594653 [Eh]
	 Opposite-Spin Energy      =      -0.9217312200363614 [Eh]
	 Correlation Energy        =      -1.1757606434958268 [Eh]
	 Total Energy              =    -235.4040206255770613 [Eh]

	 ================> DF-SCS-MP2 Energies <==================
	-----------------------------------------------------------
	 SCS Same-Spin Scale       =       0.3333333333333333 [-]
	 SCS Opposite-Spin Scale   =       1.2000000000000000 [-]
	 SCS Same-Spin Energy      =      -0.0846764744864884 [Eh]
	 SCS Opposite-Spin Energy  =      -1.1060774640436337 [Eh]
	 SCS Correlation Energy    =      -1.1907539385301222 [Eh]
	 SCS Total Energy          =    -235.4190139206113486 [Eh]
	-----------------------------------------------------------

  Dipole Moment: [D]
     X:    -0.0800      Y:     0.0308      Z:     0.1114     Total:     0.1406

*** Psi4 exiting successfully. Buy a developer a beer!
