                               Psi4 1.4a3.dev225

  ==> Input File <==

--------------------------------------------------------------------------
#psi4
#
memory 32 gb

molecule  {
0 1
  C        0.1866420     0.7562470     0.4534190
  C        0.1866490    -0.7562500     0.4534210
  C       -0.7958940    -0.0000060    -0.4032040
  C        1.3017950     1.5715540    -0.1562120
  C        1.3018100    -1.5715430    -0.1562120
  C       -2.2698350    -0.0000050    -0.0828370
  H       -0.2448680     1.2051630     1.3480830
  H       -0.2448540    -1.2051680     1.3480870
  H       -0.5605670    -0.0000080    -1.4682010
  H        0.9553190     2.5847770    -0.3848190
  H        2.1550520     1.6529780     0.5256790
  H        1.6661077     1.1208293    -1.1061876
  H        2.1551040    -1.6528880     0.5256410
  H        0.9553680    -2.5847950    -0.3847400
  H        1.6595080    -1.1289620    -1.0891610
  H       -2.7665390    -0.8865100    -0.4914230
  H       -2.4235610    -0.0000430     1.0010740
  H       -2.7665230     0.8865400    -0.4913590
units angstrom
no_reorient  #important for SAPT in psi4, default
symmetry c1  #important for SAPT in psi4, default
}

set PROPERTIES_ORIGIN ["COM"]
properties('MP2/aug-cc-pvtz', properties = ['dipole'])
--------------------------------------------------------------------------

    Molecular point group: c1
  Charge       = 0
  Multiplicity = 1
  Basis Set: AUG-CC-PVTZ
    Blend: AUG-CC-PVTZ
  Basis Set: (AUG-CC-PVTZ AUX)
    Blend: AUG-CC-PVTZ-JKFIT

    Orbital Energies [Eh]
    ---------------------

    Doubly Occupied:

       1A    -11.221105     2A    -11.220277     3A    -11.219446
       4A    -11.215054     5A    -11.212563     6A    -11.212502
       7A     -1.151185     8A     -0.982568     9A     -0.974941
      10A     -0.907623    11A     -0.769742    12A     -0.745095
      13A     -0.640675    14A     -0.610357    15A     -0.569657
      16A     -0.568701    17A     -0.547258    18A     -0.533882
      19A     -0.529321    20A     -0.526395    21A     -0.484171
      22A     -0.473148    23A     -0.382463    24A     -0.381978

  @DF-RHF Final Energy:  -234.24798730735785

   => Energetics <=

    Nuclear Repulsion Energy =            246.2150644396426458
    One-Electron Energy =                -802.7658939182518907
    Two-Electron Energy =                 322.3028421712513705
    Total Energy =                       -234.2479873073578460
  Basis Set: (AUG-CC-PVTZ AUX)
    Blend: AUG-CC-PVTZ-RI
    Molecular point group: c1

    Geometry (in Angstrom), charge = 0, multiplicity = 1:

       Center              X                  Y                   Z               Mass
    ------------   -----------------  -----------------  -----------------  -----------------
         C            0.192852050043     0.756344343311     0.445951733706    12.000000000000
         C            0.192859050043    -0.756152656689     0.445953733706    12.000000000000
         C           -0.789683949957     0.000091343311    -0.410671266294    12.000000000000
         C            1.308005050043     1.571651343311    -0.163679266294    12.000000000000
         C            1.308020050043    -1.571445656689    -0.163679266294    12.000000000000
         C           -2.263624949957     0.000092343311    -0.090304266294    12.000000000000
         H           -0.238657949957     1.205260343311     1.340615733706     1.007825032230
         H           -0.238643949957    -1.205070656689     1.340619733706     1.007825032230
         H           -0.554356949957     0.000089343311    -1.475668266294     1.007825032230
         H            0.961529050043     2.584874343311    -0.392286266294     1.007825032230
         H            2.161262050043     1.653075343311     0.518211733706     1.007825032230
         H            1.672317750043     1.120926643311    -1.113654866294     1.007825032230
         H            2.161314050043    -1.652790656689     0.518173733706     1.007825032230
         H            0.961578050043    -2.584697656689    -0.392207266294     1.007825032230
         H            1.665718050043    -1.128864656689    -1.096628266294     1.007825032230
         H           -2.760328949957    -0.886412656689    -0.498890266294     1.007825032230
         H           -2.417350949957     0.000054343311     0.993606733706     1.007825032230
         H           -2.760312949957     0.886637343311    -0.498826266294     1.007825032230

  Basis Set: AUG-CC-PVTZ
    Blend: AUG-CC-PVTZ
  Basis Set: (AUG-CC-PVTZ AUX)
    Blend: AUG-CC-PVTZ-JKFIT
	 Reference Energy          =    -234.2479873073578460 [Eh]
	 Singles Energy            =      -0.0000000000000000 [Eh]
	 Same-Spin Energy          =      -0.2539185710582682 [Eh]
	 Opposite-Spin Energy      =      -0.9201257837746851 [Eh]
	 Correlation Energy        =      -1.1740443548329533 [Eh]
	 Total Energy              =    -235.4220316621907898 [Eh]

	 ================> DF-SCS-MP2 Energies <==================
	-----------------------------------------------------------
	 SCS Same-Spin Scale       =       0.3333333333333333 [-]
	 SCS Opposite-Spin Scale   =       1.2000000000000000 [-]
	 SCS Same-Spin Energy      =      -0.0846395236860894 [Eh]
	 SCS Opposite-Spin Energy  =      -1.1041509405296221 [Eh]
	 SCS Correlation Energy    =      -1.1887904642157114 [Eh]
	 SCS Total Energy          =    -235.4367777715735599 [Eh]
	-----------------------------------------------------------

  Dipole Moment: [D]
     X:    -0.0114      Y:     0.0027      Z:     0.0011     Total:     0.0118

*** Psi4 exiting successfully. Buy a developer a beer!
