                               Psi4 1.4a3.dev225

  ==> Input File <==

--------------------------------------------------------------------------
#psi4
#
memory 32 gb

molecule  {
0 1
  C        0.1866420     0.7562470     0.4534190
  C        0.1866490    -0.7562500     0.4534210
  C       -0.7912605    -0.0457533    -0.3775599
  C        1.3017950     1.5715540    -0.1562120
  C        1.3018100    -1.5715430    -0.1562120
  C       -2.2698350    -0.0000050    -0.0828370
  H       -0.2448680     1.2051630     1.3480830
  H       -0.2448540    -1.2051680     1.3480870
  H       -0.5605670    -0.0000080    -1.4682010
  H        0.9553190     2.5847770    -0.3848190
  H        2.1550520     1.6529780     0.5256790
  H        1.6595600     1.1289300    -1.0891140
  H        2.1551040    -1.6528880     0.5256410
  H        0.9553680    -2.5847950    -0.3847400
  H        1.6595080    -1.1289620    -1.0891610
  H       -2.7665390    -0.8865100    -0.4914230
  H       -2.4235610    -0.0000430     1.0010740
  H       -2.7665230     0.8865400    -0.4913590
units angstrom
no_reorient  #important for SAPT in psi4, default
symmetry c1  #important for SAPT in psi4, default
}

set PROPERTIES_ORIGIN ["COM"]
properties('MP2/aug-cc-pvtz', properties = ['dipole'])
--------------------------------------------------------------------------

    Molecular point group: c1
  Charge       = 0
  Multiplicity = 1
  Basis Set: AUG-CC-PVTZ
    Blend: AUG-CC-PVTZ
  Basis Set: (AUG-CC-PVTZ AUX)
    Blend: AUG-CC-PVTZ-JKFIT

    Orbital Energies [Eh]
    ---------------------

    Doubly Occupied:

       1A    -11.220993     2A    -11.220097     3A    -11.218361
       4A    -11.213147     5A    -11.213072     6A    -11.212458
       7A     -1.156517     8A     -0.982992     9A     -0.975948
      10A     -0.910695    11A     -0.765354    12A     -0.747360
      13A     -0.642242    14A     -0.610534    15A     -0.570978
      16A     -0.568600    17A     -0.547790    18A     -0.534622
      19A     -0.532049    20A     -0.527473    21A     -0.476731
      22A     -0.473841    23A     -0.395107    24A     -0.374131

  @DF-RHF Final Energy:  -234.24639714316521

   => Energetics <=

    Nuclear Repulsion Energy =            246.5871611801688346
    One-Electron Energy =                -803.4849356701989791
    Two-Electron Energy =                 322.6513773468648765
    Total Energy =                       -234.2463971431652112
  Basis Set: (AUG-CC-PVTZ AUX)
    Blend: AUG-CC-PVTZ-RI
    Molecular point group: c1

    Geometry (in Angstrom), charge = 0, multiplicity = 1:

       Center              X                  Y                   Z               Mass
    ------------   -----------------  -----------------  -----------------  -----------------
         C            0.192269331631     0.762775291445     0.442087762598    12.000000000000
         C            0.192276331631    -0.749721708555     0.442089762598    12.000000000000
         C           -0.785633168369    -0.039225008555    -0.388891137402    12.000000000000
         C            1.307422331631     1.578082291445    -0.167543237402    12.000000000000
         C            1.307437331631    -1.565014708555    -0.167543237402    12.000000000000
         C           -2.264207668369     0.006523291445    -0.094168237402    12.000000000000
         H           -0.239240668369     1.211691291445     1.336751762598     1.007825032230
         H           -0.239226668369    -1.198639708555     1.336755762598     1.007825032230
         H           -0.554939668369     0.006520291445    -1.479532237402     1.007825032230
         H            0.960946331631     2.591305291445    -0.396150237402     1.007825032230
         H            2.160679331631     1.659506291445     0.514347762598     1.007825032230
         H            1.665187331631     1.135458291445    -1.100445237402     1.007825032230
         H            2.160731331631    -1.646359708555     0.514309762598     1.007825032230
         H            0.960995331631    -2.578266708555    -0.396071237402     1.007825032230
         H            1.665135331631    -1.122433708555    -1.100492237402     1.007825032230
         H           -2.760911668369    -0.879981708555    -0.502754237402     1.007825032230
         H           -2.417933668369     0.006485291445     0.989742762598     1.007825032230
         H           -2.760895668369     0.893068291445    -0.502690237402     1.007825032230

  Basis Set: AUG-CC-PVTZ
    Blend: AUG-CC-PVTZ
  Basis Set: (AUG-CC-PVTZ AUX)
    Blend: AUG-CC-PVTZ-JKFIT
	 Reference Energy          =    -234.2463971431652112 [Eh]
	 Singles Energy            =      -0.0000000000000000 [Eh]
	 Same-Spin Energy          =      -0.2540855815296291 [Eh]
	 Opposite-Spin Energy      =      -0.9200630125156841 [Eh]
	 Correlation Energy        =      -1.1741485940453131 [Eh]
	 Total Energy              =    -235.4205457372105172 [Eh]

	 ================> DF-SCS-MP2 Energies <==================
	-----------------------------------------------------------
	 SCS Same-Spin Scale       =       0.3333333333333333 [-]
	 SCS Opposite-Spin Scale   =       1.2000000000000000 [-]
	 SCS Same-Spin Energy      =      -0.0846951938432097 [Eh]
	 SCS Opposite-Spin Energy  =      -1.1040756150188209 [Eh]
	 SCS Correlation Energy    =      -1.1887708088620306 [Eh]
	 SCS Total Energy          =    -235.4351679520272285 [Eh]
	-----------------------------------------------------------

  Dipole Moment: [D]
     X:    -0.0188      Y:    -0.0215      Z:    -0.0116     Total:     0.0308

*** Psi4 exiting successfully. Buy a developer a beer!
