                               Psi4 1.4a3.dev225

  ==> Input File <==

--------------------------------------------------------------------------
#psi4
#
memory 32 gb

molecule  {
0 1
  C        0.1866420     0.7562470     0.4534190
  C        0.1866490    -0.7562500     0.4534210
  C       -0.7958940    -0.0000060    -0.4032040
  C        1.1540875     1.4635626    -0.0754634
  C        1.3018100    -1.5715430    -0.1562120
  C       -2.2698350    -0.0000050    -0.0828370
  H       -0.2448680     1.2051630     1.3480830
  H       -0.2448540    -1.2051680     1.3480870
  H       -0.5605670    -0.0000080    -1.4682010
  H        0.9553190     2.5847770    -0.3848190
  H        2.1550520     1.6529780     0.5256790
  H        1.6595600     1.1289300    -1.0891140
  H        2.1551040    -1.6528880     0.5256410
  H        0.9553680    -2.5847950    -0.3847400
  H        1.6595080    -1.1289620    -1.0891610
  H       -2.7665390    -0.8865100    -0.4914230
  H       -2.4235610    -0.0000430     1.0010740
  H       -2.7665230     0.8865400    -0.4913590
units angstrom
no_reorient  #important for SAPT in psi4, default
symmetry c1  #important for SAPT in psi4, default
}

set PROPERTIES_ORIGIN ["COM"]
properties('MP2/aug-cc-pvtz', properties = ['dipole'])
--------------------------------------------------------------------------

    Molecular point group: c1
  Charge       = 0
  Multiplicity = 1
  Basis Set: AUG-CC-PVTZ
    Blend: AUG-CC-PVTZ
  Basis Set: (AUG-CC-PVTZ AUX)
    Blend: AUG-CC-PVTZ-JKFIT

    Orbital Energies [Eh]
    ---------------------

    Doubly Occupied:

       1A    -11.225055     2A    -11.223897     3A    -11.222740
       4A    -11.214560     5A    -11.213326     6A    -11.210686
       7A     -1.168957     8A     -1.003817     9A     -0.982407
      10A     -0.904589    11A     -0.774944    12A     -0.746760
      13A     -0.651921    14A     -0.629414    15A     -0.573204
      16A     -0.568731    17A     -0.553605    18A     -0.535536
      19A     -0.524161    20A     -0.509392    21A     -0.488524
      22A     -0.470117    23A     -0.380314    24A     -0.366893

  @DF-RHF Final Energy:  -234.19705433135411

   => Energetics <=

    Nuclear Repulsion Energy =            249.4089019475527209
    One-Electron Energy =                -808.9248128348729097
    Two-Electron Energy =                 325.3188565559660219
    Total Energy =                       -234.1970543313541384
  Basis Set: (AUG-CC-PVTZ AUX)
    Blend: AUG-CC-PVTZ-RI
    Molecular point group: c1

    Geometry (in Angstrom), charge = 0, multiplicity = 1:

       Center              X                  Y                   Z               Mass
    ------------   -----------------  -----------------  -----------------  -----------------
         C            0.214008030771     0.771657376787     0.434224481231    12.000000000000
         C            0.214015030771    -0.740839623213     0.434226481231    12.000000000000
         C           -0.768527969229     0.015404376787    -0.422398518769    12.000000000000
         C            1.181453530771     1.478972976787    -0.094657918769    12.000000000000
         C            1.329176030771    -1.556132623213    -0.175406518769    12.000000000000
         C           -2.242468969229     0.015405376787    -0.102031518769    12.000000000000
         H           -0.217501969229     1.220573376787     1.328888481231     1.007825032230
         H           -0.217487969229    -1.189757623213     1.328892481231     1.007825032230
         H           -0.533200969229     0.015402376787    -1.487395518769     1.007825032230
         H            0.982685030771     2.600187376787    -0.404013518769     1.007825032230
         H            2.182418030771     1.668388376787     0.506484481231     1.007825032230
         H            1.686926030771     1.144340376787    -1.108308518769     1.007825032230
         H            2.182470030771    -1.637477623213     0.506446481231     1.007825032230
         H            0.982734030771    -2.569384623213    -0.403934518769     1.007825032230
         H            1.686874030771    -1.113551623213    -1.108355518769     1.007825032230
         H           -2.739172969229    -0.871099623213    -0.510617518769     1.007825032230
         H           -2.396194969229     0.015367376787     0.981879481231     1.007825032230
         H           -2.739156969229     0.901950376787    -0.510553518769     1.007825032230

  Basis Set: AUG-CC-PVTZ
    Blend: AUG-CC-PVTZ
  Basis Set: (AUG-CC-PVTZ AUX)
    Blend: AUG-CC-PVTZ-JKFIT
	 Reference Energy          =    -234.1970543313541100 [Eh]
	 Singles Energy            =      -0.0000000000000000 [Eh]
	 Same-Spin Energy          =      -0.2571890284804316 [Eh]
	 Opposite-Spin Energy      =      -0.9244456232806366 [Eh]
	 Correlation Energy        =      -1.1816346517610681 [Eh]
	 Total Energy              =    -235.3786889831151825 [Eh]

	 ================> DF-SCS-MP2 Energies <==================
	-----------------------------------------------------------
	 SCS Same-Spin Scale       =       0.3333333333333333 [-]
	 SCS Opposite-Spin Scale   =       1.2000000000000000 [-]
	 SCS Same-Spin Energy      =      -0.0857296761601438 [Eh]
	 SCS Opposite-Spin Energy  =      -1.1093347479367639 [Eh]
	 SCS Correlation Energy    =      -1.1950644240969077 [Eh]
	 SCS Total Energy          =    -235.3921187554510084 [Eh]
	-----------------------------------------------------------

  Dipole Moment: [D]
     X:    -0.1464      Y:    -0.1400      Z:     0.0018     Total:     0.2026

*** Psi4 exiting successfully. Buy a developer a beer!
