                               Psi4 1.4a3.dev225

  ==> Input File <==

--------------------------------------------------------------------------
#psi4
#
memory 32 gb

molecule  {
0 1
  C        0.1866420     0.7562470     0.4534190
  C        0.1866490    -0.7562500     0.4534210
  C       -0.7958940    -0.0000060    -0.4032040
  C        1.3017950     1.5715540    -0.1562120
  C        1.3018100    -1.5715430    -0.1562120
  C       -2.2698350    -0.0000050    -0.0828370
  H       -0.2448680     1.2051630     1.3480830
  H       -0.2448540    -1.2051680     1.3480870
  H       -0.5562518    -0.0000080    -1.4877299
  H        0.9553190     2.5847770    -0.3848190
  H        2.1550520     1.6529780     0.5256790
  H        1.6595600     1.1289300    -1.0891140
  H        2.1551040    -1.6528880     0.5256410
  H        0.9553680    -2.5847950    -0.3847400
  H        1.6595080    -1.1289620    -1.0891610
  H       -2.7665390    -0.8865100    -0.4914230
  H       -2.4235610    -0.0000430     1.0010740
  H       -2.7665230     0.8865400    -0.4913590
units angstrom
no_reorient  #important for SAPT in psi4, default
symmetry c1  #important for SAPT in psi4, default
}

set PROPERTIES_ORIGIN ["COM"]
properties('MP2/aug-cc-pvtz', properties = ['dipole'])
--------------------------------------------------------------------------

    Molecular point group: c1
  Charge       = 0
  Multiplicity = 1
  Basis Set: AUG-CC-PVTZ
    Blend: AUG-CC-PVTZ
  Basis Set: (AUG-CC-PVTZ AUX)
    Blend: AUG-CC-PVTZ-JKFIT

    Orbital Energies [Eh]
    ---------------------

    Doubly Occupied:

       1A    -11.222160     2A    -11.220804     3A    -11.220344
       4A    -11.212763     5A    -11.212603     6A    -11.212599
       7A     -1.151009     8A     -0.982732     9A     -0.975691
      10A     -0.908324    11A     -0.766940    12A     -0.745768
      13A     -0.640827    14A     -0.609474    15A     -0.570137
      16A     -0.568629    17A     -0.547444    18A     -0.534495
      19A     -0.529613    20A     -0.527533    21A     -0.482305
      22A     -0.473942    23A     -0.382360    24A     -0.382174

  @DF-RHF Final Energy:  -234.24793567561019

   => Energetics <=

    Nuclear Repulsion Energy =            246.1964894094322176
    One-Electron Energy =                -802.7275121497208374
    Two-Electron Energy =                 322.2830870646783978
    Total Energy =                       -234.2479356756101652
  Basis Set: (AUG-CC-PVTZ AUX)
    Blend: AUG-CC-PVTZ-RI
    Molecular point group: c1

    Geometry (in Angstrom), charge = 0, multiplicity = 1:

       Center              X                  Y                   Z               Mass
    ------------   -----------------  -----------------  -----------------  -----------------
         C            0.192878805484     0.756247260310     0.445981159298    12.000000000000
         C            0.192885805484    -0.756249739690     0.445983159298    12.000000000000
         C           -0.789657194516    -0.000005739690    -0.410641840702    12.000000000000
         C            1.308031805484     1.571554260310    -0.163649840702    12.000000000000
         C            1.308046805484    -1.571542739690    -0.163649840702    12.000000000000
         C           -2.263598194516    -0.000004739690    -0.090274840702    12.000000000000
         H           -0.238631194516     1.205163260310     1.340645159298     1.007825032230
         H           -0.238617194516    -1.205167739690     1.340649159298     1.007825032230
         H           -0.550014994516    -0.000007739690    -1.495167740702     1.007825032230
         H            0.961555805484     2.584777260310    -0.392256840702     1.007825032230
         H            2.161288805484     1.652978260310     0.518241159298     1.007825032230
         H            1.665796805484     1.128930260310    -1.096551840702     1.007825032230
         H            2.161340805484    -1.652887739690     0.518203159298     1.007825032230
         H            0.961604805484    -2.584794739690    -0.392177840702     1.007825032230
         H            1.665744805484    -1.128961739690    -1.096598840702     1.007825032230
         H           -2.760302194516    -0.886509739690    -0.498860840702     1.007825032230
         H           -2.417324194516    -0.000042739690     0.993636159298     1.007825032230
         H           -2.760286194516     0.886540260310    -0.498796840702     1.007825032230

  Basis Set: AUG-CC-PVTZ
    Blend: AUG-CC-PVTZ
  Basis Set: (AUG-CC-PVTZ AUX)
    Blend: AUG-CC-PVTZ-JKFIT
	 Reference Energy          =    -234.2479356756101936 [Eh]
	 Singles Energy            =      -0.0000000000000000 [Eh]
	 Same-Spin Energy          =      -0.2539275350383137 [Eh]
	 Opposite-Spin Energy      =      -0.9201073053880856 [Eh]
	 Correlation Energy        =      -1.1740348404263994 [Eh]
	 Total Energy              =    -235.4219705160365947 [Eh]

	 ================> DF-SCS-MP2 Energies <==================
	-----------------------------------------------------------
	 SCS Same-Spin Scale       =       0.3333333333333333 [-]
	 SCS Opposite-Spin Scale   =       1.2000000000000000 [-]
	 SCS Same-Spin Energy      =      -0.0846425116794379 [Eh]
	 SCS Opposite-Spin Energy  =      -1.1041287664657027 [Eh]
	 SCS Correlation Energy    =      -1.1887712781451405 [Eh]
	 SCS Total Energy          =    -235.4367069537553334 [Eh]
	-----------------------------------------------------------

  Dipole Moment: [D]
     X:    -0.0079      Y:    -0.0000      Z:     0.0023     Total:     0.0082

*** Psi4 exiting successfully. Buy a developer a beer!
