                               Psi4 1.4a3.dev225

  ==> Input File <==

--------------------------------------------------------------------------
#psi4
#
memory 32 gb

molecule  {
0 1
  C        0.1866420     0.7562470     0.4534190
  C        0.1866490    -0.7562500     0.4534210
  C       -0.7958940    -0.0000060    -0.4032040
  C        1.2953943     1.6072213    -0.1179415
  C        1.3018100    -1.5715430    -0.1562120
  C       -2.2698350    -0.0000050    -0.0828370
  H       -0.2448680     1.2051630     1.3480830
  H       -0.2448540    -1.2051680     1.3480870
  H       -0.5605670    -0.0000080    -1.4682010
  H        0.9553190     2.5847770    -0.3848190
  H        2.1550520     1.6529780     0.5256790
  H        1.6595600     1.1289300    -1.0891140
  H        2.1551040    -1.6528880     0.5256410
  H        0.9553680    -2.5847950    -0.3847400
  H        1.6595080    -1.1289620    -1.0891610
  H       -2.7665390    -0.8865100    -0.4914230
  H       -2.4235610    -0.0000430     1.0010740
  H       -2.7665230     0.8865400    -0.4913590
units angstrom
no_reorient  #important for SAPT in psi4, default
symmetry c1  #important for SAPT in psi4, default
}

set PROPERTIES_ORIGIN ["COM"]
properties('MP2/aug-cc-pvtz', properties = ['dipole'])
--------------------------------------------------------------------------

    Molecular point group: c1
  Charge       = 0
  Multiplicity = 1
  Basis Set: AUG-CC-PVTZ
    Blend: AUG-CC-PVTZ
  Basis Set: (AUG-CC-PVTZ AUX)
    Blend: AUG-CC-PVTZ-JKFIT

    Orbital Energies [Eh]
    ---------------------

    Doubly Occupied:

       1A    -11.221422     2A    -11.220319     3A    -11.219848
       4A    -11.213013     5A    -11.212641     6A    -11.212490
       7A     -1.150772     8A     -0.982843     9A     -0.976414
      10A     -0.908562    11A     -0.769505    12A     -0.745589
      13A     -0.640400    14A     -0.610491    15A     -0.576633
      16A     -0.568565    17A     -0.549166    18A     -0.536554
      19A     -0.530284    20A     -0.520661    21A     -0.483907
      22A     -0.466746    23A     -0.384216    24A     -0.383075

  @DF-RHF Final Energy:  -234.24560000111583

   => Energetics <=

    Nuclear Repulsion Energy =            246.0680888835346707
    One-Electron Energy =                -802.4591454461921103
    Two-Electron Energy =                 322.1454565615416641
    Total Energy =                       -234.2456000011158039
  Basis Set: (AUG-CC-PVTZ AUX)
    Blend: AUG-CC-PVTZ-RI
    Molecular point group: c1

    Geometry (in Angstrom), charge = 0, multiplicity = 1:

       Center              X                  Y                   Z               Mass
    ------------   -----------------  -----------------  -----------------  -----------------
         C            0.193843885783     0.751157621251     0.440286005285    12.000000000000
         C            0.193850885783    -0.761339378749     0.440288005285    12.000000000000
         C           -0.788692114217    -0.005095378749    -0.416336994715    12.000000000000
         C            1.302596185783     1.602131921251    -0.131074494715    12.000000000000
         C            1.309011885783    -1.576632378749    -0.169344994715    12.000000000000
         C           -2.262633114217    -0.005094378749    -0.095969994715    12.000000000000
         H           -0.237666114217     1.200073621251     1.334950005285     1.007825032230
         H           -0.237652114217    -1.210257378749     1.334954005285     1.007825032230
         H           -0.553365114217    -0.005097378749    -1.481333994715     1.007825032230
         H            0.962520885783     2.579687621251    -0.397951994715     1.007825032230
         H            2.162253885783     1.647888621251     0.512546005285     1.007825032230
         H            1.666761885783     1.123840621251    -1.102246994715     1.007825032230
         H            2.162305885783    -1.657977378749     0.512508005285     1.007825032230
         H            0.962569885783    -2.589884378749    -0.397872994715     1.007825032230
         H            1.666709885783    -1.134051378749    -1.102293994715     1.007825032230
         H           -2.759337114217    -0.891599378749    -0.504555994715     1.007825032230
         H           -2.416359114217    -0.005132378749     0.987941005285     1.007825032230
         H           -2.759321114217     0.881450621251    -0.504491994715     1.007825032230

  Basis Set: AUG-CC-PVTZ
    Blend: AUG-CC-PVTZ
  Basis Set: (AUG-CC-PVTZ AUX)
    Blend: AUG-CC-PVTZ-JKFIT
	 Reference Energy          =    -234.2456000011158324 [Eh]
	 Singles Energy            =      -0.0000000000000000 [Eh]
	 Same-Spin Energy          =      -0.2539166830970205 [Eh]
	 Opposite-Spin Energy      =      -0.9200947391062579 [Eh]
	 Correlation Energy        =      -1.1740114222032785 [Eh]
	 Total Energy              =    -235.4196114233191111 [Eh]

	 ================> DF-SCS-MP2 Energies <==================
	-----------------------------------------------------------
	 SCS Same-Spin Scale       =       0.3333333333333333 [-]
	 SCS Opposite-Spin Scale   =       1.2000000000000000 [-]
	 SCS Same-Spin Energy      =      -0.0846388943656735 [Eh]
	 SCS Opposite-Spin Energy  =      -1.1041136869275094 [Eh]
	 SCS Correlation Energy    =      -1.1887525812931830 [Eh]
	 SCS Total Energy          =    -235.4343525824090193 [Eh]
	-----------------------------------------------------------

  Dipole Moment: [D]
     X:    -0.0097      Y:     0.0051      Z:     0.0013     Total:     0.0110

*** Psi4 exiting successfully. Buy a developer a beer!
