                               Psi4 1.4a3.dev225

  ==> Input File <==

--------------------------------------------------------------------------
#psi4
#
memory 32 gb

molecule  {
0 1
  C        0.1866420     0.7562470     0.4534190
  C        0.1866495    -0.8562500     0.4534211
  C       -0.7958940    -0.0000060    -0.4032040
  C        1.3017950     1.5715540    -0.1562120
  C        1.3018100    -1.5715430    -0.1562120
  C       -2.2698350    -0.0000050    -0.0828370
  H       -0.2448680     1.2051630     1.3480830
  H       -0.2448540    -1.2051680     1.3480870
  H       -0.5605670    -0.0000080    -1.4682010
  H        0.9553190     2.5847770    -0.3848190
  H        2.1550520     1.6529780     0.5256790
  H        1.6595600     1.1289300    -1.0891140
  H        2.1551040    -1.6528880     0.5256410
  H        0.9553680    -2.5847950    -0.3847400
  H        1.6595080    -1.1289620    -1.0891610
  H       -2.7665390    -0.8865100    -0.4914230
  H       -2.4235610    -0.0000430     1.0010740
  H       -2.7665230     0.8865400    -0.4913590
units angstrom
no_reorient  #important for SAPT in psi4, default
symmetry c1  #important for SAPT in psi4, default
}

set PROPERTIES_ORIGIN ["COM"]
properties('MP2/aug-cc-pvtz', properties = ['dipole'])
--------------------------------------------------------------------------

    Molecular point group: c1
  Charge       = 0
  Multiplicity = 1
  Basis Set: AUG-CC-PVTZ
    Blend: AUG-CC-PVTZ
  Basis Set: (AUG-CC-PVTZ AUX)
    Blend: AUG-CC-PVTZ-JKFIT

    Orbital Energies [Eh]
    ---------------------

    Doubly Occupied:

       1A    -11.225800     2A    -11.223524     3A    -11.220998
       4A    -11.213050     5A    -11.212644     6A    -11.210048
       7A     -1.133437     8A     -0.989293     9A     -0.979315
      10A     -0.900749    11A     -0.769918    12A     -0.750234
      13A     -0.634963    14A     -0.608683    15A     -0.573395
      16A     -0.570603    17A     -0.549855    18A     -0.536030
      19A     -0.530689    20A     -0.521439    21A     -0.496040
      22A     -0.480849    23A     -0.386367    24A     -0.354068

  @DF-RHF Final Energy:  -234.23844272553276

   => Energetics <=

    Nuclear Repulsion Energy =            245.2376947915583116
    One-Electron Energy =                -800.8082902316964464
    Two-Electron Energy =                 321.3321527146053995
    Total Energy =                       -234.2384427255327637
  Basis Set: (AUG-CC-PVTZ AUX)
    Blend: AUG-CC-PVTZ-RI
    Molecular point group: c1

    Geometry (in Angstrom), charge = 0, multiplicity = 1:

       Center              X                  Y                   Z               Mass
    ------------   -----------------  -----------------  -----------------  -----------------
         C            0.192930449736     0.770517022973     0.445747100536    12.000000000000
         C            0.192937949736    -0.841979977027     0.445749200536    12.000000000000
         C           -0.789605550264     0.014264022973    -0.410875899464    12.000000000000
         C            1.308083449736     1.585824022973    -0.163883899464    12.000000000000
         C            1.308098449736    -1.557272977027    -0.163883899464    12.000000000000
         C           -2.263546550264     0.014265022973    -0.090508899464    12.000000000000
         H           -0.238579550264     1.219433022973     1.340411100536     1.007825032230
         H           -0.238565550264    -1.190897977027     1.340415100536     1.007825032230
         H           -0.554278550264     0.014262022973    -1.475872899464     1.007825032230
         H            0.961607449736     2.599047022973    -0.392490899464     1.007825032230
         H            2.161340449736     1.667248022973     0.518007100536     1.007825032230
         H            1.665848449736     1.143200022973    -1.096785899464     1.007825032230
         H            2.161392449736    -1.638617977027     0.517969100536     1.007825032230
         H            0.961656449736    -2.570524977027    -0.392411899464     1.007825032230
         H            1.665796449736    -1.114691977027    -1.096832899464     1.007825032230
         H           -2.760250550264    -0.872239977027    -0.499094899464     1.007825032230
         H           -2.417272550264     0.014227022973     0.993402100536     1.007825032230
         H           -2.760234550264     0.900810022973    -0.499030899464     1.007825032230

  Basis Set: AUG-CC-PVTZ
    Blend: AUG-CC-PVTZ
  Basis Set: (AUG-CC-PVTZ AUX)
    Blend: AUG-CC-PVTZ-JKFIT
	 Reference Energy          =    -234.2384427255327637 [Eh]
	 Singles Energy            =      -0.0000000000000000 [Eh]
	 Same-Spin Energy          =      -0.2544133708250074 [Eh]
	 Opposite-Spin Energy      =      -0.9215116374595032 [Eh]
	 Correlation Energy        =      -1.1759250082845105 [Eh]
	 Total Energy              =    -235.4143677338172722 [Eh]

	 ================> DF-SCS-MP2 Energies <==================
	-----------------------------------------------------------
	 SCS Same-Spin Scale       =       0.3333333333333333 [-]
	 SCS Opposite-Spin Scale   =       1.2000000000000000 [-]
	 SCS Same-Spin Energy      =      -0.0848044569416691 [Eh]
	 SCS Opposite-Spin Energy  =      -1.1058139649514038 [Eh]
	 SCS Correlation Energy    =      -1.1906184218930729 [Eh]
	 SCS Total Energy          =    -235.4290611474258412 [Eh]
	-----------------------------------------------------------

  Dipole Moment: [D]
     X:    -0.0260      Y:     0.0267      Z:    -0.0458     Total:     0.0590

*** Psi4 exiting successfully. Buy a developer a beer!
