                               Psi4 1.4a3.dev225

  ==> Input File <==

--------------------------------------------------------------------------
#psi4
#
memory 32 gb

molecule  {
0 1
  C        0.1866420     0.7562470     0.4534190
  C        0.1063068    -0.7814489     0.3196689
  C       -0.7958940    -0.0000060    -0.4032040
  C        1.3017950     1.5715540    -0.1562120
  C        1.3018100    -1.5715430    -0.1562120
  C       -2.2698350    -0.0000050    -0.0828370
  H       -0.2448680     1.2051630     1.3480830
  H       -0.2448540    -1.2051680     1.3480870
  H       -0.5605670    -0.0000080    -1.4682010
  H        0.9553190     2.5847770    -0.3848190
  H        2.1550520     1.6529780     0.5256790
  H        1.6595600     1.1289300    -1.0891140
  H        2.1551040    -1.6528880     0.5256410
  H        0.9553680    -2.5847950    -0.3847400
  H        1.6595080    -1.1289620    -1.0891610
  H       -2.7665390    -0.8865100    -0.4914230
  H       -2.4235610    -0.0000430     1.0010740
  H       -2.7665230     0.8865400    -0.4913590
units angstrom
no_reorient  #important for SAPT in psi4, default
symmetry c1  #important for SAPT in psi4, default
}

set PROPERTIES_ORIGIN ["COM"]
properties('MP2/aug-cc-pvtz', properties = ['dipole'])
--------------------------------------------------------------------------

    Molecular point group: c1
  Charge       = 0
  Multiplicity = 1
  Basis Set: AUG-CC-PVTZ
    Blend: AUG-CC-PVTZ
  Basis Set: (AUG-CC-PVTZ AUX)
    Blend: AUG-CC-PVTZ-JKFIT

    Orbital Energies [Eh]
    ---------------------

    Doubly Occupied:

       1A    -11.225789     2A    -11.220340     3A    -11.215500
       4A    -11.215375     5A    -11.214257     6A    -11.211091
       7A     -1.166636     8A     -0.984588     9A     -0.975939
      10A     -0.913349    11A     -0.770930    12A     -0.740382
      13A     -0.638483    14A     -0.616464    15A     -0.575281
      16A     -0.568829    17A     -0.550721    18A     -0.534397
      19A     -0.533778    20A     -0.523467    21A     -0.482480
      22A     -0.457877    23A     -0.418008    24A     -0.355407

  @DF-RHF Final Energy:  -234.22966255233521

   => Energetics <=

    Nuclear Repulsion Energy =            247.1406363172683598
    One-Electron Energy =                -804.5218671582309753
    Two-Electron Energy =                 323.1515682886274590
    Total Energy =                       -234.2296625523351850
  Basis Set: (AUG-CC-PVTZ AUX)
    Blend: AUG-CC-PVTZ-RI
    Molecular point group: c1

    Geometry (in Angstrom), charge = 0, multiplicity = 1:

       Center              X                  Y                   Z               Mass
    ------------   -----------------  -----------------  -----------------  -----------------
         C            0.204395162343     0.759843083534     0.464833222034    12.000000000000
         C            0.124059962343    -0.777852816466     0.331083122034    12.000000000000
         C           -0.778140837657     0.003590083534    -0.391789777966    12.000000000000
         C            1.319548162343     1.575150083534    -0.144797777966    12.000000000000
         C            1.319563162343    -1.567946916466    -0.144797777966    12.000000000000
         C           -2.252081837657     0.003591083534    -0.071422777966    12.000000000000
         H           -0.227114837657     1.208759083534     1.359497222034     1.007825032230
         H           -0.227100837657    -1.201571916466     1.359501222034     1.007825032230
         H           -0.542813837657     0.003588083534    -1.456786777966     1.007825032230
         H            0.973072162343     2.588373083534    -0.373404777966     1.007825032230
         H            2.172805162343     1.656574083534     0.537093222034     1.007825032230
         H            1.677313162343     1.132526083534    -1.077699777966     1.007825032230
         H            2.172857162343    -1.649291916466     0.537055222034     1.007825032230
         H            0.973121162343    -2.581198916466    -0.373325777966     1.007825032230
         H            1.677261162343    -1.125365916466    -1.077746777966     1.007825032230
         H           -2.748785837657    -0.882913916466    -0.480008777966     1.007825032230
         H           -2.405807837657     0.003553083534     1.012488222034     1.007825032230
         H           -2.748769837657     0.890136083534    -0.479944777966     1.007825032230

  Basis Set: AUG-CC-PVTZ
    Blend: AUG-CC-PVTZ
  Basis Set: (AUG-CC-PVTZ AUX)
    Blend: AUG-CC-PVTZ-JKFIT
	 Reference Energy          =    -234.2296625523352134 [Eh]
	 Singles Energy            =      -0.0000000000000000 [Eh]
	 Same-Spin Energy          =      -0.2549389884255652 [Eh]
	 Opposite-Spin Energy      =      -0.9214392006661356 [Eh]
	 Correlation Energy        =      -1.1763781890917007 [Eh]
	 Total Energy              =    -235.4060407414269207 [Eh]

	 ================> DF-SCS-MP2 Energies <==================
	-----------------------------------------------------------
	 SCS Same-Spin Scale       =       0.3333333333333333 [-]
	 SCS Opposite-Spin Scale   =       1.2000000000000000 [-]
	 SCS Same-Spin Energy      =      -0.0849796628085217 [Eh]
	 SCS Opposite-Spin Energy  =      -1.1057270407993627 [Eh]
	 SCS Correlation Energy    =      -1.1907067036078844 [Eh]
	 SCS Total Energy          =    -235.4203692559430863 [Eh]
	-----------------------------------------------------------

  Dipole Moment: [D]
     X:    -0.0241      Y:    -0.0723      Z:    -0.0780     Total:     0.1091

*** Psi4 exiting successfully. Buy a developer a beer!
