                               Psi4 1.4a3.dev225

  ==> Input File <==

--------------------------------------------------------------------------
#psi4
#
memory 32 gb

molecule  {
0 1
  C        0.1866420     0.7562470     0.4534190
  C        0.1866490    -0.7562500     0.4534210
  C       -0.7933524    -0.0228831    -0.3904288
  C        1.3017950     1.5715540    -0.1562120
  C        1.3018100    -1.5715430    -0.1562120
  C       -2.2698350    -0.0000050    -0.0828370
  H       -0.2448680     1.2051630     1.3480830
  H       -0.2448540    -1.2051680     1.3480870
  H       -0.5605670    -0.0000080    -1.4682010
  H        0.9553190     2.5847770    -0.3848190
  H        2.1550520     1.6529780     0.5256790
  H        1.6595600     1.1289300    -1.0891140
  H        2.1551040    -1.6528880     0.5256410
  H        0.9553680    -2.5847950    -0.3847400
  H        1.6595080    -1.1289620    -1.0891610
  H       -2.7665390    -0.8865100    -0.4914230
  H       -2.4235610    -0.0000430     1.0010740
  H       -2.7665230     0.8865400    -0.4913590
units angstrom
no_reorient  #important for SAPT in psi4, default
symmetry c1  #important for SAPT in psi4, default
}

set PROPERTIES_ORIGIN ["COM"]
properties('MP2/aug-cc-pvtz', properties = ['dipole'])
--------------------------------------------------------------------------

    Molecular point group: c1
  Charge       = 0
  Multiplicity = 1
  Basis Set: AUG-CC-PVTZ
    Blend: AUG-CC-PVTZ
  Basis Set: (AUG-CC-PVTZ AUX)
    Blend: AUG-CC-PVTZ-JKFIT

    Orbital Energies [Eh]
    ---------------------

    Doubly Occupied:

       1A    -11.220795     2A    -11.219791     3A    -11.219242
       4A    -11.212854     5A    -11.212752     6A    -11.212521
       7A     -1.153828     8A     -0.982876     9A     -0.975797
      10A     -0.909443    11A     -0.767571    12A     -0.746482
      13A     -0.641479    14A     -0.610653    15A     -0.570463
      16A     -0.568600    17A     -0.547557    18A     -0.534551
      19A     -0.530797    20A     -0.527490    21A     -0.480431
      22A     -0.473939    23A     -0.388667    24A     -0.378239

  @DF-RHF Final Energy:  -234.24798326692115

   => Energetics <=

    Nuclear Repulsion Energy =            246.4429793911884872
    One-Electron Energy =                -803.2082818292270758
    Two-Electron Energy =                 322.5173191711174354
    Total Energy =                       -234.2479832669211532
  Basis Set: (AUG-CC-PVTZ AUX)
    Blend: AUG-CC-PVTZ-RI
    Molecular point group: c1

    Geometry (in Angstrom), charge = 0, multiplicity = 1:

       Center              X                  Y                   Z               Mass
    ------------   -----------------  -----------------  -----------------  -----------------
         C            0.192567840796     0.759511768184     0.443924124086    12.000000000000
         C            0.192574840796    -0.752985231816     0.443926124086    12.000000000000
         C           -0.787426559204    -0.019618331816    -0.399923675914    12.000000000000
         C            1.307720840796     1.574818768184    -0.165706875914    12.000000000000
         C            1.307735840796    -1.568278231816    -0.165706875914    12.000000000000
         C           -2.263909159204     0.003259768184    -0.092331875914    12.000000000000
         H           -0.238942159204     1.208427768184     1.338588124086     1.007825032230
         H           -0.238928159204    -1.201903231816     1.338592124086     1.007825032230
         H           -0.554641159204     0.003256768184    -1.477695875914     1.007825032230
         H            0.961244840796     2.588041768184    -0.394313875914     1.007825032230
         H            2.160977840796     1.656242768184     0.516184124086     1.007825032230
         H            1.665485840796     1.132194768184    -1.098608875914     1.007825032230
         H            2.161029840796    -1.649623231816     0.516146124086     1.007825032230
         H            0.961293840796    -2.581530231816    -0.394234875914     1.007825032230
         H            1.665433840796    -1.125697231816    -1.098655875914     1.007825032230
         H           -2.760613159204    -0.883245231816    -0.500917875914     1.007825032230
         H           -2.417635159204     0.003221768184     0.991579124086     1.007825032230
         H           -2.760597159204     0.889804768184    -0.500853875914     1.007825032230

  Basis Set: AUG-CC-PVTZ
    Blend: AUG-CC-PVTZ
  Basis Set: (AUG-CC-PVTZ AUX)
    Blend: AUG-CC-PVTZ-JKFIT
	 Reference Energy          =    -234.2479832669211532 [Eh]
	 Singles Energy            =      -0.0000000000000000 [Eh]
	 Same-Spin Energy          =      -0.2539756649590705 [Eh]
	 Opposite-Spin Energy      =      -0.9199787763312101 [Eh]
	 Correlation Energy        =      -1.1739544412902805 [Eh]
	 Total Energy              =    -235.4219377082114306 [Eh]

	 ================> DF-SCS-MP2 Energies <==================
	-----------------------------------------------------------
	 SCS Same-Spin Scale       =       0.3333333333333333 [-]
	 SCS Opposite-Spin Scale   =       1.2000000000000000 [-]
	 SCS Same-Spin Energy      =      -0.0846585549863568 [Eh]
	 SCS Opposite-Spin Energy  =      -1.1039745315974521 [Eh]
	 SCS Correlation Energy    =      -1.1886330865838088 [Eh]
	 SCS Total Energy          =    -235.4366163535049736 [Eh]
	-----------------------------------------------------------

  Dipole Moment: [D]
     X:    -0.0117      Y:    -0.0102      Z:    -0.0108     Total:     0.0189

*** Psi4 exiting successfully. Buy a developer a beer!
