                               Psi4 1.4a3.dev225

  ==> Input File <==

--------------------------------------------------------------------------
#psi4
#
memory 32 gb

molecule  {
0 1
  C        0.1866420     0.7562470     0.4534190
  C        0.1866490    -0.7562500     0.4534210
  C       -0.7958940    -0.0000060    -0.4032040
  C        1.3017950     1.5715540    -0.1562120
  C        1.3018100    -1.5715430    -0.1562120
  C       -2.2698350    -0.0000050    -0.0828370
  H       -0.2448680     1.2051630     1.3480830
  H       -0.2646473    -1.2257601     1.3891259
  H       -0.5605670    -0.0000080    -1.4682010
  H        0.9553190     2.5847770    -0.3848190
  H        2.1550520     1.6529780     0.5256790
  H        1.6595600     1.1289300    -1.0891140
  H        2.1551040    -1.6528880     0.5256410
  H        0.9553680    -2.5847950    -0.3847400
  H        1.6595080    -1.1289620    -1.0891610
  H       -2.7665390    -0.8865100    -0.4914230
  H       -2.4235610    -0.0000430     1.0010740
  H       -2.7665230     0.8865400    -0.4913590
units angstrom
no_reorient  #important for SAPT in psi4, default
symmetry c1  #important for SAPT in psi4, default
}

set PROPERTIES_ORIGIN ["COM"]
properties('MP2/aug-cc-pvtz', properties = ['dipole'])
--------------------------------------------------------------------------

    Molecular point group: c1
  Charge       = 0
  Multiplicity = 1
  Basis Set: AUG-CC-PVTZ
    Blend: AUG-CC-PVTZ
  Basis Set: (AUG-CC-PVTZ AUX)
    Blend: AUG-CC-PVTZ-JKFIT

    Orbital Energies [Eh]
    ---------------------

    Doubly Occupied:

       1A    -11.226456     2A    -11.221015     3A    -11.219951
       4A    -11.213157     5A    -11.212905     6A    -11.212568
       7A     -1.150842     8A     -0.982967     9A     -0.975386
      10A     -0.908329    11A     -0.768018    12A     -0.741042
      13A     -0.638835    14A     -0.610658    15A     -0.569728
      16A     -0.568916    17A     -0.547520    18A     -0.534773
      19A     -0.529623    20A     -0.526498    21A     -0.483816
      22A     -0.470814    23A     -0.382792    24A     -0.381845

  @DF-RHF Final Energy:  -234.24624078051897

   => Energetics <=

    Nuclear Repulsion Energy =            246.0526983524854927
    One-Electron Energy =                -802.4409692091887791
    Two-Electron Energy =                 322.1420300761842554
    Total Energy =                       -234.2462407805189741
  Basis Set: (AUG-CC-PVTZ AUX)
    Blend: AUG-CC-PVTZ-RI
    Molecular point group: c1

    Geometry (in Angstrom), charge = 0, multiplicity = 1:

       Center              X                  Y                   Z               Mass
    ------------   -----------------  -----------------  -----------------  -----------------
         C            0.193167734284     0.756494046744     0.445255283287    12.000000000000
         C            0.193174734284    -0.756002953256     0.445257283287    12.000000000000
         C           -0.789368265716     0.000241046744    -0.411367716713    12.000000000000
         C            1.308320734284     1.571801046744    -0.164375716713    12.000000000000
         C            1.308335734284    -1.571295953256    -0.164375716713    12.000000000000
         C           -2.263309265716     0.000242046744    -0.091000716713    12.000000000000
         H           -0.238342265716     1.205410046744     1.339919283287     1.007825032230
         H           -0.258121565716    -1.225513053256     1.380962183287     1.007825032230
         H           -0.554041265716     0.000239046744    -1.476364716713     1.007825032230
         H            0.961844734284     2.585024046744    -0.392982716713     1.007825032230
         H            2.161577734284     1.653225046744     0.517515283287     1.007825032230
         H            1.666085734284     1.129177046744    -1.097277716713     1.007825032230
         H            2.161629734284    -1.652640953256     0.517477283287     1.007825032230
         H            0.961893734284    -2.584547953256    -0.392903716713     1.007825032230
         H            1.666033734284    -1.128714953256    -1.097324716713     1.007825032230
         H           -2.760013265716    -0.886262953256    -0.499586716713     1.007825032230
         H           -2.417035265716     0.000204046744     0.992910283287     1.007825032230
         H           -2.759997265716     0.886787046744    -0.499522716713     1.007825032230

  Basis Set: AUG-CC-PVTZ
    Blend: AUG-CC-PVTZ
  Basis Set: (AUG-CC-PVTZ AUX)
    Blend: AUG-CC-PVTZ-JKFIT
	 Reference Energy          =    -234.2462407805189741 [Eh]
	 Singles Energy            =      -0.0000000000000000 [Eh]
	 Same-Spin Energy          =      -0.2539502911665829 [Eh]
	 Opposite-Spin Energy      =      -0.9203312778061277 [Eh]
	 Correlation Energy        =      -1.1742815689727106 [Eh]
	 Total Energy              =    -235.4205223494916766 [Eh]

	 ================> DF-SCS-MP2 Energies <==================
	-----------------------------------------------------------
	 SCS Same-Spin Scale       =       0.3333333333333333 [-]
	 SCS Opposite-Spin Scale   =       1.2000000000000000 [-]
	 SCS Same-Spin Energy      =      -0.0846500970555276 [Eh]
	 SCS Opposite-Spin Energy  =      -1.1043975333673532 [Eh]
	 SCS Correlation Energy    =      -1.1890476304228810 [Eh]
	 SCS Total Energy          =    -235.4352884109418653 [Eh]
	-----------------------------------------------------------

  Dipole Moment: [D]
     X:     0.0075      Y:     0.0166      Z:    -0.0340     Total:     0.0386

*** Psi4 exiting successfully. Buy a developer a beer!
