                               Psi4 1.4a3.dev225

  ==> Input File <==

--------------------------------------------------------------------------
#psi4
#
memory 32 gb

molecule  {
0 1
  C        0.1866420     0.7562470     0.4534190
  C        0.1866490    -0.7562500     0.4534210
  C       -0.7958940    -0.0000060    -0.4032040
  C        1.3044863     1.5533451    -0.1750716
  C        1.3018100    -1.5715430    -0.1562120
  C       -2.2698350    -0.0000050    -0.0828370
  H       -0.2448680     1.2051630     1.3480830
  H       -0.2448540    -1.2051680     1.3480870
  H       -0.5605670    -0.0000080    -1.4682010
  H        0.9553190     2.5847770    -0.3848190
  H        2.1550520     1.6529780     0.5256790
  H        1.6595600     1.1289300    -1.0891140
  H        2.1551040    -1.6528880     0.5256410
  H        0.9553680    -2.5847950    -0.3847400
  H        1.6595080    -1.1289620    -1.0891610
  H       -2.7665390    -0.8865100    -0.4914230
  H       -2.4235610    -0.0000430     1.0010740
  H       -2.7665230     0.8865400    -0.4913590
units angstrom
no_reorient  #important for SAPT in psi4, default
symmetry c1  #important for SAPT in psi4, default
}

set PROPERTIES_ORIGIN ["COM"]
properties('MP2/aug-cc-pvtz', properties = ['dipole'])
--------------------------------------------------------------------------

    Molecular point group: c1
  Charge       = 0
  Multiplicity = 1
  Basis Set: AUG-CC-PVTZ
    Blend: AUG-CC-PVTZ
  Basis Set: (AUG-CC-PVTZ AUX)
    Blend: AUG-CC-PVTZ-JKFIT

    Orbital Energies [Eh]
    ---------------------

    Doubly Occupied:

       1A    -11.221000     2A    -11.220052     3A    -11.219194
       4A    -11.212736     5A    -11.212648     6A    -11.212499
       7A     -1.151487     8A     -0.982894     9A     -0.975397
      10A     -0.908168    11A     -0.770145    12A     -0.745959
      13A     -0.640998    14A     -0.611324    15A     -0.570805
      16A     -0.565983    17A     -0.546666    18A     -0.533861
      19A     -0.530432    20A     -0.527916    21A     -0.484378
      22A     -0.476498    23A     -0.381505    24A     -0.381231

  @DF-RHF Final Energy:  -234.24776837071030

   => Energetics <=

    Nuclear Repulsion Energy =            246.4066583446397090
    One-Electron Energy =                -803.1412984628366303
    Two-Electron Energy =                 322.4868717474866457
    Total Energy =                       -234.2477683707102756
  Basis Set: (AUG-CC-PVTZ AUX)
    Blend: AUG-CC-PVTZ-RI
    Molecular point group: c1

    Geometry (in Angstrom), charge = 0, multiplicity = 1:

       Center              X                  Y                   Z               Mass
    ------------   -----------------  -----------------  -----------------  -----------------
         C            0.192546478962     0.758845627123     0.448438334965    12.000000000000
         C            0.192553478962    -0.753651372877     0.448440334965    12.000000000000
         C           -0.789989521038     0.002592627123    -0.408184665035    12.000000000000
         C            1.310390778962     1.555943727123    -0.180052265035    12.000000000000
         C            1.307714478962    -1.568944372877    -0.161192665035    12.000000000000
         C           -2.263930521038     0.002593627123    -0.087817665035    12.000000000000
         H           -0.238963521038     1.207761627123     1.343102334965     1.007825032230
         H           -0.238949521038    -1.202569372877     1.343106334965     1.007825032230
         H           -0.554662521038     0.002590627123    -1.473181665035     1.007825032230
         H            0.961223478962     2.587375627123    -0.389799665035     1.007825032230
         H            2.160956478962     1.655576627123     0.520698334965     1.007825032230
         H            1.665464478962     1.131528627123    -1.094094665035     1.007825032230
         H            2.161008478962    -1.650289372877     0.520660334965     1.007825032230
         H            0.961272478962    -2.582196372877    -0.389720665035     1.007825032230
         H            1.665412478962    -1.126363372877    -1.094141665035     1.007825032230
         H           -2.760634521038    -0.883911372877    -0.496403665035     1.007825032230
         H           -2.417656521038     0.002555627123     0.996093334965     1.007825032230
         H           -2.760618521038     0.889138627123    -0.496339665035     1.007825032230

  Basis Set: AUG-CC-PVTZ
    Blend: AUG-CC-PVTZ
  Basis Set: (AUG-CC-PVTZ AUX)
    Blend: AUG-CC-PVTZ-JKFIT
	 Reference Energy          =    -234.2477683707103040 [Eh]
	 Singles Energy            =      -0.0000000000000000 [Eh]
	 Same-Spin Energy          =      -0.2539380873527270 [Eh]
	 Opposite-Spin Energy      =      -0.9200329747519906 [Eh]
	 Correlation Energy        =      -1.1739710621047177 [Eh]
	 Total Energy              =    -235.4217394328150306 [Eh]

	 ================> DF-SCS-MP2 Energies <==================
	-----------------------------------------------------------
	 SCS Same-Spin Scale       =       0.3333333333333333 [-]
	 SCS Opposite-Spin Scale   =       1.2000000000000000 [-]
	 SCS Same-Spin Energy      =      -0.0846460291175757 [Eh]
	 SCS Opposite-Spin Energy  =      -1.1040395697023888 [Eh]
	 SCS Correlation Energy    =      -1.1886855988199645 [Eh]
	 SCS Total Energy          =    -235.4364539695302767 [Eh]
	-----------------------------------------------------------

  Dipole Moment: [D]
     X:    -0.0060      Y:    -0.0041      Z:    -0.0112     Total:     0.0134

*** Psi4 exiting successfully. Buy a developer a beer!
