                               Psi4 1.4a3.dev225

  ==> Input File <==

--------------------------------------------------------------------------
#psi4
#
memory 32 gb

molecule  {
0 1
  C        0.1866420     0.7562470     0.4534190
  C        0.1866490    -0.7562500     0.4534210
  C       -0.7958940    -0.0000060    -0.4032040
  C        1.3017950     1.5715540    -0.1562120
  C        1.1541013    -1.4635534    -0.0754631
  C       -2.2698350    -0.0000050    -0.0828370
  H       -0.2448680     1.2051630     1.3480830
  H       -0.2448540    -1.2051680     1.3480870
  H       -0.5605670    -0.0000080    -1.4682010
  H        0.9553190     2.5847770    -0.3848190
  H        2.1550520     1.6529780     0.5256790
  H        1.6595600     1.1289300    -1.0891140
  H        2.1551040    -1.6528880     0.5256410
  H        0.9553680    -2.5847950    -0.3847400
  H        1.6595080    -1.1289620    -1.0891610
  H       -2.7665390    -0.8865100    -0.4914230
  H       -2.4235610    -0.0000430     1.0010740
  H       -2.7665230     0.8865400    -0.4913590
units angstrom
no_reorient  #important for SAPT in psi4, default
symmetry c1  #important for SAPT in psi4, default
}

set PROPERTIES_ORIGIN ["COM"]
properties('MP2/aug-cc-pvtz', properties = ['dipole'])
--------------------------------------------------------------------------

    Molecular point group: c1
  Charge       = 0
  Multiplicity = 1
  Basis Set: AUG-CC-PVTZ
    Blend: AUG-CC-PVTZ
  Basis Set: (AUG-CC-PVTZ AUX)
    Blend: AUG-CC-PVTZ-JKFIT

    Orbital Energies [Eh]
    ---------------------

    Doubly Occupied:

       1A    -11.225055     2A    -11.223896     3A    -11.222740
       4A    -11.214560     5A    -11.213326     6A    -11.210686
       7A     -1.168957     8A     -1.003818     9A     -0.982407
      10A     -0.904589    11A     -0.774944    12A     -0.746760
      13A     -0.651921    14A     -0.629414    15A     -0.573204
      16A     -0.568730    17A     -0.553605    18A     -0.535536
      19A     -0.524161    20A     -0.509392    21A     -0.488524
      22A     -0.470117    23A     -0.380314    24A     -0.366893

  @DF-RHF Final Energy:  -234.19705389451127

   => Energetics <=

    Nuclear Repulsion Energy =            249.4089027980691071
    One-Electron Energy =                -808.9248139813206535
    Two-Electron Energy =                 325.3188572887402756
    Total Energy =                       -234.1970538945112708
  Basis Set: (AUG-CC-PVTZ AUX)
    Blend: AUG-CC-PVTZ-RI
    Molecular point group: c1

    Geometry (in Angstrom), charge = 0, multiplicity = 1:

       Center              X                  Y                   Z               Mass
    ------------   -----------------  -----------------  -----------------  -----------------
         C            0.214008202008     0.740837400688     0.434224438422    12.000000000000
         C            0.214015202008    -0.771659599312     0.434226438422    12.000000000000
         C           -0.768527797992    -0.015415599312    -0.422398561578    12.000000000000
         C            1.329161202008     1.556144400688    -0.175406561578    12.000000000000
         C            1.181467502008    -1.478962999312    -0.094657661578    12.000000000000
         C           -2.242468797992    -0.015414599312    -0.102031561578    12.000000000000
         H           -0.217501797992     1.189753400688     1.328888438422     1.007825032230
         H           -0.217487797992    -1.220577599312     1.328892438422     1.007825032230
         H           -0.533200797992    -0.015417599312    -1.487395561578     1.007825032230
         H            0.982685202008     2.569367400688    -0.404013561578     1.007825032230
         H            2.182418202008     1.637568400688     0.506484438422     1.007825032230
         H            1.686926202008     1.113520400688    -1.108308561578     1.007825032230
         H            2.182470202008    -1.668297599312     0.506446438422     1.007825032230
         H            0.982734202008    -2.600204599312    -0.403934561578     1.007825032230
         H            1.686874202008    -1.144371599312    -1.108355561578     1.007825032230
         H           -2.739172797992    -0.901919599312    -0.510617561578     1.007825032230
         H           -2.396194797992    -0.015452599312     0.981879438422     1.007825032230
         H           -2.739156797992     0.871130400688    -0.510553561578     1.007825032230

  Basis Set: AUG-CC-PVTZ
    Blend: AUG-CC-PVTZ
  Basis Set: (AUG-CC-PVTZ AUX)
    Blend: AUG-CC-PVTZ-JKFIT
	 Reference Energy          =    -234.1970538945112708 [Eh]
	 Singles Energy            =      -0.0000000000000000 [Eh]
	 Same-Spin Energy          =      -0.2571890467797776 [Eh]
	 Opposite-Spin Energy      =      -0.9244456402888024 [Eh]
	 Correlation Energy        =      -1.1816346870685801 [Eh]
	 Total Energy              =    -235.3786885815798371 [Eh]

	 ================> DF-SCS-MP2 Energies <==================
	-----------------------------------------------------------
	 SCS Same-Spin Scale       =       0.3333333333333333 [-]
	 SCS Opposite-Spin Scale   =       1.2000000000000000 [-]
	 SCS Same-Spin Energy      =      -0.0857296822599259 [Eh]
	 SCS Opposite-Spin Energy  =      -1.1093347683465629 [Eh]
	 SCS Correlation Energy    =      -1.1950644506064887 [Eh]
	 SCS Total Energy          =    -235.3921183451177512 [Eh]
	-----------------------------------------------------------

  Dipole Moment: [D]
     X:    -0.1464      Y:     0.1400      Z:     0.0018     Total:     0.2026

*** Psi4 exiting successfully. Buy a developer a beer!
