                               Psi4 1.4a3.dev225

  ==> Input File <==

--------------------------------------------------------------------------
#psi4
#
memory 32 gb

molecule  {
0 1
  C        0.1866420     0.7562470     0.4534190
  C        0.1866490    -0.7562500     0.4534210
  C       -0.7958940    -0.0000060    -0.4032040
  C        1.3017950     1.5715540    -0.1562120
  C        1.3018100    -1.5715430    -0.1562120
  C       -2.2698350    -0.0000050    -0.0828370
  H       -0.2448680     1.2051630     1.3480830
  H       -0.2369367    -1.1969311     1.3316715
  H       -0.5605670    -0.0000080    -1.4682010
  H        0.9553190     2.5847770    -0.3848190
  H        2.1550520     1.6529780     0.5256790
  H        1.6595600     1.1289300    -1.0891140
  H        2.1551040    -1.6528880     0.5256410
  H        0.9553680    -2.5847950    -0.3847400
  H        1.6595080    -1.1289620    -1.0891610
  H       -2.7665390    -0.8865100    -0.4914230
  H       -2.4235610    -0.0000430     1.0010740
  H       -2.7665230     0.8865400    -0.4913590
units angstrom
no_reorient  #important for SAPT in psi4, default
symmetry c1  #important for SAPT in psi4, default
}

set PROPERTIES_ORIGIN ["COM"]
properties('MP2/aug-cc-pvtz', properties = ['dipole'])
--------------------------------------------------------------------------

    Molecular point group: c1
  Charge       = 0
  Multiplicity = 1
  Basis Set: AUG-CC-PVTZ
    Blend: AUG-CC-PVTZ
  Basis Set: (AUG-CC-PVTZ AUX)
    Blend: AUG-CC-PVTZ-JKFIT

    Orbital Energies [Eh]
    ---------------------

    Doubly Occupied:

       1A    -11.220500     2A    -11.219309     3A    -11.217948
       4A    -11.212518     5A    -11.212472     6A    -11.212372
       7A     -1.151394     8A     -0.982784     9A     -0.975813
      10A     -0.908188    11A     -0.770967    12A     -0.747417
      13A     -0.641568    14A     -0.610746    15A     -0.570208
      16A     -0.568509    17A     -0.547332    18A     -0.534397
      19A     -0.529525    20A     -0.527904    21A     -0.484330
      22A     -0.474896    23A     -0.382306    24A     -0.381942

  @DF-RHF Final Energy:  -234.24860390122677

   => Energetics <=

    Nuclear Repulsion Energy =            246.3894874141670073
    One-Electron Energy =                -803.1054906033458565
    Two-Electron Energy =                 322.4673992879521052
    Total Energy =                       -234.2486039012267725
  Basis Set: (AUG-CC-PVTZ AUX)
    Blend: AUG-CC-PVTZ-RI
    Molecular point group: c1

    Geometry (in Angstrom), charge = 0, multiplicity = 1:

       Center              X                  Y                   Z               Mass
    ------------   -----------------  -----------------  -----------------  -----------------
         C            0.192835636044     0.756148545017     0.445943846694    12.000000000000
         C            0.192842636044    -0.756348454983     0.445945846694    12.000000000000
         C           -0.789700363956    -0.000104454983    -0.410679153306    12.000000000000
         C            1.307988636044     1.571455545017    -0.163687153306    12.000000000000
         C            1.308003636044    -1.571641454983    -0.163687153306    12.000000000000
         C           -2.263641363956    -0.000103454983    -0.090312153306    12.000000000000
         H           -0.238674363956     1.205064545017     1.340607846694     1.007825032230
         H           -0.230743063956    -1.197029554983     1.324196346694     1.007825032230
         H           -0.554373363956    -0.000106454983    -1.475676153306     1.007825032230
         H            0.961512636044     2.584678545017    -0.392294153306     1.007825032230
         H            2.161245636044     1.652879545017     0.518203846694     1.007825032230
         H            1.665753636044     1.128831545017    -1.096589153306     1.007825032230
         H            2.161297636044    -1.652986454983     0.518165846694     1.007825032230
         H            0.961561636044    -2.584893454983    -0.392215153306     1.007825032230
         H            1.665701636044    -1.129060454983    -1.096636153306     1.007825032230
         H           -2.760345363956    -0.886608454983    -0.498898153306     1.007825032230
         H           -2.417367363956    -0.000141454983     0.993598846694     1.007825032230
         H           -2.760329363956     0.886441545017    -0.498834153306     1.007825032230

  Basis Set: AUG-CC-PVTZ
    Blend: AUG-CC-PVTZ
  Basis Set: (AUG-CC-PVTZ AUX)
    Blend: AUG-CC-PVTZ-JKFIT
	 Reference Energy          =    -234.2486039012267725 [Eh]
	 Singles Energy            =      -0.0000000000000000 [Eh]
	 Same-Spin Energy          =      -0.2538923015225902 [Eh]
	 Opposite-Spin Energy      =      -0.9198681812575007 [Eh]
	 Correlation Energy        =      -1.1737604827800909 [Eh]
	 Total Energy              =    -235.4223643840068689 [Eh]

	 ================> DF-SCS-MP2 Energies <==================
	-----------------------------------------------------------
	 SCS Same-Spin Scale       =       0.3333333333333333 [-]
	 SCS Opposite-Spin Scale   =       1.2000000000000000 [-]
	 SCS Same-Spin Energy      =      -0.0846307671741967 [Eh]
	 SCS Opposite-Spin Energy  =      -1.1038418175090008 [Eh]
	 SCS Correlation Energy    =      -1.1884725846831976 [Eh]
	 SCS Total Energy          =    -235.4370764859099836 [Eh]
	-----------------------------------------------------------

  Dipole Moment: [D]
     X:    -0.0100      Y:    -0.0058      Z:    -0.0000     Total:     0.0115

*** Psi4 exiting successfully. Buy a developer a beer!
