                               Psi4 1.4a3.dev225

  ==> Input File <==

--------------------------------------------------------------------------
#psi4
#
memory 32 gb

molecule  {
0 1
  C        0.1866420     0.7562470     0.4534190
  C        0.2012530    -0.7529126     0.4751022
  C       -0.7958940    -0.0000060    -0.4032040
  C        1.3017950     1.5715540    -0.1562120
  C        1.3018100    -1.5715430    -0.1562120
  C       -2.2698350    -0.0000050    -0.0828370
  H       -0.2448680     1.2051630     1.3480830
  H       -0.2448540    -1.2051680     1.3480870
  H       -0.5605670    -0.0000080    -1.4682010
  H        0.9553190     2.5847770    -0.3848190
  H        2.1550520     1.6529780     0.5256790
  H        1.6595600     1.1289300    -1.0891140
  H        2.1551040    -1.6528880     0.5256410
  H        0.9553680    -2.5847950    -0.3847400
  H        1.6595080    -1.1289620    -1.0891610
  H       -2.7665390    -0.8865100    -0.4914230
  H       -2.4235610    -0.0000430     1.0010740
  H       -2.7665230     0.8865400    -0.4913590
units angstrom
no_reorient  #important for SAPT in psi4, default
symmetry c1  #important for SAPT in psi4, default
}

set PROPERTIES_ORIGIN ["COM"]
properties('MP2/aug-cc-pvtz', properties = ['dipole'])
--------------------------------------------------------------------------

    Molecular point group: c1
  Charge       = 0
  Multiplicity = 1
  Basis Set: AUG-CC-PVTZ
    Blend: AUG-CC-PVTZ
  Basis Set: (AUG-CC-PVTZ AUX)
    Blend: AUG-CC-PVTZ-JKFIT

    Orbital Energies [Eh]
    ---------------------

    Doubly Occupied:

       1A    -11.221735     2A    -11.220320     3A    -11.219392
       4A    -11.212839     5A    -11.212435     6A    -11.212309
       7A     -1.148744     8A     -0.982634     9A     -0.975772
      10A     -0.907426    11A     -0.770411    12A     -0.746038
      13A     -0.641245    14A     -0.609808    15A     -0.569844
      16A     -0.568174    17A     -0.546860    18A     -0.534768
      19A     -0.528668    20A     -0.528442    21A     -0.484949
      22A     -0.475308    23A     -0.386429    24A     -0.375465

  @DF-RHF Final Energy:  -234.24805827318642

   => Energetics <=

    Nuclear Repulsion Energy =            246.1200867826663909
    One-Electron Energy =                -802.5762579795793954
    Two-Electron Energy =                 322.2081129237266168
    Total Energy =                       -234.2480582731864160
  Basis Set: (AUG-CC-PVTZ AUX)
    Blend: AUG-CC-PVTZ-RI
    Molecular point group: c1

    Geometry (in Angstrom), charge = 0, multiplicity = 1:

       Center              X                  Y                   Z               Mass
    ------------   -----------------  -----------------  -----------------  -----------------
         C            0.190846564945     0.755771021250     0.442653259023    12.000000000000
         C            0.205457564945    -0.753388578750     0.464336459023    12.000000000000
         C           -0.791689435055    -0.000481978750    -0.413969740977    12.000000000000
         C            1.305999564945     1.571078021250    -0.166977740977    12.000000000000
         C            1.306014564945    -1.572018978750    -0.166977740977    12.000000000000
         C           -2.265630435055    -0.000480978750    -0.093602740977    12.000000000000
         H           -0.240663435055     1.204687021250     1.337317259023     1.007825032230
         H           -0.240649435055    -1.205643978750     1.337321259023     1.007825032230
         H           -0.556362435055    -0.000483978750    -1.478966740977     1.007825032230
         H            0.959523564945     2.584301021250    -0.395584740977     1.007825032230
         H            2.159256564945     1.652502021250     0.514913259023     1.007825032230
         H            1.663764564945     1.128454021250    -1.099879740977     1.007825032230
         H            2.159308564945    -1.653363978750     0.514875259023     1.007825032230
         H            0.959572564945    -2.585270978750    -0.395505740977     1.007825032230
         H            1.663712564945    -1.129437978750    -1.099926740977     1.007825032230
         H           -2.762334435055    -0.886985978750    -0.502188740977     1.007825032230
         H           -2.419356435055    -0.000518978750     0.990308259023     1.007825032230
         H           -2.762318435055     0.886064021250    -0.502124740977     1.007825032230

  Basis Set: AUG-CC-PVTZ
    Blend: AUG-CC-PVTZ
  Basis Set: (AUG-CC-PVTZ AUX)
    Blend: AUG-CC-PVTZ-JKFIT
	 Reference Energy          =    -234.2480582731864160 [Eh]
	 Singles Energy            =      -0.0000000000000000 [Eh]
	 Same-Spin Energy          =      -0.2538820842914203 [Eh]
	 Opposite-Spin Energy      =      -0.9200641586796587 [Eh]
	 Correlation Energy        =      -1.1739462429710792 [Eh]
	 Total Energy              =    -235.4220045161575001 [Eh]

	 ================> DF-SCS-MP2 Energies <==================
	-----------------------------------------------------------
	 SCS Same-Spin Scale       =       0.3333333333333333 [-]
	 SCS Opposite-Spin Scale   =       1.2000000000000000 [-]
	 SCS Same-Spin Energy      =      -0.0846273614304734 [Eh]
	 SCS Opposite-Spin Energy  =      -1.1040769904155905 [Eh]
	 SCS Correlation Energy    =      -1.1887043518460638 [Eh]
	 SCS Total Energy          =    -235.4367626250324861 [Eh]
	-----------------------------------------------------------

  Dipole Moment: [D]
     X:    -0.0014      Y:     0.0112      Z:    -0.0026     Total:     0.0115

*** Psi4 exiting successfully. Buy a developer a beer!
