                               Psi4 1.4a3.dev225

  ==> Input File <==

--------------------------------------------------------------------------
#psi4
#
memory 32 gb

molecule  {
0 1
  C        0.1866420     0.7562470     0.4534190
  C        0.1866490    -0.7562500     0.4534210
  C       -0.8023233     0.0457413    -0.4284578
  C        1.3017950     1.5715540    -0.1562120
  C        1.3018100    -1.5715430    -0.1562120
  C       -2.2698350    -0.0000050    -0.0828370
  H       -0.2448680     1.2051630     1.3480830
  H       -0.2448540    -1.2051680     1.3480870
  H       -0.5605670    -0.0000080    -1.4682010
  H        0.9553190     2.5847770    -0.3848190
  H        2.1550520     1.6529780     0.5256790
  H        1.6595600     1.1289300    -1.0891140
  H        2.1551040    -1.6528880     0.5256410
  H        0.9553680    -2.5847950    -0.3847400
  H        1.6595080    -1.1289620    -1.0891610
  H       -2.7665390    -0.8865100    -0.4914230
  H       -2.4235610    -0.0000430     1.0010740
  H       -2.7665230     0.8865400    -0.4913590
units angstrom
no_reorient  #important for SAPT in psi4, default
symmetry c1  #important for SAPT in psi4, default
}

set PROPERTIES_ORIGIN ["COM"]
properties('MP2/aug-cc-pvtz', properties = ['dipole'])
--------------------------------------------------------------------------

    Molecular point group: c1
  Charge       = 0
  Multiplicity = 1
  Basis Set: AUG-CC-PVTZ
    Blend: AUG-CC-PVTZ
  Basis Set: (AUG-CC-PVTZ AUX)
    Blend: AUG-CC-PVTZ-JKFIT

    Orbital Energies [Eh]
    ---------------------

    Doubly Occupied:

       1A    -11.222882     2A    -11.220601     3A    -11.219311
       4A    -11.212720     5A    -11.212340     6A    -11.212131
       7A     -1.146073     8A     -0.982898     9A     -0.975404
      10A     -0.905799    11A     -0.774453    12A     -0.744118
      13A     -0.639547    14A     -0.610648    15A     -0.569812
      16A     -0.568451    17A     -0.547205    18A     -0.534388
      19A     -0.527736    20A     -0.526840    21A     -0.490820
      22A     -0.473714    23A     -0.389773    24A     -0.368876

  @DF-RHF Final Energy:  -234.24665101741442

   => Energetics <=

    Nuclear Repulsion Energy =            245.9609936700687456
    One-Electron Energy =                -802.2622066317708232
    Two-Electron Energy =                 322.0545619442876273
    Total Energy =                       -234.2466510174144219
  Basis Set: (AUG-CC-PVTZ AUX)
    Blend: AUG-CC-PVTZ-RI
    Molecular point group: c1

    Geometry (in Angstrom), charge = 0, multiplicity = 1:

       Center              X                  Y                   Z               Mass
    ------------   -----------------  -----------------  -----------------  -----------------
         C            0.193847966935     0.749719229174     0.449350772129    12.000000000000
         C            0.193854966935    -0.762777770826     0.449352772129    12.000000000000
         C           -0.795117333065     0.039213529174    -0.432526027871    12.000000000000
         C            1.309000966935     1.565026229174    -0.160280227871    12.000000000000
         C            1.309015966935    -1.578070770826    -0.160280227871    12.000000000000
         C           -2.262629033065    -0.006532770826    -0.086905227871    12.000000000000
         H           -0.237662033065     1.198635229174     1.344014772129     1.007825032230
         H           -0.237648033065    -1.211695770826     1.344018772129     1.007825032230
         H           -0.553361033065    -0.006535770826    -1.472269227871     1.007825032230
         H            0.962524966935     2.578249229174    -0.388887227871     1.007825032230
         H            2.162257966935     1.646450229174     0.521610772129     1.007825032230
         H            1.666765966935     1.122402229174    -1.093182227871     1.007825032230
         H            2.162309966935    -1.659415770826     0.521572772129     1.007825032230
         H            0.962573966935    -2.591322770826    -0.388808227871     1.007825032230
         H            1.666713966935    -1.135489770826    -1.093229227871     1.007825032230
         H           -2.759333033065    -0.893037770826    -0.495491227871     1.007825032230
         H           -2.416355033065    -0.006570770826     0.997005772129     1.007825032230
         H           -2.759317033065     0.880012229174    -0.495427227871     1.007825032230

  Basis Set: AUG-CC-PVTZ
    Blend: AUG-CC-PVTZ
  Basis Set: (AUG-CC-PVTZ AUX)
    Blend: AUG-CC-PVTZ-JKFIT
	 Reference Energy          =    -234.2466510174144219 [Eh]
	 Singles Energy            =      -0.0000000000000000 [Eh]
	 Same-Spin Energy          =      -0.2538941170734505 [Eh]
	 Opposite-Spin Energy      =      -0.9202596443604099 [Eh]
	 Correlation Energy        =      -1.1741537614338604 [Eh]
	 Total Energy              =    -235.4208047788482929 [Eh]

	 ================> DF-SCS-MP2 Energies <==================
	-----------------------------------------------------------
	 SCS Same-Spin Scale       =       0.3333333333333333 [-]
	 SCS Opposite-Spin Scale   =       1.2000000000000000 [-]
	 SCS Same-Spin Energy      =      -0.0846313723578168 [Eh]
	 SCS Opposite-Spin Energy  =      -1.1043115732324917 [Eh]
	 SCS Correlation Energy    =      -1.1889429455903087 [Eh]
	 SCS Total Energy          =    -235.4355939630047203 [Eh]
	-----------------------------------------------------------

  Dipole Moment: [D]
     X:     0.0064      Y:     0.0164      Z:    -0.0019     Total:     0.0177

*** Psi4 exiting successfully. Buy a developer a beer!
