                               Psi4 1.4a3.dev225

  ==> Input File <==

--------------------------------------------------------------------------
#psi4
#
memory 32 gb

molecule  {
0 1
  C        0.1668203     0.7640902     0.4688263
  C        0.1866490    -0.7562500     0.4534210
  C       -0.7958940    -0.0000060    -0.4032040
  C        1.3017950     1.5715540    -0.1562120
  C        1.3018100    -1.5715430    -0.1562120
  C       -2.2698350    -0.0000050    -0.0828370
  H       -0.2448680     1.2051630     1.3480830
  H       -0.2448540    -1.2051680     1.3480870
  H       -0.5605670    -0.0000080    -1.4682010
  H        0.9553190     2.5847770    -0.3848190
  H        2.1550520     1.6529780     0.5256790
  H        1.6595600     1.1289300    -1.0891140
  H        2.1551040    -1.6528880     0.5256410
  H        0.9553680    -2.5847950    -0.3847400
  H        1.6595080    -1.1289620    -1.0891610
  H       -2.7665390    -0.8865100    -0.4914230
  H       -2.4235610    -0.0000430     1.0010740
  H       -2.7665230     0.8865400    -0.4913590
units angstrom
no_reorient  #important for SAPT in psi4, default
symmetry c1  #important for SAPT in psi4, default
}

set PROPERTIES_ORIGIN ["COM"]
properties('MP2/aug-cc-pvtz', properties = ['dipole'])
--------------------------------------------------------------------------

    Molecular point group: c1
  Charge       = 0
  Multiplicity = 1
  Basis Set: AUG-CC-PVTZ
    Blend: AUG-CC-PVTZ
  Basis Set: (AUG-CC-PVTZ AUX)
    Blend: AUG-CC-PVTZ-JKFIT

    Orbital Energies [Eh]
    ---------------------

    Doubly Occupied:

       1A    -11.220857     2A    -11.219904     3A    -11.219462
       4A    -11.212900     5A    -11.212858     6A    -11.212245
       7A     -1.149628     8A     -0.982070     9A     -0.973723
      10A     -0.907186    11A     -0.771456    12A     -0.748245
      13A     -0.639978    14A     -0.610440    15A     -0.570235
      16A     -0.567605    17A     -0.546851    18A     -0.533696
      19A     -0.529551    20A     -0.526993    21A     -0.484448
      22A     -0.475206    23A     -0.383410    24A     -0.380254

  @DF-RHF Final Energy:  -234.24804270033326

   => Energetics <=

    Nuclear Repulsion Energy =            246.0975912843253184
    One-Electron Energy =                -802.5328636951401222
    Two-Electron Energy =                 322.1872297104815743
    Total Energy =                       -234.2480427003332579
  Basis Set: (AUG-CC-PVTZ AUX)
    Blend: AUG-CC-PVTZ-RI
    Molecular point group: c1

    Geometry (in Angstrom), charge = 0, multiplicity = 1:

       Center              X                  Y                   Z               Mass
    ------------   -----------------  -----------------  -----------------  -----------------
         C            0.175937330630     0.762971254284     0.458955829663    12.000000000000
         C            0.195766030630    -0.757368945716     0.443550529663    12.000000000000
         C           -0.786776969370    -0.001124945716    -0.413074470337    12.000000000000
         C            1.310912030630     1.570435054284    -0.166082470337    12.000000000000
         C            1.310927030630    -1.572661945716    -0.166082470337    12.000000000000
         C           -2.260717969370    -0.001123945716    -0.092707470337    12.000000000000
         H           -0.235750969370     1.204044054284     1.338212529663     1.007825032230
         H           -0.235736969370    -1.206286945716     1.338216529663     1.007825032230
         H           -0.551449969370    -0.001126945716    -1.478071470337     1.007825032230
         H            0.964436030630     2.583658054284    -0.394689470337     1.007825032230
         H            2.164169030630     1.651859054284     0.515808529663     1.007825032230
         H            1.668677030630     1.127811054284    -1.098984470337     1.007825032230
         H            2.164221030630    -1.654006945716     0.515770529663     1.007825032230
         H            0.964485030630    -2.585913945716    -0.394610470337     1.007825032230
         H            1.668625030630    -1.130080945716    -1.099031470337     1.007825032230
         H           -2.757421969370    -0.887628945716    -0.501293470337     1.007825032230
         H           -2.414443969370    -0.001161945716     0.991203529663     1.007825032230
         H           -2.757405969370     0.885421054284    -0.501229470337     1.007825032230

  Basis Set: AUG-CC-PVTZ
    Blend: AUG-CC-PVTZ
  Basis Set: (AUG-CC-PVTZ AUX)
    Blend: AUG-CC-PVTZ-JKFIT
	 Reference Energy          =    -234.2480427003332579 [Eh]
	 Singles Energy            =      -0.0000000000000000 [Eh]
	 Same-Spin Energy          =      -0.2537759132795988 [Eh]
	 Opposite-Spin Energy      =      -0.9199221252120412 [Eh]
	 Correlation Energy        =      -1.1736980384916400 [Eh]
	 Total Energy              =    -235.4217407388248944 [Eh]

	 ================> DF-SCS-MP2 Energies <==================
	-----------------------------------------------------------
	 SCS Same-Spin Scale       =       0.3333333333333333 [-]
	 SCS Opposite-Spin Scale   =       1.2000000000000000 [-]
	 SCS Same-Spin Energy      =      -0.0845919710931996 [Eh]
	 SCS Opposite-Spin Energy  =      -1.1039065502544494 [Eh]
	 SCS Correlation Energy    =      -1.1884985213476489 [Eh]
	 SCS Total Energy          =    -235.4365412216808977 [Eh]
	-----------------------------------------------------------

  Dipole Moment: [D]
     X:    -0.0107      Y:    -0.0066      Z:    -0.0046     Total:     0.0134

*** Psi4 exiting successfully. Buy a developer a beer!
