                               Psi4 1.4a3.dev225

  ==> Input File <==

--------------------------------------------------------------------------
#psi4
#
memory 32 gb

molecule  {
0 1
  C        0.1866420     0.7562470     0.4534190
  C        0.1866490    -0.7562500     0.4534210
  C       -0.7958940    -0.0000060    -0.4032040
  C        1.3017950     1.5715540    -0.1562120
  C        1.3018100    -1.5715430    -0.1562120
  C       -2.2698350    -0.0000050    -0.0828370
  H       -0.2448680     1.2051630     1.3480830
  H       -0.2448540    -1.2051680     1.3480870
  H       -0.6037191    -0.0000076    -1.2729117
  H        0.9553190     2.5847770    -0.3848190
  H        2.1550520     1.6529780     0.5256790
  H        1.6595600     1.1289300    -1.0891140
  H        2.1551040    -1.6528880     0.5256410
  H        0.9553680    -2.5847950    -0.3847400
  H        1.6595080    -1.1289620    -1.0891610
  H       -2.7665390    -0.8865100    -0.4914230
  H       -2.4235610    -0.0000430     1.0010740
  H       -2.7665230     0.8865400    -0.4913590
units angstrom
no_reorient  #important for SAPT in psi4, default
symmetry c1  #important for SAPT in psi4, default
}

set PROPERTIES_ORIGIN ["COM"]
properties('MP2/aug-cc-pvtz', properties = ['dipole'])
--------------------------------------------------------------------------

    Molecular point group: c1
  Charge       = 0
  Multiplicity = 1
  Basis Set: AUG-CC-PVTZ
    Blend: AUG-CC-PVTZ
  Basis Set: (AUG-CC-PVTZ AUX)
    Blend: AUG-CC-PVTZ-JKFIT

    Orbital Energies [Eh]
    ---------------------

    Doubly Occupied:

       1A    -11.219529     2A    -11.218860     3A    -11.212612
       4A    -11.212609     5A    -11.210788     6A    -11.194906
       7A     -1.155373     8A     -0.985456     9A     -0.975519
      10A     -0.907484    11A     -0.808460    12A     -0.744741
      13A     -0.641596    14A     -0.622254    15A     -0.569598
      16A     -0.568703    17A     -0.546939    18A     -0.534548
      19A     -0.528914    20A     -0.527991    21A     -0.498577
      22A     -0.473382    23A     -0.382496    24A     -0.380942

  @DF-RHF Final Energy:  -234.21459207033246

   => Energetics <=

    Nuclear Repulsion Energy =            247.3708769818004498
    One-Electron Energy =                -804.9263805926880195
    Two-Electron Energy =                 323.3409115405551688
    Total Energy =                       -234.2145920703324578
  Basis Set: (AUG-CC-PVTZ AUX)
    Blend: AUG-CC-PVTZ-RI
    Molecular point group: c1

    Geometry (in Angstrom), charge = 0, multiplicity = 1:

       Center              X                  Y                   Z               Mass
    ------------   -----------------  -----------------  -----------------  -----------------
         C            0.193447678290     0.756247255516     0.443406666281    12.000000000000
         C            0.193454678290    -0.756249744484     0.443408666281    12.000000000000
         C           -0.789088321710    -0.000005744484    -0.413216333719    12.000000000000
         C            1.308600678290     1.571554255516    -0.166224333719    12.000000000000
         C            1.308615678290    -1.571542744484    -0.166224333719    12.000000000000
         C           -2.263029321710    -0.000004744484    -0.092849333719    12.000000000000
         H           -0.238062321710     1.205163255516     1.338070666281     1.007825032230
         H           -0.238048321710    -1.205167744484     1.338074666281     1.007825032230
         H           -0.596913421710    -0.000007344484    -1.282924033719     1.007825032230
         H            0.962124678290     2.584777255516    -0.394831333719     1.007825032230
         H            2.161857678290     1.652978255516     0.515666666281     1.007825032230
         H            1.666365678290     1.128930255516    -1.099126333719     1.007825032230
         H            2.161909678290    -1.652887744484     0.515628666281     1.007825032230
         H            0.962173678290    -2.584794744484    -0.394752333719     1.007825032230
         H            1.666313678290    -1.128961744484    -1.099173333719     1.007825032230
         H           -2.759733321710    -0.886509744484    -0.501435333719     1.007825032230
         H           -2.416755321710    -0.000042744484     0.991061666281     1.007825032230
         H           -2.759717321710     0.886540255516    -0.501371333719     1.007825032230

  Basis Set: AUG-CC-PVTZ
    Blend: AUG-CC-PVTZ
  Basis Set: (AUG-CC-PVTZ AUX)
    Blend: AUG-CC-PVTZ-JKFIT
	 Reference Energy          =    -234.2145920703324578 [Eh]
	 Singles Energy            =      -0.0000000000000000 [Eh]
	 Same-Spin Energy          =      -0.2538211759184805 [Eh]
	 Opposite-Spin Energy      =      -0.9195538894316984 [Eh]
	 Correlation Energy        =      -1.1733750653501789 [Eh]
	 Total Energy              =    -235.3879671356826293 [Eh]

	 ================> DF-SCS-MP2 Energies <==================
	-----------------------------------------------------------
	 SCS Same-Spin Scale       =       0.3333333333333333 [-]
	 SCS Opposite-Spin Scale   =       1.2000000000000000 [-]
	 SCS Same-Spin Energy      =      -0.0846070586394935 [Eh]
	 SCS Opposite-Spin Energy  =      -1.1034646673180379 [Eh]
	 SCS Correlation Energy    =      -1.1880717259575315 [Eh]
	 SCS Total Energy          =    -235.4026637962899997 [Eh]
	-----------------------------------------------------------

  Dipole Moment: [D]
     X:     0.0211      Y:    -0.0000      Z:    -0.0794     Total:     0.0822

*** Psi4 exiting successfully. Buy a developer a beer!
