                               Psi4 1.4a3.dev225

  ==> Input File <==

--------------------------------------------------------------------------
#psi4
#
memory 32 gb

molecule  {
0 1
  C        0.1866420     0.7562470     0.4534190
  C        0.1866490    -0.7562500     0.4534210
  C       -0.7958940    -0.0000060    -0.4032040
  C        1.3387219     1.5985519    -0.1763992
  C        1.3018100    -1.5715430    -0.1562120
  C       -2.2698350    -0.0000050    -0.0828370
  H       -0.2448680     1.2051630     1.3480830
  H       -0.2448540    -1.2051680     1.3480870
  H       -0.5605670    -0.0000080    -1.4682010
  H        0.9553190     2.5847770    -0.3848190
  H        2.1550520     1.6529780     0.5256790
  H        1.6595600     1.1289300    -1.0891140
  H        2.1551040    -1.6528880     0.5256410
  H        0.9553680    -2.5847950    -0.3847400
  H        1.6595080    -1.1289620    -1.0891610
  H       -2.7665390    -0.8865100    -0.4914230
  H       -2.4235610    -0.0000430     1.0010740
  H       -2.7665230     0.8865400    -0.4913590
units angstrom
no_reorient  #important for SAPT in psi4, default
symmetry c1  #important for SAPT in psi4, default
}

set PROPERTIES_ORIGIN ["COM"]
properties('MP2/aug-cc-pvtz', properties = ['dipole'])
--------------------------------------------------------------------------

    Molecular point group: c1
  Charge       = 0
  Multiplicity = 1
  Basis Set: AUG-CC-PVTZ
    Blend: AUG-CC-PVTZ
  Basis Set: (AUG-CC-PVTZ AUX)
    Blend: AUG-CC-PVTZ-JKFIT

    Orbital Energies [Eh]
    ---------------------

    Doubly Occupied:

       1A    -11.222405     2A    -11.220175     3A    -11.219112
       4A    -11.212542     5A    -11.212266     6A    -11.210953
       7A     -1.148652     8A     -0.981817     9A     -0.972542
      10A     -0.909480    11A     -0.768959    12A     -0.744818
      13A     -0.639421    14A     -0.607412    15A     -0.572505
      16A     -0.569489    17A     -0.548899    18A     -0.539454
      19A     -0.531826    20A     -0.525812    21A     -0.482631
      22A     -0.467849    23A     -0.384122    24A     -0.381324

  @DF-RHF Final Energy:  -234.24684092675679

   => Energetics <=

    Nuclear Repulsion Energy =            245.5886313192713430
    One-Electron Energy =                -801.5220103504993858
    Two-Electron Energy =                 321.6865381044711967
    Total Energy =                       -234.2468409267568177
  Basis Set: (AUG-CC-PVTZ AUX)
    Blend: AUG-CC-PVTZ-RI
    Molecular point group: c1

    Geometry (in Angstrom), charge = 0, multiplicity = 1:

       Center              X                  Y                   Z               Mass
    ------------   -----------------  -----------------  -----------------  -----------------
         C            0.187661140095     0.752394724055     0.448627780334    12.000000000000
         C            0.187668140095    -0.760102275945     0.448629780334    12.000000000000
         C           -0.794874859905    -0.003858275945    -0.407995219666    12.000000000000
         C            1.339741040095     1.594699624055    -0.181190419666    12.000000000000
         C            1.302829140095    -1.575395275945    -0.161003219666    12.000000000000
         C           -2.268815859905    -0.003857275945    -0.087628219666    12.000000000000
         H           -0.243848859905     1.201310724055     1.343291780334     1.007825032230
         H           -0.243834859905    -1.209020275945     1.343295780334     1.007825032230
         H           -0.559547859905    -0.003860275945    -1.472992219666     1.007825032230
         H            0.956338140095     2.580924724055    -0.389610219666     1.007825032230
         H            2.156071140095     1.649125724055     0.520887780334     1.007825032230
         H            1.660579140095     1.125077724055    -1.093905219666     1.007825032230
         H            2.156123140095    -1.656740275945     0.520849780334     1.007825032230
         H            0.956387140095    -2.588647275945    -0.389531219666     1.007825032230
         H            1.660527140095    -1.132814275945    -1.093952219666     1.007825032230
         H           -2.765519859905    -0.890362275945    -0.496214219666     1.007825032230
         H           -2.422541859905    -0.003895275945     0.996282780334     1.007825032230
         H           -2.765503859905     0.882687724055    -0.496150219666     1.007825032230

  Basis Set: AUG-CC-PVTZ
    Blend: AUG-CC-PVTZ
  Basis Set: (AUG-CC-PVTZ AUX)
    Blend: AUG-CC-PVTZ-JKFIT
	 Reference Energy          =    -234.2468409267567893 [Eh]
	 Singles Energy            =      -0.0000000000000000 [Eh]
	 Same-Spin Energy          =      -0.2536278839589171 [Eh]
	 Opposite-Spin Energy      =      -0.9198073531741123 [Eh]
	 Correlation Energy        =      -1.1734352371330294 [Eh]
	 Total Energy              =    -235.4202761638898096 [Eh]

	 ================> DF-SCS-MP2 Energies <==================
	-----------------------------------------------------------
	 SCS Same-Spin Scale       =       0.3333333333333333 [-]
	 SCS Opposite-Spin Scale   =       1.2000000000000000 [-]
	 SCS Same-Spin Energy      =      -0.0845426279863057 [Eh]
	 SCS Opposite-Spin Energy  =      -1.1037688238089347 [Eh]
	 SCS Correlation Energy    =      -1.1883114517952404 [Eh]
	 SCS Total Energy          =    -235.4351523785520328 [Eh]
	-----------------------------------------------------------

  Dipole Moment: [D]
     X:     0.0034      Y:     0.0091      Z:    -0.0055     Total:     0.0111

*** Psi4 exiting successfully. Buy a developer a beer!
