                               Psi4 1.4a3.dev225

  ==> Input File <==

--------------------------------------------------------------------------
#psi4
#
memory 32 gb

molecule  {
0 1
  C        0.1866420     0.7562470     0.4534190
  C        0.1866490    -0.7562500     0.4534210
  C       -0.7874011    -0.1370250    -0.3252261
  C        1.3017950     1.5715540    -0.1562120
  C        1.3018100    -1.5715430    -0.1562120
  C       -2.2698350    -0.0000050    -0.0828370
  H       -0.2448680     1.2051630     1.3480830
  H       -0.2448540    -1.2051680     1.3480870
  H       -0.5605670    -0.0000080    -1.4682010
  H        0.9553190     2.5847770    -0.3848190
  H        2.1550520     1.6529780     0.5256790
  H        1.6595600     1.1289300    -1.0891140
  H        2.1551040    -1.6528880     0.5256410
  H        0.9553680    -2.5847950    -0.3847400
  H        1.6595080    -1.1289620    -1.0891610
  H       -2.7665390    -0.8865100    -0.4914230
  H       -2.4235610    -0.0000430     1.0010740
  H       -2.7665230     0.8865400    -0.4913590
units angstrom
no_reorient  #important for SAPT in psi4, default
symmetry c1  #important for SAPT in psi4, default
}

set PROPERTIES_ORIGIN ["COM"]
properties('MP2/aug-cc-pvtz', properties = ['dipole'])
--------------------------------------------------------------------------

    Molecular point group: c1
  Charge       = 0
  Multiplicity = 1
  Basis Set: AUG-CC-PVTZ
    Blend: AUG-CC-PVTZ
  Basis Set: (AUG-CC-PVTZ AUX)
    Blend: AUG-CC-PVTZ-JKFIT

    Orbital Energies [Eh]
    ---------------------

    Doubly Occupied:

       1A    -11.225176     2A    -11.220658     3A    -11.215389
       4A    -11.215286     5A    -11.214533     6A    -11.212226
       7A     -1.167696     8A     -0.984096     9A     -0.976610
      10A     -0.915892    11A     -0.758968    12A     -0.749524
      13A     -0.645968    14A     -0.609561    15A     -0.573759
      16A     -0.569298    17A     -0.549123    18A     -0.536512
      19A     -0.534915    20A     -0.527600    21A     -0.475494
      22A     -0.458988    23A     -0.418699    24A     -0.356716

  @DF-RHF Final Energy:  -234.22868545210196

   => Energetics <=

    Nuclear Repulsion Energy =            247.0790165740501720
    One-Electron Energy =                -804.3900284381155643
    Two-Electron Energy =                 323.0823264119634928
    Total Energy =                       -234.2286854521019563
  Basis Set: (AUG-CC-PVTZ AUX)
    Blend: AUG-CC-PVTZ-RI
    Molecular point group: c1

    Geometry (in Angstrom), charge = 0, multiplicity = 1:

       Center              X                  Y                   Z               Mass
    ------------   -----------------  -----------------  -----------------  -----------------
         C            0.191718604411     0.775799546414     0.434619853545    12.000000000000
         C            0.191725604411    -0.736697453586     0.434621853545    12.000000000000
         C           -0.782324495589    -0.117472453586    -0.344025246455    12.000000000000
         C            1.306871604411     1.591106546414    -0.175011146455    12.000000000000
         C            1.306886604411    -1.551990453586    -0.175011146455    12.000000000000
         C           -2.264758395589     0.019547546414    -0.101636146455    12.000000000000
         H           -0.239791395589     1.224715546414     1.329283853545     1.007825032230
         H           -0.239777395589    -1.185615453586     1.329287853545     1.007825032230
         H           -0.555490395589     0.019544546414    -1.487000146455     1.007825032230
         H            0.960395604411     2.604329546414    -0.403618146455     1.007825032230
         H            2.160128604411     1.672530546414     0.506879853545     1.007825032230
         H            1.664636604411     1.148482546414    -1.107913146455     1.007825032230
         H            2.160180604411    -1.633335453586     0.506841853545     1.007825032230
         H            0.960444604411    -2.565242453586    -0.403539146455     1.007825032230
         H            1.664584604411    -1.109409453586    -1.107960146455     1.007825032230
         H           -2.761462395589    -0.866957453586    -0.510222146455     1.007825032230
         H           -2.418484395589     0.019509546414     0.982274853545     1.007825032230
         H           -2.761446395589     0.906092546414    -0.510158146455     1.007825032230

  Basis Set: AUG-CC-PVTZ
    Blend: AUG-CC-PVTZ
  Basis Set: (AUG-CC-PVTZ AUX)
    Blend: AUG-CC-PVTZ-JKFIT
	 Reference Energy          =    -234.2286854521019563 [Eh]
	 Singles Energy            =      -0.0000000000000000 [Eh]
	 Same-Spin Energy          =      -0.2549431225296525 [Eh]
	 Opposite-Spin Energy      =      -0.9212967929307290 [Eh]
	 Correlation Energy        =      -1.1762399154603815 [Eh]
	 Total Energy              =    -235.4049253675623277 [Eh]

	 ================> DF-SCS-MP2 Energies <==================
	-----------------------------------------------------------
	 SCS Same-Spin Scale       =       0.3333333333333333 [-]
	 SCS Opposite-Spin Scale   =       1.2000000000000000 [-]
	 SCS Same-Spin Energy      =      -0.0849810408432175 [Eh]
	 SCS Opposite-Spin Energy  =      -1.1055561515168748 [Eh]
	 SCS Correlation Energy    =      -1.1905371923600923 [Eh]
	 SCS Total Energy          =    -235.4192226444620530 [Eh]
	-----------------------------------------------------------

  Dipole Moment: [D]
     X:    -0.0562      Y:    -0.0741      Z:    -0.0035     Total:     0.0931

*** Psi4 exiting successfully. Buy a developer a beer!
