                               Psi4 1.4a3.dev225

  ==> Input File <==

--------------------------------------------------------------------------
#psi4
#
memory 32 gb

molecule  {
0 1
  C        0.0634369     0.7997695     0.5417871
  C        0.1866490    -0.7562500     0.4534210
  C       -0.7958940    -0.0000060    -0.4032040
  C        1.3017950     1.5715540    -0.1562120
  C        1.3018100    -1.5715430    -0.1562120
  C       -2.2698350    -0.0000050    -0.0828370
  H       -0.2448680     1.2051630     1.3480830
  H       -0.2448540    -1.2051680     1.3480870
  H       -0.5605670    -0.0000080    -1.4682010
  H        0.9553190     2.5847770    -0.3848190
  H        2.1550520     1.6529780     0.5256790
  H        1.6595600     1.1289300    -1.0891140
  H        2.1551040    -1.6528880     0.5256410
  H        0.9553680    -2.5847950    -0.3847400
  H        1.6595080    -1.1289620    -1.0891610
  H       -2.7665390    -0.8865100    -0.4914230
  H       -2.4235610    -0.0000430     1.0010740
  H       -2.7665230     0.8865400    -0.4913590
units angstrom
no_reorient  #important for SAPT in psi4, default
symmetry c1  #important for SAPT in psi4, default
}

set PROPERTIES_ORIGIN ["COM"]
properties('MP2/aug-cc-pvtz', properties = ['dipole'])
--------------------------------------------------------------------------

    Molecular point group: c1
  Charge       = 0
  Multiplicity = 1
  Basis Set: AUG-CC-PVTZ
    Blend: AUG-CC-PVTZ
  Basis Set: (AUG-CC-PVTZ AUX)
    Blend: AUG-CC-PVTZ-JKFIT

    Orbital Energies [Eh]
    ---------------------

    Doubly Occupied:

       1A    -11.224009     2A    -11.222034     3A    -11.217753
       4A    -11.214684     5A    -11.214677     6A    -11.211276
       7A     -1.143120     8A     -0.981639     9A     -0.963909
      10A     -0.902040    11A     -0.791467    12A     -0.755455
      13A     -0.637525    14A     -0.611251    15A     -0.573173
      16A     -0.563508    17A     -0.545583    18A     -0.537354
      19A     -0.530888    20A     -0.519650    21A     -0.484310
      22A     -0.472875    23A     -0.388208    24A     -0.367876

  @DF-RHF Final Energy:  -234.22016595007568

   => Energetics <=

    Nuclear Repulsion Energy =            245.1755472131856379
    One-Electron Energy =                -800.6428995794726688
    Two-Electron Energy =                 321.2471864162113775
    Total Energy =                       -234.2201659500756818
  Basis Set: (AUG-CC-PVTZ AUX)
    Blend: AUG-CC-PVTZ-RI
    Molecular point group: c1

    Geometry (in Angstrom), charge = 0, multiplicity = 1:

       Center              X                  Y                   Z               Mass
    ------------   -----------------  -----------------  -----------------  -----------------
         C            0.087306496444     0.793559202854     0.521505296665    12.000000000000
         C            0.210518596444    -0.762460297146     0.433139196665    12.000000000000
         C           -0.772024403556    -0.006216297146    -0.423485803335    12.000000000000
         C            1.325664596444     1.565343702854    -0.176493803335    12.000000000000
         C            1.325679596444    -1.577753297146    -0.176493803335    12.000000000000
         C           -2.245965403556    -0.006215297146    -0.103118803335    12.000000000000
         H           -0.220998403556     1.198952702854     1.327801196665     1.007825032230
         H           -0.220984403556    -1.211378297146     1.327805196665     1.007825032230
         H           -0.536697403556    -0.006218297146    -1.488482803335     1.007825032230
         H            0.979188596444     2.578566702854    -0.405100803335     1.007825032230
         H            2.178921596444     1.646767702854     0.505397196665     1.007825032230
         H            1.683429596444     1.122719702854    -1.109395803335     1.007825032230
         H            2.178973596444    -1.659098297146     0.505359196665     1.007825032230
         H            0.979237596444    -2.591005297146    -0.405021803335     1.007825032230
         H            1.683377596444    -1.135172297146    -1.109442803335     1.007825032230
         H           -2.742669403556    -0.892720297146    -0.511704803335     1.007825032230
         H           -2.399691403556    -0.006253297146     0.980792196665     1.007825032230
         H           -2.742653403556     0.880329702854    -0.511640803335     1.007825032230

  Basis Set: AUG-CC-PVTZ
    Blend: AUG-CC-PVTZ
  Basis Set: (AUG-CC-PVTZ AUX)
    Blend: AUG-CC-PVTZ-JKFIT
	 Reference Energy          =    -234.2201659500756818 [Eh]
	 Singles Energy            =      -0.0000000000000000 [Eh]
	 Same-Spin Energy          =      -0.2536581225496392 [Eh]
	 Opposite-Spin Energy      =      -0.9210961510828564 [Eh]
	 Correlation Energy        =      -1.1747542736324954 [Eh]
	 Total Energy              =    -235.3949202237081693 [Eh]

	 ================> DF-SCS-MP2 Energies <==================
	-----------------------------------------------------------
	 SCS Same-Spin Scale       =       0.3333333333333333 [-]
	 SCS Opposite-Spin Scale   =       1.2000000000000000 [-]
	 SCS Same-Spin Energy      =      -0.0845527075165464 [Eh]
	 SCS Opposite-Spin Energy  =      -1.1053153812994276 [Eh]
	 SCS Correlation Energy    =      -1.1898680888159741 [Eh]
	 SCS Total Energy          =    -235.4100340388916663 [Eh]
	-----------------------------------------------------------

  Dipole Moment: [D]
     X:    -0.0352      Y:    -0.0714      Z:    -0.0092     Total:     0.0801

*** Psi4 exiting successfully. Buy a developer a beer!
