                               Psi4 1.4a3.dev225

  ==> Input File <==

--------------------------------------------------------------------------
#psi4
#
memory 32 gb

molecule  {
0 1
  C        0.1866420     0.7562470     0.4534190
  C        0.1866490    -0.7562500     0.4534210
  C       -0.7958940    -0.0000060    -0.4032040
  C        1.3017950     1.5715540    -0.1562120
  C        1.3756643    -1.6255378    -0.1965865
  C       -2.2698350    -0.0000050    -0.0828370
  H       -0.2448680     1.2051630     1.3480830
  H       -0.2448540    -1.2051680     1.3480870
  H       -0.5605670    -0.0000080    -1.4682010
  H        0.9553190     2.5847770    -0.3848190
  H        2.1550520     1.6529780     0.5256790
  H        1.6595600     1.1289300    -1.0891140
  H        2.1551040    -1.6528880     0.5256410
  H        0.9553680    -2.5847950    -0.3847400
  H        1.6595080    -1.1289620    -1.0891610
  H       -2.7665390    -0.8865100    -0.4914230
  H       -2.4235610    -0.0000430     1.0010740
  H       -2.7665230     0.8865400    -0.4913590
units angstrom
no_reorient  #important for SAPT in psi4, default
symmetry c1  #important for SAPT in psi4, default
}

set PROPERTIES_ORIGIN ["COM"]
properties('MP2/aug-cc-pvtz', properties = ['dipole'])
--------------------------------------------------------------------------

    Molecular point group: c1
  Charge       = 0
  Multiplicity = 1
  Basis Set: AUG-CC-PVTZ
    Blend: AUG-CC-PVTZ
  Basis Set: (AUG-CC-PVTZ AUX)
    Blend: AUG-CC-PVTZ-JKFIT

    Orbital Energies [Eh]
    ---------------------

    Doubly Occupied:

       1A    -11.223982     2A    -11.220011     3A    -11.218926
       4A    -11.212534     5A    -11.212071     6A    -11.210076
       7A     -1.146600     8A     -0.981291     9A     -0.969811
      10A     -0.910752    11A     -0.768211    12A     -0.744015
      13A     -0.638441    14A     -0.604809    15A     -0.576836
      16A     -0.570392    17A     -0.550760    18A     -0.545380
      19A     -0.532508    20A     -0.523624    21A     -0.482017
      22A     -0.459221    23A     -0.385513    24A     -0.380079

  @DF-RHF Final Energy:  -234.24121369618436

   => Energetics <=

    Nuclear Repulsion Energy =            244.9075326230031067
    One-Electron Energy =                -800.1617732101613001
    Two-Electron Energy =                 321.0130268909738334
    Total Energy =                       -234.2412136961843316
  Basis Set: (AUG-CC-PVTZ AUX)
    Blend: AUG-CC-PVTZ-RI
    Molecular point group: c1

    Geometry (in Angstrom), charge = 0, multiplicity = 1:

       Center              X                  Y                   Z               Mass
    ------------   -----------------  -----------------  -----------------  -----------------
         C            0.182391687757     0.763952190120     0.451508460132    12.000000000000
         C            0.182398687757    -0.748544809880     0.451510460132    12.000000000000
         C           -0.800144312243     0.007699190120    -0.405114539868    12.000000000000
         C            1.297544687757     1.579259190120    -0.158122539868    12.000000000000
         C            1.371413987757    -1.617832609880    -0.198497039868    12.000000000000
         C           -2.274085312243     0.007700190120    -0.084747539868    12.000000000000
         H           -0.249118312243     1.212868190120     1.346172460132     1.007825032230
         H           -0.249104312243    -1.197462809880     1.346176460132     1.007825032230
         H           -0.564817312243     0.007697190120    -1.470111539868     1.007825032230
         H            0.951068687757     2.592482190120    -0.386729539868     1.007825032230
         H            2.150801687757     1.660683190120     0.523768460132     1.007825032230
         H            1.655309687757     1.136635190120    -1.091024539868     1.007825032230
         H            2.150853687757    -1.645182809880     0.523730460132     1.007825032230
         H            0.951117687757    -2.577089809880    -0.386650539868     1.007825032230
         H            1.655257687757    -1.121256809880    -1.091071539868     1.007825032230
         H           -2.770789312243    -0.878804809880    -0.493333539868     1.007825032230
         H           -2.427811312243     0.007662190120     0.999163460132     1.007825032230
         H           -2.770773312243     0.894245190120    -0.493269539868     1.007825032230

  Basis Set: AUG-CC-PVTZ
    Blend: AUG-CC-PVTZ
  Basis Set: (AUG-CC-PVTZ AUX)
    Blend: AUG-CC-PVTZ-JKFIT
	 Reference Energy          =    -234.2412136961843601 [Eh]
	 Singles Energy            =      -0.0000000000000000 [Eh]
	 Same-Spin Energy          =      -0.2535273675156973 [Eh]
	 Opposite-Spin Energy      =      -0.9199479260106012 [Eh]
	 Correlation Energy        =      -1.1734752935262984 [Eh]
	 Total Energy              =    -235.4146889897106689 [Eh]

	 ================> DF-SCS-MP2 Energies <==================
	-----------------------------------------------------------
	 SCS Same-Spin Scale       =       0.3333333333333333 [-]
	 SCS Opposite-Spin Scale   =       1.2000000000000000 [-]
	 SCS Same-Spin Energy      =      -0.0845091225052324 [Eh]
	 SCS Opposite-Spin Energy  =      -1.1039375112127214 [Eh]
	 SCS Correlation Energy    =      -1.1884466337179538 [Eh]
	 SCS Total Energy          =    -235.4296603299023047 [Eh]
	-----------------------------------------------------------

  Dipole Moment: [D]
     X:     0.0035      Y:    -0.0100      Z:    -0.0000     Total:     0.0106

*** Psi4 exiting successfully. Buy a developer a beer!
