                               Psi4 1.4a3.dev225

  ==> Input File <==

--------------------------------------------------------------------------
#psi4
#
memory 32 gb

molecule  {
0 1
  C        0.1866420     0.7562470     0.4534190
  C        0.1866490    -0.7562500     0.4534210
  C       -0.8205357     0.1370130    -0.4776719
  C        1.3017950     1.5715540    -0.1562120
  C        1.3018100    -1.5715430    -0.1562120
  C       -2.2698350    -0.0000050    -0.0828370
  H       -0.2448680     1.2051630     1.3480830
  H       -0.2448540    -1.2051680     1.3480870
  H       -0.5605670    -0.0000080    -1.4682010
  H        0.9553190     2.5847770    -0.3848190
  H        2.1550520     1.6529780     0.5256790
  H        1.6595600     1.1289300    -1.0891140
  H        2.1551040    -1.6528880     0.5256410
  H        0.9553680    -2.5847950    -0.3847400
  H        1.6595080    -1.1289620    -1.0891610
  H       -2.7665390    -0.8865100    -0.4914230
  H       -2.4235610    -0.0000430     1.0010740
  H       -2.7665230     0.8865400    -0.4913590
units angstrom
no_reorient  #important for SAPT in psi4, default
symmetry c1  #important for SAPT in psi4, default
}

set PROPERTIES_ORIGIN ["COM"]
properties('MP2/aug-cc-pvtz', properties = ['dipole'])
--------------------------------------------------------------------------

    Molecular point group: c1
  Charge       = 0
  Multiplicity = 1
  Basis Set: AUG-CC-PVTZ
    Blend: AUG-CC-PVTZ
  Basis Set: (AUG-CC-PVTZ AUX)
    Blend: AUG-CC-PVTZ-JKFIT

    Orbital Energies [Eh]
    ---------------------

    Doubly Occupied:

       1A    -11.228187     2A    -11.221442     3A    -11.221053
       4A    -11.213002     5A    -11.212781     6A    -11.211615
       7A     -1.136498     8A     -0.983733     9A     -0.975094
      10A     -0.901182    11A     -0.783169    12A     -0.741969
      13A     -0.637613    14A     -0.609714    15A     -0.570946
      16A     -0.567884    17A     -0.547631    18A     -0.534335
      19A     -0.528417    20A     -0.522105    21A     -0.500006
      22A     -0.473706    23A     -0.402958    24A     -0.342835

  @DF-RHF Final Energy:  -234.23315505694146

   => Energetics <=

    Nuclear Repulsion Energy =            245.2047263995623894
    One-Electron Energy =                -800.7400101458063091
    Two-Electron Energy =                 321.3021286893025490
    Total Energy =                       -234.2331550569414276
  Basis Set: (AUG-CC-PVTZ AUX)
    Blend: AUG-CC-PVTZ-RI
    Molecular point group: c1

    Geometry (in Angstrom), charge = 0, multiplicity = 1:

       Center              X                  Y                   Z               Mass
    ------------   -----------------  -----------------  -----------------  -----------------
         C            0.196446833191     0.736694974205     0.456373507396    12.000000000000
         C            0.196453833191    -0.775802025795     0.456375507396    12.000000000000
         C           -0.810730866809     0.117460974205    -0.474717392604    12.000000000000
         C            1.311599833191     1.552001974205    -0.153257492604    12.000000000000
         C            1.311614833191    -1.591095025795    -0.153257492604    12.000000000000
         C           -2.260030166809    -0.019557025795    -0.079882492604    12.000000000000
         H           -0.235063166809     1.185610974205     1.351037507396     1.007825032230
         H           -0.235049166809    -1.224720025795     1.351041507396     1.007825032230
         H           -0.550762166809    -0.019560025795    -1.465246492604     1.007825032230
         H            0.965123833191     2.565224974205    -0.381864492604     1.007825032230
         H            2.164856833191     1.633425974205     0.528633507396     1.007825032230
         H            1.669364833191     1.109377974205    -1.086159492604     1.007825032230
         H            2.164908833191    -1.672440025795     0.528595507396     1.007825032230
         H            0.965172833191    -2.604347025795    -0.381785492604     1.007825032230
         H            1.669312833191    -1.148514025795    -1.086206492604     1.007825032230
         H           -2.756734166809    -0.906062025795    -0.488468492604     1.007825032230
         H           -2.413756166809    -0.019595025795     1.004028507396     1.007825032230
         H           -2.756718166809     0.866987974205    -0.488404492604     1.007825032230

  Basis Set: AUG-CC-PVTZ
    Blend: AUG-CC-PVTZ
  Basis Set: (AUG-CC-PVTZ AUX)
    Blend: AUG-CC-PVTZ-JKFIT
	 Reference Energy          =    -234.2331550569414560 [Eh]
	 Singles Energy            =      -0.0000000000000000 [Eh]
	 Same-Spin Energy          =      -0.2543427369193280 [Eh]
	 Opposite-Spin Energy      =      -0.9218344074547390 [Eh]
	 Correlation Energy        =      -1.1761771443740670 [Eh]
	 Total Energy              =    -235.4093322013155216 [Eh]

	 ================> DF-SCS-MP2 Energies <==================
	-----------------------------------------------------------
	 SCS Same-Spin Scale       =       0.3333333333333333 [-]
	 SCS Opposite-Spin Scale   =       1.2000000000000000 [-]
	 SCS Same-Spin Energy      =      -0.0847809123064427 [Eh]
	 SCS Opposite-Spin Energy  =      -1.1062012889456867 [Eh]
	 SCS Correlation Energy    =      -1.1909822012521294 [Eh]
	 SCS Total Energy          =    -235.4241372581935821 [Eh]
	-----------------------------------------------------------

  Dipole Moment: [D]
     X:     0.0325      Y:     0.0265      Z:     0.0269     Total:     0.0498

*** Psi4 exiting successfully. Buy a developer a beer!
