                               Psi4 1.4a3.dev225

  ==> Input File <==

--------------------------------------------------------------------------
#psi4
#
memory 32 gb

molecule  {
0 1
  C        0.1866420     0.7562470     0.4534190
  C        0.1866490    -0.7562500     0.4534210
  C       -0.7958940    -0.0000060    -0.4032040
  C        1.3017950     1.5715540    -0.1562120
  C        1.2279557    -1.5175482    -0.1158375
  C       -2.2698350    -0.0000050    -0.0828370
  H       -0.2448680     1.2051630     1.3480830
  H       -0.2448540    -1.2051680     1.3480870
  H       -0.5605670    -0.0000080    -1.4682010
  H        0.9553190     2.5847770    -0.3848190
  H        2.1550520     1.6529780     0.5256790
  H        1.6595600     1.1289300    -1.0891140
  H        2.1551040    -1.6528880     0.5256410
  H        0.9553680    -2.5847950    -0.3847400
  H        1.6595080    -1.1289620    -1.0891610
  H       -2.7665390    -0.8865100    -0.4914230
  H       -2.4235610    -0.0000430     1.0010740
  H       -2.7665230     0.8865400    -0.4913590
units angstrom
no_reorient  #important for SAPT in psi4, default
symmetry c1  #important for SAPT in psi4, default
}

set PROPERTIES_ORIGIN ["COM"]
properties('MP2/aug-cc-pvtz', properties = ['dipole'])
--------------------------------------------------------------------------

    Molecular point group: c1
  Charge       = 0
  Multiplicity = 1
  Basis Set: AUG-CC-PVTZ
    Blend: AUG-CC-PVTZ
  Basis Set: (AUG-CC-PVTZ AUX)
    Blend: AUG-CC-PVTZ-JKFIT

    Orbital Energies [Eh]
    ---------------------

    Doubly Occupied:

       1A    -11.221779     2A    -11.220612     3A    -11.217988
       4A    -11.215876     5A    -11.213297     6A    -11.212809
       7A     -1.158203     8A     -0.989606     9A     -0.980286
      10A     -0.905938    11A     -0.772074    12A     -0.746916
      13A     -0.644986    14A     -0.619327    15A     -0.570837
      16A     -0.566588    17A     -0.548302    18A     -0.533010
      19A     -0.529073    20A     -0.515836    21A     -0.488590
      22A     -0.476298    23A     -0.382287    24A     -0.376487

  @DF-RHF Final Energy:  -234.23645887834138

   => Energetics <=

    Nuclear Repulsion Energy =            247.7765572517435544
    One-Electron Energy =                -805.8120181871223622
    Two-Electron Energy =                 323.7990020570373417
    Total Energy =                       -234.2364588783414092
  Basis Set: (AUG-CC-PVTZ AUX)
    Blend: AUG-CC-PVTZ-RI
    Molecular point group: c1

    Geometry (in Angstrom), charge = 0, multiplicity = 1:

       Center              X                  Y                   Z               Mass
    ------------   -----------------  -----------------  -----------------  -----------------
         C            0.203469354411     0.748542330499     0.439985769479    12.000000000000
         C            0.203476354411    -0.763954669501     0.439987769479    12.000000000000
         C           -0.779066645589    -0.007710669501    -0.416637230521    12.000000000000
         C            1.318622354411     1.563849330499    -0.169645230521    12.000000000000
         C            1.244783054411    -1.525252869501    -0.129270730521    12.000000000000
         C           -2.253007645589    -0.007709669501    -0.096270230521    12.000000000000
         H           -0.228040645589     1.197458330499     1.334649769479     1.007825032230
         H           -0.228026645589    -1.212872669501     1.334653769479     1.007825032230
         H           -0.543739645589    -0.007712669501    -1.481634230521     1.007825032230
         H            0.972146354411     2.577072330499    -0.398252230521     1.007825032230
         H            2.171879354411     1.645273330499     0.512245769479     1.007825032230
         H            1.676387354411     1.121225330499    -1.102547230521     1.007825032230
         H            2.171931354411    -1.660592669501     0.512207769479     1.007825032230
         H            0.972195354411    -2.592499669501    -0.398173230521     1.007825032230
         H            1.676335354411    -1.136666669501    -1.102594230521     1.007825032230
         H           -2.749711645589    -0.894214669501    -0.504856230521     1.007825032230
         H           -2.406733645589    -0.007747669501     0.987640769479     1.007825032230
         H           -2.749695645589     0.878835330499    -0.504792230521     1.007825032230

  Basis Set: AUG-CC-PVTZ
    Blend: AUG-CC-PVTZ
  Basis Set: (AUG-CC-PVTZ AUX)
    Blend: AUG-CC-PVTZ-JKFIT
	 Reference Energy          =    -234.2364588783413808 [Eh]
	 Singles Energy            =      -0.0000000000000000 [Eh]
	 Same-Spin Energy          =      -0.2550750258461469 [Eh]
	 Opposite-Spin Energy      =      -0.9214006936488348 [Eh]
	 Correlation Energy        =      -1.1764757194949818 [Eh]
	 Total Energy              =    -235.4129345978363688 [Eh]

	 ================> DF-SCS-MP2 Energies <==================
	-----------------------------------------------------------
	 SCS Same-Spin Scale       =       0.3333333333333333 [-]
	 SCS Opposite-Spin Scale   =       1.2000000000000000 [-]
	 SCS Same-Spin Energy      =      -0.0850250086153823 [Eh]
	 SCS Opposite-Spin Energy  =      -1.1056808323786018 [Eh]
	 SCS Correlation Energy    =      -1.1907058409939841 [Eh]
	 SCS Total Energy          =    -235.4271647193353658 [Eh]
	-----------------------------------------------------------

  Dipole Moment: [D]
     X:    -0.0507      Y:     0.0454      Z:    -0.0092     Total:     0.0687

*** Psi4 exiting successfully. Buy a developer a beer!
