                               Psi4 1.4a3.dev225

  ==> Input File <==

--------------------------------------------------------------------------
#psi4
#
memory 32 gb

molecule  {
0 1
  C        0.1866420     0.7562470     0.4534190
  C        0.1866490    -0.7562500     0.4534210
  C       -0.7958940    -0.0000060    -0.4032040
  C        1.3017950     1.5715540    -0.1562120
  C        1.2870391    -1.5607440    -0.1481371
  C       -2.2698350    -0.0000050    -0.0828370
  H       -0.2448680     1.2051630     1.3480830
  H       -0.2448540    -1.2051680     1.3480870
  H       -0.5605670    -0.0000080    -1.4682010
  H        0.9553190     2.5847770    -0.3848190
  H        2.1550520     1.6529780     0.5256790
  H        1.6595600     1.1289300    -1.0891140
  H        2.1551040    -1.6528880     0.5256410
  H        0.9553680    -2.5847950    -0.3847400
  H        1.6595080    -1.1289620    -1.0891610
  H       -2.7665390    -0.8865100    -0.4914230
  H       -2.4235610    -0.0000430     1.0010740
  H       -2.7665230     0.8865400    -0.4913590
units angstrom
no_reorient  #important for SAPT in psi4, default
symmetry c1  #important for SAPT in psi4, default
}

set PROPERTIES_ORIGIN ["COM"]
properties('MP2/aug-cc-pvtz', properties = ['dipole'])
--------------------------------------------------------------------------

    Molecular point group: c1
  Charge       = 0
  Multiplicity = 1
  Basis Set: AUG-CC-PVTZ
    Blend: AUG-CC-PVTZ
  Basis Set: (AUG-CC-PVTZ AUX)
    Blend: AUG-CC-PVTZ-JKFIT

    Orbital Energies [Eh]
    ---------------------

    Doubly Occupied:

       1A    -11.220909     2A    -11.219788     3A    -11.219367
       4A    -11.213434     5A    -11.212653     6A    -11.212614
       7A     -1.152365     8A     -0.983513     9A     -0.976887
      10A     -0.907716    11A     -0.770248    12A     -0.745947
      13A     -0.641447    14A     -0.612233    15A     -0.569949
      16A     -0.567935    17A     -0.547019    18A     -0.533343
      19A     -0.529816    20A     -0.525862    21A     -0.485070
      22A     -0.475258    23A     -0.382305    24A     -0.381309

  @DF-RHF Final Energy:  -234.24788569432781

   => Energetics <=

    Nuclear Repulsion Energy =            246.5781771453879401
    One-Electron Energy =                -803.4781474094878604
    Two-Electron Energy =                 322.6520845697721143
    Total Energy =                       -234.2478856943278060
  Basis Set: (AUG-CC-PVTZ AUX)
    Blend: AUG-CC-PVTZ-RI
    Molecular point group: c1

    Geometry (in Angstrom), charge = 0, multiplicity = 1:

       Center              X                  Y                   Z               Mass
    ------------   -----------------  -----------------  -----------------  -----------------
         C            0.195038293458     0.754706268640     0.444594845740    12.000000000000
         C            0.195045293458    -0.757790731360     0.444596845740    12.000000000000
         C           -0.787497706542    -0.001546731360    -0.412028154260    12.000000000000
         C            1.310191293458     1.570013268640    -0.165036154260    12.000000000000
         C            1.295435393458    -1.562284731360    -0.156961254260    12.000000000000
         C           -2.261438706542    -0.001545731360    -0.091661154260    12.000000000000
         H           -0.236471706542     1.203622268640     1.339258845740     1.007825032230
         H           -0.236457706542    -1.206708731360     1.339262845740     1.007825032230
         H           -0.552170706542    -0.001548731360    -1.477025154260     1.007825032230
         H            0.963715293458     2.583236268640    -0.393643154260     1.007825032230
         H            2.163448293458     1.651437268640     0.516854845740     1.007825032230
         H            1.667956293458     1.127389268640    -1.097938154260     1.007825032230
         H            2.163500293458    -1.654428731360     0.516816845740     1.007825032230
         H            0.963764293458    -2.586335731360    -0.393564154260     1.007825032230
         H            1.667904293458    -1.130502731360    -1.097985154260     1.007825032230
         H           -2.758142706542    -0.888050731360    -0.500247154260     1.007825032230
         H           -2.415164706542    -0.001583731360     0.992249845740     1.007825032230
         H           -2.758126706542     0.884999268640    -0.500183154260     1.007825032230

  Basis Set: AUG-CC-PVTZ
    Blend: AUG-CC-PVTZ
  Basis Set: (AUG-CC-PVTZ AUX)
    Blend: AUG-CC-PVTZ-JKFIT
	 Reference Energy          =    -234.2478856943278060 [Eh]
	 Singles Energy            =      -0.0000000000000000 [Eh]
	 Same-Spin Energy          =      -0.2540731626496691 [Eh]
	 Opposite-Spin Energy      =      -0.9201492983558308 [Eh]
	 Correlation Energy        =      -1.1742224610054999 [Eh]
	 Total Energy              =    -235.4221081553333192 [Eh]

	 ================> DF-SCS-MP2 Energies <==================
	-----------------------------------------------------------
	 SCS Same-Spin Scale       =       0.3333333333333333 [-]
	 SCS Opposite-Spin Scale   =       1.2000000000000000 [-]
	 SCS Same-Spin Energy      =      -0.0846910542165563 [Eh]
	 SCS Opposite-Spin Energy  =      -1.1041791580269968 [Eh]
	 SCS Correlation Energy    =      -1.1888702122435533 [Eh]
	 SCS Total Energy          =    -235.4367559065713635 [Eh]
	-----------------------------------------------------------

  Dipole Moment: [D]
     X:    -0.0112      Y:     0.0060      Z:    -0.0097     Total:     0.0160

*** Psi4 exiting successfully. Buy a developer a beer!
