                               Psi4 1.4a3.dev225

  ==> Input File <==

--------------------------------------------------------------------------
#psi4
#
memory 32 gb

molecule  {
0 1
  C        0.1866420     0.7562470     0.4534190
  C        0.1866490    -0.7562500     0.4534210
  C       -0.7958940    -0.0000060    -0.4032040
  C        1.3017950     1.5715540    -0.1562120
  C        1.4495187    -1.6795326    -0.2369609
  C       -2.2698350    -0.0000050    -0.0828370
  H       -0.2448680     1.2051630     1.3480830
  H       -0.2448540    -1.2051680     1.3480870
  H       -0.5605670    -0.0000080    -1.4682010
  H        0.9553190     2.5847770    -0.3848190
  H        2.1550520     1.6529780     0.5256790
  H        1.6595600     1.1289300    -1.0891140
  H        2.1551040    -1.6528880     0.5256410
  H        0.9553680    -2.5847950    -0.3847400
  H        1.6595080    -1.1289620    -1.0891610
  H       -2.7665390    -0.8865100    -0.4914230
  H       -2.4235610    -0.0000430     1.0010740
  H       -2.7665230     0.8865400    -0.4913590
units angstrom
no_reorient  #important for SAPT in psi4, default
symmetry c1  #important for SAPT in psi4, default
}

set PROPERTIES_ORIGIN ["COM"]
properties('MP2/aug-cc-pvtz', properties = ['dipole'])
--------------------------------------------------------------------------

    Molecular point group: c1
  Charge       = 0
  Multiplicity = 1
  Basis Set: AUG-CC-PVTZ
    Blend: AUG-CC-PVTZ
  Basis Set: (AUG-CC-PVTZ AUX)
    Blend: AUG-CC-PVTZ-JKFIT

    Orbital Energies [Eh]
    ---------------------

    Doubly Occupied:

       1A    -11.226749     2A    -11.220012     3A    -11.218923
       4A    -11.212630     5A    -11.211881     6A    -11.210668
       7A     -1.143674     8A     -0.980814     9A     -0.965759
      10A     -0.913161    11A     -0.767157    12A     -0.742709
      13A     -0.637361    14A     -0.601545    15A     -0.586942
      16A     -0.575362    17A     -0.556140    18A     -0.550749
      19A     -0.532753    20A     -0.520577    21A     -0.481685
      22A     -0.439392    23A     -0.387436    24A     -0.375578

  @DF-RHF Final Energy:  -234.22131775575554

   => Energetics <=

    Nuclear Repulsion Energy =            243.5898981060162782
    One-Electron Energy =                -797.5031136043854758
    Two-Electron Energy =                 319.6918977426137189
    Total Energy =                       -234.2213177557555355
  Basis Set: (AUG-CC-PVTZ AUX)
    Blend: AUG-CC-PVTZ-RI
    Molecular point group: c1

    Geometry (in Angstrom), charge = 0, multiplicity = 1:

       Center              X                  Y                   Z               Mass
    ------------   -----------------  -----------------  -----------------  -----------------
         C            0.171852840160     0.771657119931     0.457269791189    12.000000000000
         C            0.171859840160    -0.740839880069     0.457271791189    12.000000000000
         C           -0.810683159840     0.015404119931    -0.399353208811    12.000000000000
         C            1.287005840160     1.586964119931    -0.152361208811    12.000000000000
         C            1.434729540160    -1.664122480069    -0.233110108811    12.000000000000
         C           -2.284624159840     0.015405119931    -0.078986208811    12.000000000000
         H           -0.259657159840     1.220573119931     1.351933791189     1.007825032230
         H           -0.259643159840    -1.189757880069     1.351937791189     1.007825032230
         H           -0.575356159840     0.015402119931    -1.464350208811     1.007825032230
         H            0.940529840160     2.600187119931    -0.380968208811     1.007825032230
         H            2.140262840160     1.668388119931     0.529529791189     1.007825032230
         H            1.644770840160     1.144340119931    -1.085263208811     1.007825032230
         H            2.140314840160    -1.637477880069     0.529491791189     1.007825032230
         H            0.940578840160    -2.569384880069    -0.380889208811     1.007825032230
         H            1.644718840160    -1.113551880069    -1.085310208811     1.007825032230
         H           -2.781328159840    -0.871099880069    -0.487572208811     1.007825032230
         H           -2.438350159840     0.015367119931     1.004924791189     1.007825032230
         H           -2.781312159840     0.901950119931    -0.487508208811     1.007825032230

  Basis Set: AUG-CC-PVTZ
    Blend: AUG-CC-PVTZ
  Basis Set: (AUG-CC-PVTZ AUX)
    Blend: AUG-CC-PVTZ-JKFIT
	 Reference Energy          =    -234.2213177557555355 [Eh]
	 Singles Energy            =      -0.0000000000000000 [Eh]
	 Same-Spin Energy          =      -0.2538006588374480 [Eh]
	 Opposite-Spin Energy      =      -0.9211081309768208 [Eh]
	 Correlation Energy        =      -1.1749087898142687 [Eh]
	 Total Energy              =    -235.3962265455698173 [Eh]

	 ================> DF-SCS-MP2 Energies <==================
	-----------------------------------------------------------
	 SCS Same-Spin Scale       =       0.3333333333333333 [-]
	 SCS Opposite-Spin Scale   =       1.2000000000000000 [-]
	 SCS Same-Spin Energy      =      -0.0846002196124827 [Eh]
	 SCS Opposite-Spin Energy  =      -1.1053297571721850 [Eh]
	 SCS Correlation Energy    =      -1.1899299767846676 [Eh]
	 SCS Total Energy          =    -235.4112477325402040 [Eh]
	-----------------------------------------------------------

  Dipole Moment: [D]
     X:    -0.0246      Y:     0.0146      Z:     0.0188     Total:     0.0342

*** Psi4 exiting successfully. Buy a developer a beer!
