                               Psi4 1.4a3.dev225

  ==> Input File <==

--------------------------------------------------------------------------
#psi4
#
memory 32 gb

molecule  {
0 1
  C        0.1056203     0.7862140     0.5134359
  C        0.1866490    -0.7562500     0.4534210
  C       -0.7958940    -0.0000060    -0.4032040
  C        1.3017950     1.5715540    -0.1562120
  C        1.3018100    -1.5715430    -0.1562120
  C       -2.2698350    -0.0000050    -0.0828370
  H       -0.2448680     1.2051630     1.3480830
  H       -0.2448540    -1.2051680     1.3480870
  H       -0.5605670    -0.0000080    -1.4682010
  H        0.9553190     2.5847770    -0.3848190
  H        2.1550520     1.6529780     0.5256790
  H        1.6595600     1.1289300    -1.0891140
  H        2.1551040    -1.6528880     0.5256410
  H        0.9553680    -2.5847950    -0.3847400
  H        1.6595080    -1.1289620    -1.0891610
  H       -2.7665390    -0.8865100    -0.4914230
  H       -2.4235610    -0.0000430     1.0010740
  H       -2.7665230     0.8865400    -0.4913590
units angstrom
no_reorient  #important for SAPT in psi4, default
symmetry c1  #important for SAPT in psi4, default
}

set PROPERTIES_ORIGIN ["COM"]
properties('MP2/aug-cc-pvtz', properties = ['dipole'])
--------------------------------------------------------------------------

    Molecular point group: c1
  Charge       = 0
  Multiplicity = 1
  Basis Set: AUG-CC-PVTZ
    Blend: AUG-CC-PVTZ
  Basis Set: (AUG-CC-PVTZ AUX)
    Blend: AUG-CC-PVTZ-JKFIT

    Orbital Energies [Eh]
    ---------------------

    Doubly Occupied:

       1A    -11.222201     2A    -11.221085     3A    -11.218070
       4A    -11.213963     5A    -11.213869     6A    -11.211568
       7A     -1.145460     8A     -0.981423     9A     -0.967562
      10A     -0.904099    11A     -0.781207    12A     -0.753717
      13A     -0.638058    14A     -0.610562    15A     -0.571671
      16A     -0.564881    17A     -0.545750    18A     -0.535471
      19A     -0.531078    20A     -0.521860    21A     -0.484371
      22A     -0.475689    23A     -0.386807    24A     -0.373131

  @DF-RHF Final Energy:  -234.23664495721010

   => Energetics <=

    Nuclear Repulsion Energy =            245.5343111035142840
    One-Electron Energy =                -801.3948056997478488
    Two-Electron Energy =                 321.6238496390234900
    Total Energy =                       -234.2366449572101033
  Basis Set: (AUG-CC-PVTZ AUX)
    Blend: AUG-CC-PVTZ-RI
    Molecular point group: c1

    Geometry (in Angstrom), charge = 0, multiplicity = 1:

       Center              X                  Y                   Z               Mass
    ------------   -----------------  -----------------  -----------------  -----------------
         C            0.123470425381     0.781938040532     0.497199745617    12.000000000000
         C            0.204499125381    -0.760525959468     0.437184845617    12.000000000000
         C           -0.778043874619    -0.004281959468    -0.419440154383    12.000000000000
         C            1.319645125381     1.567278040532    -0.172448154383    12.000000000000
         C            1.319660125381    -1.575818959468    -0.172448154383    12.000000000000
         C           -2.251984874619    -0.004280959468    -0.099073154383    12.000000000000
         H           -0.227017874619     1.200887040532     1.331846845617     1.007825032230
         H           -0.227003874619    -1.209443959468     1.331850845617     1.007825032230
         H           -0.542716874619    -0.004283959468    -1.484437154383     1.007825032230
         H            0.973169125381     2.580501040532    -0.401055154383     1.007825032230
         H            2.172902125381     1.648702040532     0.509442845617     1.007825032230
         H            1.677410125381     1.124654040532    -1.105350154383     1.007825032230
         H            2.172954125381    -1.657163959468     0.509404845617     1.007825032230
         H            0.973218125381    -2.589070959468    -0.400976154383     1.007825032230
         H            1.677358125381    -1.133237959468    -1.105397154383     1.007825032230
         H           -2.748688874619    -0.890785959468    -0.507659154383     1.007825032230
         H           -2.405710874619    -0.004318959468     0.984837845617     1.007825032230
         H           -2.748672874619     0.882264040532    -0.507595154383     1.007825032230

  Basis Set: AUG-CC-PVTZ
    Blend: AUG-CC-PVTZ
  Basis Set: (AUG-CC-PVTZ AUX)
    Blend: AUG-CC-PVTZ-JKFIT
	 Reference Energy          =    -234.2366449572101033 [Eh]
	 Singles Energy            =      -0.0000000000000000 [Eh]
	 Same-Spin Energy          =      -0.2535945485857873 [Eh]
	 Opposite-Spin Energy      =      -0.9203286589157494 [Eh]
	 Correlation Energy        =      -1.1739232075015367 [Eh]
	 Total Energy              =    -235.4105681647116342 [Eh]

	 ================> DF-SCS-MP2 Energies <==================
	-----------------------------------------------------------
	 SCS Same-Spin Scale       =       0.3333333333333333 [-]
	 SCS Opposite-Spin Scale   =       1.2000000000000000 [-]
	 SCS Same-Spin Energy      =      -0.0845315161952624 [Eh]
	 SCS Opposite-Spin Energy  =      -1.1043943906988993 [Eh]
	 SCS Correlation Energy    =      -1.1889259068941618 [Eh]
	 SCS Total Energy          =    -235.4255708641042588 [Eh]
	-----------------------------------------------------------

  Dipole Moment: [D]
     X:    -0.0255      Y:    -0.0391      Z:    -0.0025     Total:     0.0468

*** Psi4 exiting successfully. Buy a developer a beer!
