                               Psi4 1.4a3.dev225

  ==> Input File <==

--------------------------------------------------------------------------
#psi4
#
memory 32 gb

molecule  {
0 1
  C        0.1866420     0.7562470     0.4534190
  C        0.1866491    -0.7762500     0.4534210
  C       -0.7958940    -0.0000060    -0.4032040
  C        1.3017950     1.5715540    -0.1562120
  C        1.3018100    -1.5715430    -0.1562120
  C       -2.2698350    -0.0000050    -0.0828370
  H       -0.2448680     1.2051630     1.3480830
  H       -0.2448540    -1.2051680     1.3480870
  H       -0.5605670    -0.0000080    -1.4682010
  H        0.9553190     2.5847770    -0.3848190
  H        2.1550520     1.6529780     0.5256790
  H        1.6595600     1.1289300    -1.0891140
  H        2.1551040    -1.6528880     0.5256410
  H        0.9553680    -2.5847950    -0.3847400
  H        1.6595080    -1.1289620    -1.0891610
  H       -2.7665390    -0.8865100    -0.4914230
  H       -2.4235610    -0.0000430     1.0010740
  H       -2.7665230     0.8865400    -0.4913590
units angstrom
no_reorient  #important for SAPT in psi4, default
symmetry c1  #important for SAPT in psi4, default
}

set PROPERTIES_ORIGIN ["COM"]
properties('MP2/aug-cc-pvtz', properties = ['dipole'])
--------------------------------------------------------------------------

    Molecular point group: c1
  Charge       = 0
  Multiplicity = 1
  Basis Set: AUG-CC-PVTZ
    Blend: AUG-CC-PVTZ
  Basis Set: (AUG-CC-PVTZ AUX)
    Blend: AUG-CC-PVTZ-JKFIT

    Orbital Energies [Eh]
    ---------------------

    Doubly Occupied:

       1A    -11.221526     2A    -11.220609     3A    -11.220271
       4A    -11.212619     5A    -11.212560     6A    -11.212034
       7A     -1.147213     8A     -0.983376     9A     -0.977031
      10A     -0.906706    11A     -0.769506    12A     -0.746852
      13A     -0.639526    14A     -0.610194    15A     -0.570662
      16A     -0.568928    17A     -0.547808    18A     -0.534707
      19A     -0.528089    20A     -0.527818    21A     -0.485364
      22A     -0.476951    23A     -0.383097    24A     -0.376582

  @DF-RHF Final Energy:  -234.24797189132784

   => Energetics <=

    Nuclear Repulsion Energy =            246.0740562952702248
    One-Electron Energy =                -802.4840024403873713
    Two-Electron Energy =                 322.1619742537893103
    Total Energy =                       -234.2479718913278361
  Basis Set: (AUG-CC-PVTZ AUX)
    Blend: AUG-CC-PVTZ-RI
    Molecular point group: c1

    Geometry (in Angstrom), charge = 0, multiplicity = 1:

       Center              X                  Y                   Z               Mass
    ------------   -----------------  -----------------  -----------------  -----------------
         C            0.192930506815     0.759101212842     0.445747114806    12.000000000000
         C            0.192937606815    -0.773395787158     0.445749114806    12.000000000000
         C           -0.789605493185     0.002848212842    -0.410875885194    12.000000000000
         C            1.308083506815     1.574408212842    -0.163883885194    12.000000000000
         C            1.308098506815    -1.568688787158    -0.163883885194    12.000000000000
         C           -2.263546493185     0.002849212842    -0.090508885194    12.000000000000
         H           -0.238579493185     1.208017212842     1.340411114806     1.007825032230
         H           -0.238565493185    -1.202313787158     1.340415114806     1.007825032230
         H           -0.554278493185     0.002846212842    -1.475872885194     1.007825032230
         H            0.961607506815     2.587631212842    -0.392490885194     1.007825032230
         H            2.161340506815     1.655832212842     0.518007114806     1.007825032230
         H            1.665848506815     1.131784212842    -1.096785885194     1.007825032230
         H            2.161392506815    -1.650033787158     0.517969114806     1.007825032230
         H            0.961656506815    -2.581940787158    -0.392411885194     1.007825032230
         H            1.665796506815    -1.126107787158    -1.096832885194     1.007825032230
         H           -2.760250493185    -0.883655787158    -0.499094885194     1.007825032230
         H           -2.417272493185     0.002811212842     0.993402114806     1.007825032230
         H           -2.760234493185     0.889394212842    -0.499030885194     1.007825032230

  Basis Set: AUG-CC-PVTZ
    Blend: AUG-CC-PVTZ
  Basis Set: (AUG-CC-PVTZ AUX)
    Blend: AUG-CC-PVTZ-JKFIT
	 Reference Energy          =    -234.2479718913278361 [Eh]
	 Singles Energy            =      -0.0000000000000000 [Eh]
	 Same-Spin Energy          =      -0.2539504038564170 [Eh]
	 Opposite-Spin Energy      =      -0.9201850864349741 [Eh]
	 Correlation Energy        =      -1.1741354902913912 [Eh]
	 Total Energy              =    -235.4221073816192416 [Eh]

	 ================> DF-SCS-MP2 Energies <==================
	-----------------------------------------------------------
	 SCS Same-Spin Scale       =       0.3333333333333333 [-]
	 SCS Opposite-Spin Scale   =       1.2000000000000000 [-]
	 SCS Same-Spin Energy      =      -0.0846501346188057 [Eh]
	 SCS Opposite-Spin Energy  =      -1.1042221037219688 [Eh]
	 SCS Correlation Energy    =      -1.1888722383407744 [Eh]
	 SCS Total Energy          =    -235.4368441296686001 [Eh]
	-----------------------------------------------------------

  Dipole Moment: [D]
     X:    -0.0106      Y:     0.0036      Z:    -0.0158     Total:     0.0194

*** Psi4 exiting successfully. Buy a developer a beer!
