                               Psi4 1.4a3.dev225

  ==> Input File <==

--------------------------------------------------------------------------
#psi4
#
memory 32 gb

molecule  {
0 1
  C        0.2990823     0.7044388     0.3556656
  C        0.1866490    -0.7562500     0.4534210
  C       -0.7958940    -0.0000060    -0.4032040
  C        1.3017950     1.5715540    -0.1562120
  C        1.3018100    -1.5715430    -0.1562120
  C       -2.2698350    -0.0000050    -0.0828370
  H       -0.2448680     1.2051630     1.3480830
  H       -0.2448540    -1.2051680     1.3480870
  H       -0.5605670    -0.0000080    -1.4682010
  H        0.9553190     2.5847770    -0.3848190
  H        2.1550520     1.6529780     0.5256790
  H        1.6595600     1.1289300    -1.0891140
  H        2.1551040    -1.6528880     0.5256410
  H        0.9553680    -2.5847950    -0.3847400
  H        1.6595080    -1.1289620    -1.0891610
  H       -2.7665390    -0.8865100    -0.4914230
  H       -2.4235610    -0.0000430     1.0010740
  H       -2.7665230     0.8865400    -0.4913590
units angstrom
no_reorient  #important for SAPT in psi4, default
symmetry c1  #important for SAPT in psi4, default
}

set PROPERTIES_ORIGIN ["COM"]
properties('MP2/aug-cc-pvtz', properties = ['dipole'])
--------------------------------------------------------------------------

    Molecular point group: c1
  Charge       = 0
  Multiplicity = 1
  Basis Set: AUG-CC-PVTZ
    Blend: AUG-CC-PVTZ
  Basis Set: (AUG-CC-PVTZ AUX)
    Blend: AUG-CC-PVTZ-JKFIT

    Orbital Energies [Eh]
    ---------------------

    Doubly Occupied:

       1A    -11.228289     2A    -11.222338     3A    -11.218997
       4A    -11.214750     5A    -11.211830     6A    -11.211816
       7A     -1.162316     8A     -0.997346     9A     -0.981084
      10A     -0.914247    11A     -0.768911    12A     -0.731036
      13A     -0.645803    14A     -0.615922    15A     -0.577519
      16A     -0.569724    17A     -0.555712    18A     -0.546424
      19A     -0.532284    20A     -0.523218    21A     -0.483925
      22A     -0.453587    23A     -0.390440    24A     -0.370082

  @DF-RHF Final Energy:  -234.22118225942262

   => Energetics <=

    Nuclear Repulsion Energy =            247.4662414574841023
    One-Electron Energy =                -805.1196494374493113
    Two-Electron Energy =                 323.4322257205425899
    Total Energy =                       -234.2211822594226192
  Basis Set: (AUG-CC-PVTZ AUX)
    Blend: AUG-CC-PVTZ-RI
    Molecular point group: c1

    Geometry (in Angstrom), charge = 0, multiplicity = 1:

       Center              X                  Y                   Z               Mass
    ------------   -----------------  -----------------  -----------------  -----------------
         C            0.289325857136     0.711831967490     0.361942892981    12.000000000000
         C            0.176892557136    -0.748856832510     0.459698292981    12.000000000000
         C           -0.805650442864     0.007387167490    -0.396926707019    12.000000000000
         C            1.292038557136     1.578947167490    -0.149934707019    12.000000000000
         C            1.292053557136    -1.564149832510    -0.149934707019    12.000000000000
         C           -2.279591442864     0.007388167490    -0.076559707019    12.000000000000
         H           -0.254624442864     1.212556167490     1.354360292981     1.007825032230
         H           -0.254610442864    -1.197774832510     1.354364292981     1.007825032230
         H           -0.570323442864     0.007385167490    -1.461923707019     1.007825032230
         H            0.945562557136     2.592170167490    -0.378541707019     1.007825032230
         H            2.145295557136     1.660371167490     0.531956292981     1.007825032230
         H            1.649803557136     1.136323167490    -1.082836707019     1.007825032230
         H            2.145347557136    -1.645494832510     0.531918292981     1.007825032230
         H            0.945611557136    -2.577401832510    -0.378462707019     1.007825032230
         H            1.649751557136    -1.121568832510    -1.082883707019     1.007825032230
         H           -2.776295442864    -0.879116832510    -0.485145707019     1.007825032230
         H           -2.433317442864     0.007350167490     1.007351292981     1.007825032230
         H           -2.776279442864     0.893933167490    -0.485081707019     1.007825032230

  Basis Set: AUG-CC-PVTZ
    Blend: AUG-CC-PVTZ
  Basis Set: (AUG-CC-PVTZ AUX)
    Blend: AUG-CC-PVTZ-JKFIT
	 Reference Energy          =    -234.2211822594226192 [Eh]
	 Singles Energy            =      -0.0000000000000000 [Eh]
	 Same-Spin Energy          =      -0.2553736493630137 [Eh]
	 Opposite-Spin Energy      =      -0.9222400606206868 [Eh]
	 Correlation Energy        =      -1.1776137099837003 [Eh]
	 Total Energy              =    -235.3987959694063079 [Eh]

	 ================> DF-SCS-MP2 Energies <==================
	-----------------------------------------------------------
	 SCS Same-Spin Scale       =       0.3333333333333333 [-]
	 SCS Opposite-Spin Scale   =       1.2000000000000000 [-]
	 SCS Same-Spin Energy      =      -0.0851245497876712 [Eh]
	 SCS Opposite-Spin Energy  =      -1.1066880727448241 [Eh]
	 SCS Correlation Energy    =      -1.1918126225324952 [Eh]
	 SCS Total Energy          =    -235.4129948819551146 [Eh]
	-----------------------------------------------------------

  Dipole Moment: [D]
     X:     0.0413      Y:    -0.0064      Z:    -0.0788     Total:     0.0892

*** Psi4 exiting successfully. Buy a developer a beer!
