                               Psi4 1.4a3.dev225

  ==> Input File <==

--------------------------------------------------------------------------
#psi4
#
memory 32 gb

molecule  {
0 1
  C        0.1866420     0.7562470     0.4534190
  C        0.1866490    -0.7562500     0.4534210
  C       -0.7958940    -0.0000060    -0.4032040
  C        1.3068371     1.5348934    -0.1937398
  C        1.3018100    -1.5715430    -0.1562120
  C       -2.2698350    -0.0000050    -0.0828370
  H       -0.2448680     1.2051630     1.3480830
  H       -0.2448540    -1.2051680     1.3480870
  H       -0.5605670    -0.0000080    -1.4682010
  H        0.9553190     2.5847770    -0.3848190
  H        2.1550520     1.6529780     0.5256790
  H        1.6595600     1.1289300    -1.0891140
  H        2.1551040    -1.6528880     0.5256410
  H        0.9553680    -2.5847950    -0.3847400
  H        1.6595080    -1.1289620    -1.0891610
  H       -2.7665390    -0.8865100    -0.4914230
  H       -2.4235610    -0.0000430     1.0010740
  H       -2.7665230     0.8865400    -0.4913590
units angstrom
no_reorient  #important for SAPT in psi4, default
symmetry c1  #important for SAPT in psi4, default
}

set PROPERTIES_ORIGIN ["COM"]
properties('MP2/aug-cc-pvtz', properties = ['dipole'])
--------------------------------------------------------------------------

    Molecular point group: c1
  Charge       = 0
  Multiplicity = 1
  Basis Set: AUG-CC-PVTZ
    Blend: AUG-CC-PVTZ
  Basis Set: (AUG-CC-PVTZ AUX)
    Blend: AUG-CC-PVTZ-JKFIT

    Orbital Energies [Eh]
    ---------------------

    Doubly Occupied:

       1A    -11.221246     2A    -11.219904     3A    -11.219010
       4A    -11.213125     5A    -11.212721     6A    -11.212489
       7A     -1.151844     8A     -0.983022     9A     -0.975230
      10A     -0.908235    11A     -0.770534    12A     -0.746503
      13A     -0.641218    14A     -0.612360    15A     -0.571911
      16A     -0.563885    17A     -0.546232    18A     -0.536164
      19A     -0.529600    20A     -0.525937    21A     -0.484783
      22A     -0.478517    23A     -0.380835    24A     -0.380210

  @DF-RHF Final Energy:  -234.24540046317358

   => Energetics <=

    Nuclear Repulsion Energy =            246.5265982025216545
    One-Electron Energy =                -803.3729671551540150
    Two-Electron Energy =                 322.6009684894588077
    Total Energy =                       -234.2454004631735529
  Basis Set: (AUG-CC-PVTZ AUX)
    Blend: AUG-CC-PVTZ-RI
    Molecular point group: c1

    Geometry (in Angstrom), charge = 0, multiplicity = 1:

       Center              X                  Y                   Z               Mass
    ------------   -----------------  -----------------  -----------------  -----------------
         C            0.192211025381     0.761478640921     0.451102242799    12.000000000000
         C            0.192218025381    -0.751018359079     0.451104242799    12.000000000000
         C           -0.790324974619     0.005225640921    -0.405520757201    12.000000000000
         C            1.312406125381     1.540125040921    -0.196056557201    12.000000000000
         C            1.307379025381    -1.566311359079    -0.158528757201    12.000000000000
         C           -2.264265974619     0.005226640921    -0.085153757201    12.000000000000
         H           -0.239298974619     1.210394640921     1.345766242799     1.007825032230
         H           -0.239284974619    -1.199936359079     1.345770242799     1.007825032230
         H           -0.554997974619     0.005223640921    -1.470517757201     1.007825032230
         H            0.960888025381     2.590008640921    -0.387135757201     1.007825032230
         H            2.160621025381     1.658209640921     0.523362242799     1.007825032230
         H            1.665129025381     1.134161640921    -1.091430757201     1.007825032230
         H            2.160673025381    -1.647656359079     0.523324242799     1.007825032230
         H            0.960937025381    -2.579563359079    -0.387056757201     1.007825032230
         H            1.665077025381    -1.123730359079    -1.091477757201     1.007825032230
         H           -2.760969974619    -0.881278359079    -0.493739757201     1.007825032230
         H           -2.417991974619     0.005188640921     0.998757242799     1.007825032230
         H           -2.760953974619     0.891771640921    -0.493675757201     1.007825032230

  Basis Set: AUG-CC-PVTZ
    Blend: AUG-CC-PVTZ
  Basis Set: (AUG-CC-PVTZ AUX)
    Blend: AUG-CC-PVTZ-JKFIT
	 Reference Energy          =    -234.2454004631735813 [Eh]
	 Singles Energy            =      -0.0000000000000000 [Eh]
	 Same-Spin Energy          =      -0.2539933923841864 [Eh]
	 Opposite-Spin Energy      =      -0.9201552725462381 [Eh]
	 Correlation Energy        =      -1.1741486649304245 [Eh]
	 Total Energy              =    -235.4195491281039949 [Eh]

	 ================> DF-SCS-MP2 Energies <==================
	-----------------------------------------------------------
	 SCS Same-Spin Scale       =       0.3333333333333333 [-]
	 SCS Opposite-Spin Scale   =       1.2000000000000000 [-]
	 SCS Same-Spin Energy      =      -0.0846644641280621 [Eh]
	 SCS Opposite-Spin Energy  =      -1.1041863270554857 [Eh]
	 SCS Correlation Energy    =      -1.1888507911835478 [Eh]
	 SCS Total Energy          =    -235.4342512543571218 [Eh]
	-----------------------------------------------------------

  Dipole Moment: [D]
     X:    -0.0088      Y:    -0.0093      Z:    -0.0116     Total:     0.0173

*** Psi4 exiting successfully. Buy a developer a beer!
