                               Psi4 1.4a3.dev225

  ==> Input File <==

--------------------------------------------------------------------------
#psi4
#
memory 32 gb

molecule  {
0 1
  C        0.1866420     0.7562470     0.4534190
  C        0.1866492    -0.8062500     0.4534211
  C       -0.7958940    -0.0000060    -0.4032040
  C        1.3017950     1.5715540    -0.1562120
  C        1.3018100    -1.5715430    -0.1562120
  C       -2.2698350    -0.0000050    -0.0828370
  H       -0.2448680     1.2051630     1.3480830
  H       -0.2448540    -1.2051680     1.3480870
  H       -0.5605670    -0.0000080    -1.4682010
  H        0.9553190     2.5847770    -0.3848190
  H        2.1550520     1.6529780     0.5256790
  H        1.6595600     1.1289300    -1.0891140
  H        2.1551040    -1.6528880     0.5256410
  H        0.9553680    -2.5847950    -0.3847400
  H        1.6595080    -1.1289620    -1.0891610
  H       -2.7665390    -0.8865100    -0.4914230
  H       -2.4235610    -0.0000430     1.0010740
  H       -2.7665230     0.8865400    -0.4913590
units angstrom
no_reorient  #important for SAPT in psi4, default
symmetry c1  #important for SAPT in psi4, default
}

set PROPERTIES_ORIGIN ["COM"]
properties('MP2/aug-cc-pvtz', properties = ['dipole'])
--------------------------------------------------------------------------

    Molecular point group: c1
  Charge       = 0
  Multiplicity = 1
  Basis Set: AUG-CC-PVTZ
    Blend: AUG-CC-PVTZ
  Basis Set: (AUG-CC-PVTZ AUX)
    Blend: AUG-CC-PVTZ-JKFIT

    Orbital Energies [Eh]
    ---------------------

    Doubly Occupied:

       1A    -11.222833     2A    -11.221942     3A    -11.220535
       4A    -11.212768     5A    -11.212559     6A    -11.211244
       7A     -1.141652     8A     -0.984976     9A     -0.978423
      10A     -0.904454    11A     -0.769325    12A     -0.748409
      13A     -0.637733    14A     -0.609514    15A     -0.571613
      16A     -0.569480    17A     -0.548507    18A     -0.535113
      19A     -0.528724    20A     -0.525614    21A     -0.488822
      22A     -0.479523    23A     -0.384540    24A     -0.368024

  @DF-RHF Final Energy:  -234.24571493695169

   => Energetics <=

    Nuclear Repulsion Energy =            245.7552297823029903
    One-Electron Energy =                -801.8492363935148433
    Two-Electron Energy =                 321.8482916742601674
    Total Energy =                       -234.2457149369516856
  Basis Set: (AUG-CC-PVTZ AUX)
    Blend: AUG-CC-PVTZ-RI
    Molecular point group: c1

    Geometry (in Angstrom), charge = 0, multiplicity = 1:

       Center              X                  Y                   Z               Mass
    ------------   -----------------  -----------------  -----------------  -----------------
         C            0.192930492545     0.763382141642     0.445747100536    12.000000000000
         C            0.192937692545    -0.799114858358     0.445749200536    12.000000000000
         C           -0.789605507455     0.007129141642    -0.410875899464    12.000000000000
         C            1.308083492545     1.578689141642    -0.163883899464    12.000000000000
         C            1.308098492545    -1.564407858358    -0.163883899464    12.000000000000
         C           -2.263546507455     0.007130141642    -0.090508899464    12.000000000000
         H           -0.238579507455     1.212298141642     1.340411100536     1.007825032230
         H           -0.238565507455    -1.198032858358     1.340415100536     1.007825032230
         H           -0.554278507455     0.007127141642    -1.475872899464     1.007825032230
         H            0.961607492545     2.591912141642    -0.392490899464     1.007825032230
         H            2.161340492545     1.660113141642     0.518007100536     1.007825032230
         H            1.665848492545     1.136065141642    -1.096785899464     1.007825032230
         H            2.161392492545    -1.645752858358     0.517969100536     1.007825032230
         H            0.961656492545    -2.577659858358    -0.392411899464     1.007825032230
         H            1.665796492545    -1.121826858358    -1.096832899464     1.007825032230
         H           -2.760250507455    -0.879374858358    -0.499094899464     1.007825032230
         H           -2.417272507455     0.007092141642     0.993402100536     1.007825032230
         H           -2.760234507455     0.893675141642    -0.499030899464     1.007825032230

  Basis Set: AUG-CC-PVTZ
    Blend: AUG-CC-PVTZ
  Basis Set: (AUG-CC-PVTZ AUX)
    Blend: AUG-CC-PVTZ-JKFIT
	 Reference Energy          =    -234.2457149369516856 [Eh]
	 Singles Energy            =      -0.0000000000000000 [Eh]
	 Same-Spin Energy          =      -0.2540702315701082 [Eh]
	 Opposite-Spin Energy      =      -0.9205861733623875 [Eh]
	 Correlation Energy        =      -1.1746564049324957 [Eh]
	 Total Energy              =    -235.4203713418841915 [Eh]

	 ================> DF-SCS-MP2 Energies <==================
	-----------------------------------------------------------
	 SCS Same-Spin Scale       =       0.3333333333333333 [-]
	 SCS Opposite-Spin Scale   =       1.2000000000000000 [-]
	 SCS Same-Spin Energy      =      -0.0846900771900361 [Eh]
	 SCS Opposite-Spin Energy  =      -1.1047034080348650 [Eh]
	 SCS Correlation Energy    =      -1.1893934852249011 [Eh]
	 SCS Total Energy          =    -235.4351084221765973 [Eh]
	-----------------------------------------------------------

  Dipole Moment: [D]
     X:    -0.0175      Y:     0.0108      Z:    -0.0267     Total:     0.0337

*** Psi4 exiting successfully. Buy a developer a beer!
