                               Psi4 1.4a3.dev225

  ==> Input File <==

--------------------------------------------------------------------------
#psi4
#
memory 32 gb

molecule  {
0 1
  C        0.1866420     0.7562470     0.4534190
  C        0.1866490    -0.7562500     0.4534210
  C       -0.7958940    -0.0000060    -0.4032040
  C        1.3017950     1.5715540    -0.1562120
  C        1.3018100    -1.5715430    -0.1562120
  C       -2.2698350    -0.0000050    -0.0828370
  H       -0.2448680     1.2051630     1.3480830
  H       -0.2527713    -1.2134049     1.3645025
  H       -0.5605670    -0.0000080    -1.4682010
  H        0.9553190     2.5847770    -0.3848190
  H        2.1550520     1.6529780     0.5256790
  H        1.6595600     1.1289300    -1.0891140
  H        2.1551040    -1.6528880     0.5256410
  H        0.9553680    -2.5847950    -0.3847400
  H        1.6595080    -1.1289620    -1.0891610
  H       -2.7665390    -0.8865100    -0.4914230
  H       -2.4235610    -0.0000430     1.0010740
  H       -2.7665230     0.8865400    -0.4913590
units angstrom
no_reorient  #important for SAPT in psi4, default
symmetry c1  #important for SAPT in psi4, default
}

set PROPERTIES_ORIGIN ["COM"]
properties('MP2/aug-cc-pvtz', properties = ['dipole'])
--------------------------------------------------------------------------

    Molecular point group: c1
  Charge       = 0
  Multiplicity = 1
  Basis Set: AUG-CC-PVTZ
    Blend: AUG-CC-PVTZ
  Basis Set: (AUG-CC-PVTZ AUX)
    Blend: AUG-CC-PVTZ-JKFIT

    Orbital Energies [Eh]
    ---------------------

    Doubly Occupied:

       1A    -11.222967     2A    -11.220683     3A    -11.219630
       4A    -11.212808     5A    -11.212708     6A    -11.212541
       7A     -1.151024     8A     -0.982872     9A     -0.975526
      10A     -0.908247    11A     -0.768975    12A     -0.743801
      13A     -0.639995    14A     -0.610686    15A     -0.569920
      16A     -0.568731    17A     -0.547431    18A     -0.534593
      19A     -0.529536    20A     -0.527125    21A     -0.483969
      22A     -0.472719    23A     -0.382501    24A     -0.381951

  @DF-RHF Final Energy:  -234.24793081999104

   => Energetics <=

    Nuclear Repulsion Energy =            246.1937939977175063
    One-Electron Energy =                -802.7215724390788409
    Two-Electron Energy =                 322.2798476213702656
    Total Energy =                       -234.2479308199910406
  Basis Set: (AUG-CC-PVTZ AUX)
    Blend: AUG-CC-PVTZ-RI
    Molecular point group: c1

    Geometry (in Angstrom), charge = 0, multiplicity = 1:

       Center              X                  Y                   Z               Mass
    ------------   -----------------  -----------------  -----------------  -----------------
         C            0.193025406125     0.756345975603     0.445550382917    12.000000000000
         C            0.193032406125    -0.756151024397     0.445552382917    12.000000000000
         C           -0.789510593875     0.000092975603    -0.411072617083    12.000000000000
         C            1.308178406125     1.571652975603    -0.164080617083    12.000000000000
         C            1.308193406125    -1.571444024397    -0.164080617083    12.000000000000
         C           -2.263451593875     0.000093975603    -0.090705617083    12.000000000000
         H           -0.238484593875     1.205261975603     1.340214382917     1.007825032230
         H           -0.246387893875    -1.213305924397     1.356633882917     1.007825032230
         H           -0.554183593875     0.000090975603    -1.476069617083     1.007825032230
         H            0.961702406125     2.584875975603    -0.392687617083     1.007825032230
         H            2.161435406125     1.653076975603     0.517810382917     1.007825032230
         H            1.665943406125     1.129028975603    -1.096982617083     1.007825032230
         H            2.161487406125    -1.652789024397     0.517772382917     1.007825032230
         H            0.961751406125    -2.584696024397    -0.392608617083     1.007825032230
         H            1.665891406125    -1.128863024397    -1.097029617083     1.007825032230
         H           -2.760155593875    -0.886411024397    -0.499291617083     1.007825032230
         H           -2.417177593875     0.000055975603     0.993205382917     1.007825032230
         H           -2.760139593875     0.886638975603    -0.499227617083     1.007825032230

  Basis Set: AUG-CC-PVTZ
    Blend: AUG-CC-PVTZ
  Basis Set: (AUG-CC-PVTZ AUX)
    Blend: AUG-CC-PVTZ-JKFIT
	 Reference Energy          =    -234.2479308199910406 [Eh]
	 Singles Energy            =      -0.0000000000000000 [Eh]
	 Same-Spin Energy          =      -0.2539237883594471 [Eh]
	 Opposite-Spin Energy      =      -0.9201135510911507 [Eh]
	 Correlation Energy        =      -1.1740373394505978 [Eh]
	 Total Energy              =    -235.4219681594416329 [Eh]

	 ================> DF-SCS-MP2 Energies <==================
	-----------------------------------------------------------
	 SCS Same-Spin Scale       =       0.3333333333333333 [-]
	 SCS Opposite-Spin Scale   =       1.2000000000000000 [-]
	 SCS Same-Spin Energy      =      -0.0846412627864824 [Eh]
	 SCS Opposite-Spin Energy  =      -1.1041362613093808 [Eh]
	 SCS Correlation Energy    =      -1.1887775240958631 [Eh]
	 SCS Total Energy          =    -235.4367083440868953 [Eh]
	-----------------------------------------------------------

  Dipole Moment: [D]
     X:    -0.0004      Y:     0.0063      Z:    -0.0184     Total:     0.0195

*** Psi4 exiting successfully. Buy a developer a beer!
