                               Psi4 1.4a3.dev225

  ==> Input File <==

--------------------------------------------------------------------------
#psi4
#
memory 32 gb

molecule  {
0 1
  C        0.1866420     0.7562470     0.4534190
  C        0.1866490    -0.7562500     0.4534210
  C       -0.7958940    -0.0000060    -0.4032040
  C        1.3128224     1.4587720    -0.2663852
  C        1.3018100    -1.5715430    -0.1562120
  C       -2.2698350    -0.0000050    -0.0828370
  H       -0.2448680     1.2051630     1.3480830
  H       -0.2448540    -1.2051680     1.3480870
  H       -0.5605670    -0.0000080    -1.4682010
  H        0.9553190     2.5847770    -0.3848190
  H        2.1550520     1.6529780     0.5256790
  H        1.6595600     1.1289300    -1.0891140
  H        2.1551040    -1.6528880     0.5256410
  H        0.9553680    -2.5847950    -0.3847400
  H        1.6595080    -1.1289620    -1.0891610
  H       -2.7665390    -0.8865100    -0.4914230
  H       -2.4235610    -0.0000430     1.0010740
  H       -2.7665230     0.8865400    -0.4913590
units angstrom
no_reorient  #important for SAPT in psi4, default
symmetry c1  #important for SAPT in psi4, default
}

set PROPERTIES_ORIGIN ["COM"]
properties('MP2/aug-cc-pvtz', properties = ['dipole'])
--------------------------------------------------------------------------

    Molecular point group: c1
  Charge       = 0
  Multiplicity = 1
  Basis Set: AUG-CC-PVTZ
    Blend: AUG-CC-PVTZ
  Basis Set: (AUG-CC-PVTZ AUX)
    Blend: AUG-CC-PVTZ-JKFIT

    Orbital Energies [Eh]
    ---------------------

    Doubly Occupied:

       1A    -11.223751     2A    -11.219404     3A    -11.218591
       4A    -11.217012     5A    -11.213136     6A    -11.212649
       7A     -1.153914     8A     -0.984207     9A     -0.975544
      10A     -0.909900    11A     -0.773323    12A     -0.750943
      13A     -0.641872    14A     -0.621749    15A     -0.576922
      16A     -0.559952    17A     -0.549424    18A     -0.542203
      19A     -0.526606    20A     -0.508490    21A     -0.487562
      22A     -0.481728    23A     -0.378174    24A     -0.375220

  @DF-RHF Final Energy:  -234.21763856290846

   => Energetics <=

    Nuclear Repulsion Energy =            247.0509218489665102
    One-Electron Energy =                -804.3325626477432024
    Two-Electron Energy =                 323.0640022358682586
    Total Energy =                       -234.2176385629084621
  Basis Set: (AUG-CC-PVTZ AUX)
    Blend: AUG-CC-PVTZ-RI
    Molecular point group: c1

    Geometry (in Angstrom), charge = 0, multiplicity = 1:

       Center              X                  Y                   Z               Mass
    ------------   -----------------  -----------------  -----------------  -----------------
         C            0.191356937276     0.772340984037     0.461468568965    12.000000000000
         C            0.191363937276    -0.740156015963     0.461470568965    12.000000000000
         C           -0.791179062724     0.016087984037    -0.395154431035    12.000000000000
         C            1.317537337276     1.474865984037    -0.258335631035    12.000000000000
         C            1.306524937276    -1.555449015963    -0.148162431035    12.000000000000
         C           -2.265120062724     0.016088984037    -0.074787431035    12.000000000000
         H           -0.240153062724     1.221256984037     1.356132568965     1.007825032230
         H           -0.240139062724    -1.189074015963     1.356136568965     1.007825032230
         H           -0.555852062724     0.016085984037    -1.460151431035     1.007825032230
         H            0.960033937276     2.600870984037    -0.376769431035     1.007825032230
         H            2.159766937276     1.669071984037     0.533728568965     1.007825032230
         H            1.664274937276     1.145023984037    -1.081064431035     1.007825032230
         H            2.159818937276    -1.636794015963     0.533690568965     1.007825032230
         H            0.960082937276    -2.568701015963    -0.376690431035     1.007825032230
         H            1.664222937276    -1.112868015963    -1.081111431035     1.007825032230
         H           -2.761824062724    -0.870416015963    -0.483373431035     1.007825032230
         H           -2.418846062724     0.016050984037     1.009123568965     1.007825032230
         H           -2.761808062724     0.902633984037    -0.483309431035     1.007825032230

  Basis Set: AUG-CC-PVTZ
    Blend: AUG-CC-PVTZ
  Basis Set: (AUG-CC-PVTZ AUX)
    Blend: AUG-CC-PVTZ-JKFIT
	 Reference Energy          =    -234.2176385629084621 [Eh]
	 Singles Energy            =      -0.0000000000000000 [Eh]
	 Same-Spin Energy          =      -0.2544776957330227 [Eh]
	 Opposite-Spin Energy      =      -0.9214555785074054 [Eh]
	 Correlation Energy        =      -1.1759332742404283 [Eh]
	 Total Energy              =    -235.3935718371488974 [Eh]

	 ================> DF-SCS-MP2 Energies <==================
	-----------------------------------------------------------
	 SCS Same-Spin Scale       =       0.3333333333333333 [-]
	 SCS Opposite-Spin Scale   =       1.2000000000000000 [-]
	 SCS Same-Spin Energy      =      -0.0848258985776742 [Eh]
	 SCS Opposite-Spin Energy  =      -1.1057466942088865 [Eh]
	 SCS Correlation Energy    =      -1.1905725927865607 [Eh]
	 SCS Total Energy          =    -235.4082111556950281 [Eh]
	-----------------------------------------------------------

  Dipole Moment: [D]
     X:    -0.0418      Y:    -0.0423      Z:     0.0057     Total:     0.0597

*** Psi4 exiting successfully. Buy a developer a beer!
