                               Psi4 1.4a3.dev225

  ==> Input File <==

--------------------------------------------------------------------------
#psi4
#
memory 32 gb

molecule  {
0 1
  C        0.1866420     0.7562470     0.4534190
  C        0.1866490    -0.7562500     0.4534210
  C       -0.7958940    -0.0000060    -0.4032040
  C        1.2870242     1.5607549    -0.1481371
  C        1.3018100    -1.5715430    -0.1562120
  C       -2.2698350    -0.0000050    -0.0828370
  H       -0.2448680     1.2051630     1.3480830
  H       -0.2448540    -1.2051680     1.3480870
  H       -0.5605670    -0.0000080    -1.4682010
  H        0.9553190     2.5847770    -0.3848190
  H        2.1550520     1.6529780     0.5256790
  H        1.6595600     1.1289300    -1.0891140
  H        2.1551040    -1.6528880     0.5256410
  H        0.9553680    -2.5847950    -0.3847400
  H        1.6595080    -1.1289620    -1.0891610
  H       -2.7665390    -0.8865100    -0.4914230
  H       -2.4235610    -0.0000430     1.0010740
  H       -2.7665230     0.8865400    -0.4913590
units angstrom
no_reorient  #important for SAPT in psi4, default
symmetry c1  #important for SAPT in psi4, default
}

set PROPERTIES_ORIGIN ["COM"]
properties('MP2/aug-cc-pvtz', properties = ['dipole'])
--------------------------------------------------------------------------

    Molecular point group: c1
  Charge       = 0
  Multiplicity = 1
  Basis Set: AUG-CC-PVTZ
    Blend: AUG-CC-PVTZ
  Basis Set: (AUG-CC-PVTZ AUX)
    Blend: AUG-CC-PVTZ-JKFIT

    Orbital Energies [Eh]
    ---------------------

    Doubly Occupied:

       1A    -11.220910     2A    -11.219788     3A    -11.219367
       4A    -11.213434     5A    -11.212653     6A    -11.212614
       7A     -1.152365     8A     -0.983513     9A     -0.976888
      10A     -0.907716    11A     -0.770248    12A     -0.745947
      13A     -0.641447    14A     -0.612233    15A     -0.569949
      16A     -0.567935    17A     -0.547019    18A     -0.533343
      19A     -0.529816    20A     -0.525862    21A     -0.485070
      22A     -0.475259    23A     -0.382305    24A     -0.381308

  @DF-RHF Final Energy:  -234.24788571997735

   => Energetics <=

    Nuclear Repulsion Energy =            246.5781765007853608
    One-Electron Energy =                -803.4781461552720430
    Two-Electron Energy =                 322.6520839345092782
    Total Energy =                       -234.2478857199773756
  Basis Set: (AUG-CC-PVTZ AUX)
    Blend: AUG-CC-PVTZ-RI
    Molecular point group: c1

    Geometry (in Angstrom), charge = 0, multiplicity = 1:

       Center              X                  Y                   Z               Mass
    ------------   -----------------  -----------------  -----------------  -----------------
         C            0.195038279188     0.757788266249     0.444594845740    12.000000000000
         C            0.195045279188    -0.754708733751     0.444596845740    12.000000000000
         C           -0.787497720812     0.001535266249    -0.412028154260    12.000000000000
         C            1.295420479188     1.562296166249    -0.156961254260    12.000000000000
         C            1.310206279188    -1.570001733751    -0.165036154260    12.000000000000
         C           -2.261438720812     0.001536266249    -0.091661154260    12.000000000000
         H           -0.236471720812     1.206704266249     1.339258845740     1.007825032230
         H           -0.236457720812    -1.203626733751     1.339262845740     1.007825032230
         H           -0.552170720812     0.001533266249    -1.477025154260     1.007825032230
         H            0.963715279188     2.586318266249    -0.393643154260     1.007825032230
         H            2.163448279188     1.654519266249     0.516854845740     1.007825032230
         H            1.667956279188     1.130471266249    -1.097938154260     1.007825032230
         H            2.163500279188    -1.651346733751     0.516816845740     1.007825032230
         H            0.963764279188    -2.583253733751    -0.393564154260     1.007825032230
         H            1.667904279188    -1.127420733751    -1.097985154260     1.007825032230
         H           -2.758142720812    -0.884968733751    -0.500247154260     1.007825032230
         H           -2.415164720812     0.001498266249     0.992249845740     1.007825032230
         H           -2.758126720812     0.888081266249    -0.500183154260     1.007825032230

  Basis Set: AUG-CC-PVTZ
    Blend: AUG-CC-PVTZ
  Basis Set: (AUG-CC-PVTZ AUX)
    Blend: AUG-CC-PVTZ-JKFIT
	 Reference Energy          =    -234.2478857199773472 [Eh]
	 Singles Energy            =      -0.0000000000000000 [Eh]
	 Same-Spin Energy          =      -0.2540731609287705 [Eh]
	 Opposite-Spin Energy      =      -0.9201492966667763 [Eh]
	 Correlation Energy        =      -1.1742224575955467 [Eh]
	 Total Energy              =    -235.4221081775728805 [Eh]

	 ================> DF-SCS-MP2 Energies <==================
	-----------------------------------------------------------
	 SCS Same-Spin Scale       =       0.3333333333333333 [-]
	 SCS Opposite-Spin Scale   =       1.2000000000000000 [-]
	 SCS Same-Spin Energy      =      -0.0846910536429235 [Eh]
	 SCS Opposite-Spin Energy  =      -1.1041791560001315 [Eh]
	 SCS Correlation Energy    =      -1.1888702096430550 [Eh]
	 SCS Total Energy          =    -235.4367559296204035 [Eh]
	-----------------------------------------------------------

  Dipole Moment: [D]
     X:    -0.0112      Y:    -0.0060      Z:    -0.0097     Total:     0.0160

*** Psi4 exiting successfully. Buy a developer a beer!
