                               Psi4 1.4a3.dev225

  ==> Input File <==

--------------------------------------------------------------------------
#psi4
#
memory 32 gb

molecule  {
0 1
  C        0.1866420     0.7562470     0.4534190
  C        0.1866490    -0.7562500     0.4534210
  C       -0.7958940    -0.0000060    -0.4032040
  C        1.2987640     1.5895146    -0.1371667
  C        1.3018100    -1.5715430    -0.1562120
  C       -2.2698350    -0.0000050    -0.0828370
  H       -0.2448680     1.2051630     1.3480830
  H       -0.2448540    -1.2051680     1.3480870
  H       -0.5605670    -0.0000080    -1.4682010
  H        0.9553190     2.5847770    -0.3848190
  H        2.1550520     1.6529780     0.5256790
  H        1.6595600     1.1289300    -1.0891140
  H        2.1551040    -1.6528880     0.5256410
  H        0.9553680    -2.5847950    -0.3847400
  H        1.6595080    -1.1289620    -1.0891610
  H       -2.7665390    -0.8865100    -0.4914230
  H       -2.4235610    -0.0000430     1.0010740
  H       -2.7665230     0.8865400    -0.4913590
units angstrom
no_reorient  #important for SAPT in psi4, default
symmetry c1  #important for SAPT in psi4, default
}

set PROPERTIES_ORIGIN ["COM"]
properties('MP2/aug-cc-pvtz', properties = ['dipole'])
--------------------------------------------------------------------------

    Molecular point group: c1
  Charge       = 0
  Multiplicity = 1
  Basis Set: AUG-CC-PVTZ
    Blend: AUG-CC-PVTZ
  Basis Set: (AUG-CC-PVTZ AUX)
    Blend: AUG-CC-PVTZ-JKFIT

    Orbital Energies [Eh]
    ---------------------

    Doubly Occupied:

       1A    -11.221137     2A    -11.220205     3A    -11.219624
       4A    -11.212677     5A    -11.212576     6A    -11.212534
       7A     -1.150952     8A     -0.982806     9A     -0.975997
      10A     -0.908346    11A     -0.769639    12A     -0.745518
      13A     -0.640575    14A     -0.610457    15A     -0.572496
      16A     -0.569014    17A     -0.548259    18A     -0.535756
      19A     -0.529842    20A     -0.524249    21A     -0.483978
      22A     -0.470608    23A     -0.383302    24A     -0.382562

  @DF-RHF Final Energy:  -234.24775399698009

   => Energetics <=

    Nuclear Repulsion Energy =            246.1777943247455767
    One-Electron Energy =                -802.6848758420934473
    Two-Electron Energy =                 322.2593275203677194
    Total Energy =                       -234.2477539969801228
  Basis Set: (AUG-CC-PVTZ AUX)
    Blend: AUG-CC-PVTZ-RI
    Molecular point group: c1

    Geometry (in Angstrom), charge = 0, multiplicity = 1:

       Center              X                  Y                   Z               Mass
    ------------   -----------------  -----------------  -----------------  -----------------
         C            0.193363037591     0.753684325317     0.443029395697    12.000000000000
         C            0.193370037591    -0.758812674683     0.443031395697    12.000000000000
         C           -0.789172962409    -0.002568674683    -0.413593604303    12.000000000000
         C            1.305485037591     1.586951925317    -0.147556304303    12.000000000000
         C            1.308531037591    -1.574105674683    -0.166601604303    12.000000000000
         C           -2.263113962409    -0.002567674683    -0.093226604303    12.000000000000
         H           -0.238146962409     1.202600325317     1.337693395697     1.007825032230
         H           -0.238132962409    -1.207730674683     1.337697395697     1.007825032230
         H           -0.553845962409    -0.002570674683    -1.478590604303     1.007825032230
         H            0.962040037591     2.582214325317    -0.395208604303     1.007825032230
         H            2.161773037591     1.650415325317     0.515289395697     1.007825032230
         H            1.666281037591     1.126367325317    -1.099503604303     1.007825032230
         H            2.161825037591    -1.655450674683     0.515251395697     1.007825032230
         H            0.962089037591    -2.587357674683    -0.395129604303     1.007825032230
         H            1.666229037591    -1.131524674683    -1.099550604303     1.007825032230
         H           -2.759817962409    -0.889072674683    -0.501812604303     1.007825032230
         H           -2.416839962409    -0.002605674683     0.990684395697     1.007825032230
         H           -2.759801962409     0.883977325317    -0.501748604303     1.007825032230

  Basis Set: AUG-CC-PVTZ
    Blend: AUG-CC-PVTZ
  Basis Set: (AUG-CC-PVTZ AUX)
    Blend: AUG-CC-PVTZ-JKFIT
	 Reference Energy          =    -234.2477539969800944 [Eh]
	 Singles Energy            =      -0.0000000000000000 [Eh]
	 Same-Spin Energy          =      -0.2539004759437988 [Eh]
	 Opposite-Spin Energy      =      -0.9200054146697678 [Eh]
	 Correlation Energy        =      -1.1739058906135666 [Eh]
	 Total Energy              =    -235.4216598875936484 [Eh]

	 ================> DF-SCS-MP2 Energies <==================
	-----------------------------------------------------------
	 SCS Same-Spin Scale       =       0.3333333333333333 [-]
	 SCS Opposite-Spin Scale   =       1.2000000000000000 [-]
	 SCS Same-Spin Energy      =      -0.0846334919812663 [Eh]
	 SCS Opposite-Spin Energy  =      -1.1040064976037214 [Eh]
	 SCS Correlation Energy    =      -1.1886399895849877 [Eh]
	 SCS Total Energy          =    -235.4363939865650934 [Eh]
	-----------------------------------------------------------

  Dipole Moment: [D]
     X:    -0.0066      Y:     0.0030      Z:    -0.0047     Total:     0.0086

*** Psi4 exiting successfully. Buy a developer a beer!
