                               Psi4 1.4a3.dev225

  ==> Input File <==

--------------------------------------------------------------------------
#psi4
#
memory 32 gb

molecule  {
0 1
  C        0.1866420     0.7562470     0.4534190
  C        0.1866490    -0.7562500     0.4534210
  C       -0.7958940    -0.0000060    -0.4032040
  C        1.3017950     1.5715540    -0.1562120
  C        1.3018100    -1.5715430    -0.1562120
  C       -2.2698350    -0.0000050    -0.0828370
  H       -0.2448680     1.2051630     1.3480830
  H       -0.2448540    -1.2051680     1.3480870
  H       -0.5605670    -0.0000080    -1.4682010
  H        0.9553190     2.5847770    -0.3848190
  H        2.1550520     1.6529780     0.5256790
  H        1.6268217     1.1694336    -1.0037462
  H        2.1551040    -1.6528880     0.5256410
  H        0.9553680    -2.5847950    -0.3847400
  H        1.6595080    -1.1289620    -1.0891610
  H       -2.7665390    -0.8865100    -0.4914230
  H       -2.4235610    -0.0000430     1.0010740
  H       -2.7665230     0.8865400    -0.4913590
units angstrom
no_reorient  #important for SAPT in psi4, default
symmetry c1  #important for SAPT in psi4, default
}

set PROPERTIES_ORIGIN ["COM"]
properties('MP2/aug-cc-pvtz', properties = ['dipole'])
--------------------------------------------------------------------------

    Molecular point group: c1
  Charge       = 0
  Multiplicity = 1
  Basis Set: AUG-CC-PVTZ
    Blend: AUG-CC-PVTZ
  Basis Set: (AUG-CC-PVTZ AUX)
    Blend: AUG-CC-PVTZ-JKFIT

    Orbital Energies [Eh]
    ---------------------

    Doubly Occupied:

       1A    -11.220581     2A    -11.219528     3A    -11.219138
       4A    -11.212965     5A    -11.212396     6A    -11.199961
       7A     -1.151383     8A     -0.986201     9A     -0.978876
      10A     -0.911573    11A     -0.770652    12A     -0.748841
      13A     -0.641586    14A     -0.613207    15A     -0.573409
      16A     -0.568061    17A     -0.549045    18A     -0.539975
      19A     -0.530941    20A     -0.528301    21A     -0.483924
      22A     -0.476483    23A     -0.382155    24A     -0.381809

  @DF-RHF Final Energy:  -234.24246804971162

   => Energetics <=

    Nuclear Repulsion Energy =            246.6993911863164044
    One-Electron Energy =                -803.6817358900137833
    Two-Electron Energy =                 322.7398766539857888
    Total Energy =                       -234.2424680497116469
  Basis Set: (AUG-CC-PVTZ AUX)
    Blend: AUG-CC-PVTZ-RI
    Molecular point group: c1

    Geometry (in Angstrom), charge = 0, multiplicity = 1:

       Center              X                  Y                   Z               Mass
    ------------   -----------------  -----------------  -----------------  -----------------
         C            0.193322873896     0.755761844105     0.444724022698    12.000000000000
         C            0.193329873896    -0.756735155895     0.444726022698    12.000000000000
         C           -0.789213126104    -0.000491155895    -0.411898977302    12.000000000000
         C            1.308475873896     1.571068844105    -0.164906977302    12.000000000000
         C            1.308490873896    -1.572028155895    -0.164906977302    12.000000000000
         C           -2.263154126104    -0.000490155895    -0.091531977302    12.000000000000
         H           -0.238187126104     1.204677844105     1.339388022698     1.007825032230
         H           -0.238173126104    -1.205653155895     1.339392022698     1.007825032230
         H           -0.553886126104    -0.000493155895    -1.476895977302     1.007825032230
         H            0.961999873896     2.584291844105    -0.393513977302     1.007825032230
         H            2.161732873896     1.652492844105     0.516984022698     1.007825032230
         H            1.633502573896     1.168948444105    -1.012441177302     1.007825032230
         H            2.161784873896    -1.653373155895     0.516946022698     1.007825032230
         H            0.962048873896    -2.585280155895    -0.393434977302     1.007825032230
         H            1.666188873896    -1.129447155895    -1.097855977302     1.007825032230
         H           -2.759858126104    -0.886995155895    -0.500117977302     1.007825032230
         H           -2.416880126104    -0.000528155895     0.992379022698     1.007825032230
         H           -2.759842126104     0.886054844105    -0.500053977302     1.007825032230

  Basis Set: AUG-CC-PVTZ
    Blend: AUG-CC-PVTZ
  Basis Set: (AUG-CC-PVTZ AUX)
    Blend: AUG-CC-PVTZ-JKFIT
	 Reference Energy          =    -234.2424680497116185 [Eh]
	 Singles Energy            =      -0.0000000000000000 [Eh]
	 Same-Spin Energy          =      -0.2538735939920990 [Eh]
	 Opposite-Spin Energy      =      -0.9194488148019284 [Eh]
	 Correlation Energy        =      -1.1733224087940273 [Eh]
	 Total Energy              =    -235.4157904585056542 [Eh]

	 ================> DF-SCS-MP2 Energies <==================
	-----------------------------------------------------------
	 SCS Same-Spin Scale       =       0.3333333333333333 [-]
	 SCS Opposite-Spin Scale   =       1.2000000000000000 [-]
	 SCS Same-Spin Energy      =      -0.0846245313306997 [Eh]
	 SCS Opposite-Spin Energy  =      -1.1033385777623141 [Eh]
	 SCS Correlation Energy    =      -1.1879631090930138 [Eh]
	 SCS Total Energy          =    -235.4304311588046232 [Eh]
	-----------------------------------------------------------

  Dipole Moment: [D]
     X:     0.0210      Y:    -0.0116      Z:    -0.0512     Total:     0.0565

*** Psi4 exiting successfully. Buy a developer a beer!
