                               Psi4 1.4a3.dev225

  ==> Input File <==

--------------------------------------------------------------------------
#psi4
#
memory 32 gb

molecule  {
0 1
  C        0.1866420     0.7562470     0.4534190
  C        0.1866490    -0.7562500     0.4534210
  C       -0.7958940    -0.0000060    -0.4032040
  C        1.2279412     1.5175583    -0.1158377
  C        1.3018100    -1.5715430    -0.1562120
  C       -2.2698350    -0.0000050    -0.0828370
  H       -0.2448680     1.2051630     1.3480830
  H       -0.2448540    -1.2051680     1.3480870
  H       -0.5605670    -0.0000080    -1.4682010
  H        0.9553190     2.5847770    -0.3848190
  H        2.1550520     1.6529780     0.5256790
  H        1.6595600     1.1289300    -1.0891140
  H        2.1551040    -1.6528880     0.5256410
  H        0.9553680    -2.5847950    -0.3847400
  H        1.6595080    -1.1289620    -1.0891610
  H       -2.7665390    -0.8865100    -0.4914230
  H       -2.4235610    -0.0000430     1.0010740
  H       -2.7665230     0.8865400    -0.4913590
units angstrom
no_reorient  #important for SAPT in psi4, default
symmetry c1  #important for SAPT in psi4, default
}

set PROPERTIES_ORIGIN ["COM"]
properties('MP2/aug-cc-pvtz', properties = ['dipole'])
--------------------------------------------------------------------------

    Molecular point group: c1
  Charge       = 0
  Multiplicity = 1
  Basis Set: AUG-CC-PVTZ
    Blend: AUG-CC-PVTZ
  Basis Set: (AUG-CC-PVTZ AUX)
    Blend: AUG-CC-PVTZ-JKFIT

    Orbital Energies [Eh]
    ---------------------

    Doubly Occupied:

       1A    -11.221780     2A    -11.220612     3A    -11.217988
       4A    -11.215876     5A    -11.213297     6A    -11.212809
       7A     -1.158203     8A     -0.989606     9A     -0.980286
      10A     -0.905938    11A     -0.772074    12A     -0.746916
      13A     -0.644986    14A     -0.619327    15A     -0.570837
      16A     -0.566588    17A     -0.548302    18A     -0.533010
      19A     -0.529072    20A     -0.515836    21A     -0.488589
      22A     -0.476299    23A     -0.382288    24A     -0.376487

  @DF-RHF Final Energy:  -234.23645903334500

   => Energetics <=

    Nuclear Repulsion Energy =            247.7765578515092102
    One-Electron Energy =                -805.8120195088287119
    Two-Electron Energy =                 323.7990026239745021
    Total Energy =                       -234.2364590333449996
  Basis Set: (AUG-CC-PVTZ AUX)
    Blend: AUG-CC-PVTZ-RI
    Molecular point group: c1

    Geometry (in Angstrom), charge = 0, multiplicity = 1:

       Center              X                  Y                   Z               Mass
    ------------   -----------------  -----------------  -----------------  -----------------
         C            0.203469283063     0.763952318548     0.439985798018    12.000000000000
         C            0.203476283063    -0.748544681452     0.439987798018    12.000000000000
         C           -0.779066716937     0.007699318548    -0.416637201982    12.000000000000
         C            1.244768483063     1.525263618548    -0.129270901982    12.000000000000
         C            1.318637283063    -1.563837681452    -0.169645201982    12.000000000000
         C           -2.253007716937     0.007700318548    -0.096270201982    12.000000000000
         H           -0.228040716937     1.212868318548     1.334649798018     1.007825032230
         H           -0.228026716937    -1.197462681452     1.334653798018     1.007825032230
         H           -0.543739716937     0.007697318548    -1.481634201982     1.007825032230
         H            0.972146283063     2.592482318548    -0.398252201982     1.007825032230
         H            2.171879283063     1.660683318548     0.512245798018     1.007825032230
         H            1.676387283063     1.136635318548    -1.102547201982     1.007825032230
         H            2.171931283063    -1.645182681452     0.512207798018     1.007825032230
         H            0.972195283063    -2.577089681452    -0.398173201982     1.007825032230
         H            1.676335283063    -1.121256681452    -1.102594201982     1.007825032230
         H           -2.749711716937    -0.878804681452    -0.504856201982     1.007825032230
         H           -2.406733716937     0.007662318548     0.987640798018     1.007825032230
         H           -2.749695716937     0.894245318548    -0.504792201982     1.007825032230

  Basis Set: AUG-CC-PVTZ
    Blend: AUG-CC-PVTZ
  Basis Set: (AUG-CC-PVTZ AUX)
    Blend: AUG-CC-PVTZ-JKFIT
	 Reference Energy          =    -234.2364590333449996 [Eh]
	 Singles Energy            =      -0.0000000000000000 [Eh]
	 Same-Spin Energy          =      -0.2550750186681972 [Eh]
	 Opposite-Spin Energy      =      -0.9214006882025306 [Eh]
	 Correlation Energy        =      -1.1764757068707277 [Eh]
	 Total Energy              =    -235.4129347402157180 [Eh]

	 ================> DF-SCS-MP2 Energies <==================
	-----------------------------------------------------------
	 SCS Same-Spin Scale       =       0.3333333333333333 [-]
	 SCS Opposite-Spin Scale   =       1.2000000000000000 [-]
	 SCS Same-Spin Energy      =      -0.0850250062227324 [Eh]
	 SCS Opposite-Spin Energy  =      -1.1056808258430366 [Eh]
	 SCS Correlation Energy    =      -1.1907058320657691 [Eh]
	 SCS Total Energy          =    -235.4271648654107594 [Eh]
	-----------------------------------------------------------

  Dipole Moment: [D]
     X:    -0.0507      Y:    -0.0454      Z:    -0.0092     Total:     0.0687

*** Psi4 exiting successfully. Buy a developer a beer!
