                               Psi4 1.4a3.dev225

  ==> Input File <==

--------------------------------------------------------------------------
#psi4
#
memory 32 gb

molecule  {
0 1
  C        0.1866420     0.7562470     0.4534190
  C        0.1866490    -0.7562500     0.4534210
  C       -0.7958940    -0.0000060    -0.4032040
  C        1.3017950     1.5715540    -0.1562120
  C        1.3018100    -1.5715430    -0.1562120
  C       -2.2698350    -0.0000050    -0.0828370
  H       -0.2448680     1.2051630     1.3480830
  H       -0.1656808    -1.1227994     1.1839315
  H       -0.5605670    -0.0000080    -1.4682010
  H        0.9553190     2.5847770    -0.3848190
  H        2.1550520     1.6529780     0.5256790
  H        1.6595600     1.1289300    -1.0891140
  H        2.1551040    -1.6528880     0.5256410
  H        0.9553680    -2.5847950    -0.3847400
  H        1.6595080    -1.1289620    -1.0891610
  H       -2.7665390    -0.8865100    -0.4914230
  H       -2.4235610    -0.0000430     1.0010740
  H       -2.7665230     0.8865400    -0.4913590
units angstrom
no_reorient  #important for SAPT in psi4, default
symmetry c1  #important for SAPT in psi4, default
}

set PROPERTIES_ORIGIN ["COM"]
properties('MP2/aug-cc-pvtz', properties = ['dipole'])
--------------------------------------------------------------------------

    Molecular point group: c1
  Charge       = 0
  Multiplicity = 1
  Basis Set: AUG-CC-PVTZ
    Blend: AUG-CC-PVTZ
  Basis Set: (AUG-CC-PVTZ AUX)
    Blend: AUG-CC-PVTZ-JKFIT

    Orbital Energies [Eh]
    ---------------------

    Doubly Occupied:

       1A    -11.219552     2A    -11.218261     3A    -11.212563
       4A    -11.211794     5A    -11.210977     6A    -11.195842
       7A     -1.155218     8A     -0.983319     9A     -0.978534
      10A     -0.908782    11A     -0.795809    12A     -0.756734
      13A     -0.648254    14A     -0.611262    15A     -0.571807
      16A     -0.567862    17A     -0.547142    18A     -0.534774
      19A     -0.531844    20A     -0.528546    21A     -0.488411
      22A     -0.479571    23A     -0.382927    24A     -0.381205

  @DF-RHF Final Energy:  -234.21453832659253

   => Energetics <=

    Nuclear Repulsion Energy =            247.4028642896254553
    One-Electron Energy =                -804.9928313920559049
    Two-Electron Energy =                 323.3754287758379178
    Total Energy =                       -234.2145383265925602
  Basis Set: (AUG-CC-PVTZ AUX)
    Blend: AUG-CC-PVTZ-RI
    Molecular point group: c1

    Geometry (in Angstrom), charge = 0, multiplicity = 1:

       Center              X                  Y                   Z               Mass
    ------------   -----------------  -----------------  -----------------  -----------------
         C            0.191981668284     0.755260112174     0.447714439681    12.000000000000
         C            0.191988668284    -0.757236887826     0.447716439681    12.000000000000
         C           -0.790554331716    -0.000992887826    -0.408908560319    12.000000000000
         C            1.307134668284     1.570567112174    -0.161916560319    12.000000000000
         C            1.307149668284    -1.572529887826    -0.161916560319    12.000000000000
         C           -2.264495331716    -0.000991887826    -0.088541560319    12.000000000000
         H           -0.239528331716     1.204176112174     1.342378439681     1.007825032230
         H           -0.160341131716    -1.123786287826     1.178226939681     1.007825032230
         H           -0.555227331716    -0.000994887826    -1.473905560319     1.007825032230
         H            0.960658668284     2.583790112174    -0.390523560319     1.007825032230
         H            2.160391668284     1.651991112174     0.519974439681     1.007825032230
         H            1.664899668284     1.127943112174    -1.094818560319     1.007825032230
         H            2.160443668284    -1.653874887826     0.519936439681     1.007825032230
         H            0.960707668284    -2.585781887826    -0.390444560319     1.007825032230
         H            1.664847668284    -1.129948887826    -1.094865560319     1.007825032230
         H           -2.761199331716    -0.887496887826    -0.497127560319     1.007825032230
         H           -2.418221331716    -0.001029887826     0.995369439681     1.007825032230
         H           -2.761183331716     0.885553112174    -0.497063560319     1.007825032230

  Basis Set: AUG-CC-PVTZ
    Blend: AUG-CC-PVTZ
  Basis Set: (AUG-CC-PVTZ AUX)
    Blend: AUG-CC-PVTZ-JKFIT
	 Reference Energy          =    -234.2145383265925318 [Eh]
	 Singles Energy            =      -0.0000000000000000 [Eh]
	 Same-Spin Energy          =      -0.2538599181875396 [Eh]
	 Opposite-Spin Energy      =      -0.9195333228540733 [Eh]
	 Correlation Energy        =      -1.1733932410416128 [Eh]
	 Total Energy              =    -235.3879315676341548 [Eh]

	 ================> DF-SCS-MP2 Energies <==================
	-----------------------------------------------------------
	 SCS Same-Spin Scale       =       0.3333333333333333 [-]
	 SCS Opposite-Spin Scale   =       1.2000000000000000 [-]
	 SCS Same-Spin Energy      =      -0.0846199727291799 [Eh]
	 SCS Opposite-Spin Energy  =      -1.1034399874248879 [Eh]
	 SCS Correlation Energy    =      -1.1880599601540678 [Eh]
	 SCS Total Energy          =    -235.4025982867466098 [Eh]
	-----------------------------------------------------------

  Dipole Moment: [D]
     X:    -0.0416      Y:    -0.0355      Z:     0.0499     Total:     0.0740

*** Psi4 exiting successfully. Buy a developer a beer!
