                               Psi4 1.4a3.dev225

  ==> Input File <==

--------------------------------------------------------------------------
#psi4
#
memory 32 gb

molecule  {
0 1
  C        0.1866420     0.7562470     0.4534190
  C        0.1866490    -0.7562500     0.4534210
  C       -0.7958940    -0.0000060    -0.4032040
  C        1.3017950     1.5715540    -0.1562120
  C        1.2648828    -1.5445456    -0.1360248
  C       -2.2698350    -0.0000050    -0.0828370
  H       -0.2448680     1.2051630     1.3480830
  H       -0.2448540    -1.2051680     1.3480870
  H       -0.5605670    -0.0000080    -1.4682010
  H        0.9553190     2.5847770    -0.3848190
  H        2.1550520     1.6529780     0.5256790
  H        1.6595600     1.1289300    -1.0891140
  H        2.1551040    -1.6528880     0.5256410
  H        0.9553680    -2.5847950    -0.3847400
  H        1.6595080    -1.1289620    -1.0891610
  H       -2.7665390    -0.8865100    -0.4914230
  H       -2.4235610    -0.0000430     1.0010740
  H       -2.7665230     0.8865400    -0.4913590
units angstrom
no_reorient  #important for SAPT in psi4, default
symmetry c1  #important for SAPT in psi4, default
}

set PROPERTIES_ORIGIN ["COM"]
properties('MP2/aug-cc-pvtz', properties = ['dipole'])
--------------------------------------------------------------------------

    Molecular point group: c1
  Charge       = 0
  Multiplicity = 1
  Basis Set: AUG-CC-PVTZ
    Blend: AUG-CC-PVTZ
  Basis Set: (AUG-CC-PVTZ AUX)
    Blend: AUG-CC-PVTZ-JKFIT

    Orbital Energies [Eh]
    ---------------------

    Doubly Occupied:

       1A    -11.221139     2A    -11.219960     3A    -11.218331
       4A    -11.214886     5A    -11.212866     6A    -11.212671
       7A     -1.154325     8A     -0.985108     9A     -0.978501
      10A     -0.907004    11A     -0.770888    12A     -0.746375
      13A     -0.642599    14A     -0.614717    15A     -0.570133
      16A     -0.567098    17A     -0.546960    18A     -0.531941
      19A     -0.531008    20A     -0.522010    21A     -0.486644
      22A     -0.476359    23A     -0.382424    24A     -0.379755

  @DF-RHF Final Energy:  -234.24536757276701

   => Energetics <=

    Nuclear Repulsion Energy =            247.0180828576137628
    One-Electron Energy =                -804.3394960653610042
    Two-Electron Energy =                 323.0760456349802325
    Total Energy =                       -234.2453675727670088
  Basis Set: (AUG-CC-PVTZ AUX)
    Blend: AUG-CC-PVTZ-RI
    Molecular point group: c1

    Geometry (in Angstrom), charge = 0, multiplicity = 1:

       Center              X                  Y                   Z               Mass
    ------------   -----------------  -----------------  -----------------  -----------------
         C            0.198199944883     0.752394795404     0.442866449277    12.000000000000
         C            0.198206944883    -0.760102204596     0.442868449277    12.000000000000
         C           -0.784336055117    -0.003858204596    -0.413756550723    12.000000000000
         C            1.313352944883     1.567701795404    -0.166764550723    12.000000000000
         C            1.276440744883    -1.548397804596    -0.146577350723    12.000000000000
         C           -2.258277055117    -0.003857204596    -0.093389550723    12.000000000000
         H           -0.233310055117     1.201310795404     1.337530449277     1.007825032230
         H           -0.233296055117    -1.209020204596     1.337534449277     1.007825032230
         H           -0.549009055117    -0.003860204596    -1.478753550723     1.007825032230
         H            0.966876944883     2.580924795404    -0.395371550723     1.007825032230
         H            2.166609944883     1.649125795404     0.515126449277     1.007825032230
         H            1.671117944883     1.125077795404    -1.099666550723     1.007825032230
         H            2.166661944883    -1.656740204596     0.515088449277     1.007825032230
         H            0.966925944883    -2.588647204596    -0.395292550723     1.007825032230
         H            1.671065944883    -1.132814204596    -1.099713550723     1.007825032230
         H           -2.754981055117    -0.890362204596    -0.501975550723     1.007825032230
         H           -2.412003055117    -0.003895204596     0.990521449277     1.007825032230
         H           -2.754965055117     0.882687795404    -0.501911550723     1.007825032230

  Basis Set: AUG-CC-PVTZ
    Blend: AUG-CC-PVTZ
  Basis Set: (AUG-CC-PVTZ AUX)
    Blend: AUG-CC-PVTZ-JKFIT
	 Reference Energy          =    -234.2453675727670088 [Eh]
	 Singles Energy            =      -0.0000000000000000 [Eh]
	 Same-Spin Energy          =      -0.2543833798243771 [Eh]
	 Opposite-Spin Energy      =      -0.9205045819390926 [Eh]
	 Correlation Energy        =      -1.1748879617634698 [Eh]
	 Total Energy              =    -235.4202555345304688 [Eh]

	 ================> DF-SCS-MP2 Energies <==================
	-----------------------------------------------------------
	 SCS Same-Spin Scale       =       0.3333333333333333 [-]
	 SCS Opposite-Spin Scale   =       1.2000000000000000 [-]
	 SCS Same-Spin Energy      =      -0.0847944599414590 [Eh]
	 SCS Opposite-Spin Energy  =      -1.1046054983269111 [Eh]
	 SCS Correlation Energy    =      -1.1893999582683701 [Eh]
	 SCS Total Energy          =    -235.4347675310353907 [Eh]
	-----------------------------------------------------------

  Dipole Moment: [D]
     X:    -0.0229      Y:     0.0177      Z:    -0.0102     Total:     0.0307

*** Psi4 exiting successfully. Buy a developer a beer!
