                               Psi4 1.4a3.dev225

  ==> Input File <==

--------------------------------------------------------------------------
#psi4
#
memory 32 gb

molecule  {
0 1
  C        0.1866420     0.7562470     0.4534190
  C        0.1866490    -0.7562500     0.4534210
  C       -0.7958940    -0.0000060    -0.4032040
  C        1.3017950     1.5715540    -0.1562120
  C        1.3018100    -1.5715430    -0.1562120
  C       -2.2698350    -0.0000050    -0.0828370
  H       -0.2448680     1.2051630     1.3480830
  H       -0.2844406    -1.2463523     1.4301647
  H       -0.5605670    -0.0000080    -1.4682010
  H        0.9553190     2.5847770    -0.3848190
  H        2.1550520     1.6529780     0.5256790
  H        1.6595600     1.1289300    -1.0891140
  H        2.1551040    -1.6528880     0.5256410
  H        0.9553680    -2.5847950    -0.3847400
  H        1.6595080    -1.1289620    -1.0891610
  H       -2.7665390    -0.8865100    -0.4914230
  H       -2.4235610    -0.0000430     1.0010740
  H       -2.7665230     0.8865400    -0.4913590
units angstrom
no_reorient  #important for SAPT in psi4, default
symmetry c1  #important for SAPT in psi4, default
}

set PROPERTIES_ORIGIN ["COM"]
properties('MP2/aug-cc-pvtz', properties = ['dipole'])
--------------------------------------------------------------------------

    Molecular point group: c1
  Charge       = 0
  Multiplicity = 1
  Basis Set: AUG-CC-PVTZ
    Blend: AUG-CC-PVTZ
  Basis Set: (AUG-CC-PVTZ AUX)
    Blend: AUG-CC-PVTZ-JKFIT

    Orbital Energies [Eh]
    ---------------------

    Doubly Occupied:

       1A    -11.232185     2A    -11.221573     3A    -11.220545
       4A    -11.213790     5A    -11.213277     6A    -11.212630
       7A     -1.150708     8A     -0.983173     9A     -0.975285
      10A     -0.908534    11A     -0.767089    12A     -0.736672
      13A     -0.636982    14A     -0.610644    15A     -0.569486
      16A     -0.569241    17A     -0.547698    18A     -0.535128
      19A     -0.529838    20A     -0.525485    21A     -0.483731
      22A     -0.467187    23A     -0.383389    24A     -0.381603

  @DF-RHF Final Energy:  -234.24163827529350

   => Energetics <=

    Nuclear Repulsion Energy =            245.8274104845807528
    One-Electron Energy =                -801.9863511867179113
    Two-Electron Energy =                 321.9173024268437189
    Total Energy =                       -234.2416382752934965
  Basis Set: (AUG-CC-PVTZ AUX)
    Blend: AUG-CC-PVTZ-RI
    Molecular point group: c1

    Geometry (in Angstrom), charge = 0, multiplicity = 1:

       Center              X                  Y                   Z               Mass
    ------------   -----------------  -----------------  -----------------  -----------------
         C            0.193404947484     0.756740834377     0.444763452967    12.000000000000
         C            0.193411947484    -0.755756165623     0.444765452967    12.000000000000
         C           -0.789131052516     0.000487834377    -0.411859547033    12.000000000000
         C            1.308557947484     1.572047834377    -0.164867547033    12.000000000000
         C            1.308572947484    -1.571049165623    -0.164867547033    12.000000000000
         C           -2.263072052516     0.000488834377    -0.091492547033    12.000000000000
         H           -0.238105052516     1.205656834377     1.339427452967     1.007825032230
         H           -0.277677652516    -1.245858465623     1.421509152967     1.007825032230
         H           -0.553804052516     0.000485834377    -1.476856547033     1.007825032230
         H            0.962081947484     2.585270834377    -0.393474547033     1.007825032230
         H            2.161814947484     1.653471834377     0.517023452967     1.007825032230
         H            1.666322947484     1.129423834377    -1.097769547033     1.007825032230
         H            2.161866947484    -1.652394165623     0.516985452967     1.007825032230
         H            0.962130947484    -2.584301165623    -0.393395547033     1.007825032230
         H            1.666270947484    -1.128468165623    -1.097816547033     1.007825032230
         H           -2.759776052516    -0.886016165623    -0.500078547033     1.007825032230
         H           -2.416798052516     0.000450834377     0.992418452967     1.007825032230
         H           -2.759760052516     0.887033834377    -0.500014547033     1.007825032230

  Basis Set: AUG-CC-PVTZ
    Blend: AUG-CC-PVTZ
  Basis Set: (AUG-CC-PVTZ AUX)
    Blend: AUG-CC-PVTZ-JKFIT
	 Reference Energy          =    -234.2416382752934965 [Eh]
	 Singles Energy            =      -0.0000000000000000 [Eh]
	 Same-Spin Energy          =      -0.2539974376605605 [Eh]
	 Opposite-Spin Energy      =      -0.9207481712411001 [Eh]
	 Correlation Energy        =      -1.1747456089016606 [Eh]
	 Total Energy              =    -235.4163838841951701 [Eh]

	 ================> DF-SCS-MP2 Energies <==================
	-----------------------------------------------------------
	 SCS Same-Spin Scale       =       0.3333333333333333 [-]
	 SCS Opposite-Spin Scale   =       1.2000000000000000 [-]
	 SCS Same-Spin Energy      =      -0.0846658125535202 [Eh]
	 SCS Opposite-Spin Energy  =      -1.1048978054893202 [Eh]
	 SCS Correlation Energy    =      -1.1895636180428404 [Eh]
	 SCS Total Energy          =    -235.4312018933363504 [Eh]
	-----------------------------------------------------------

  Dipole Moment: [D]
     X:     0.0220      Y:     0.0363      Z:    -0.0635     Total:     0.0764

*** Psi4 exiting successfully. Buy a developer a beer!
