                               Psi4 1.4a3.dev225

  ==> Input File <==

--------------------------------------------------------------------------
#psi4
#
memory 32 gb

molecule  {
0 1
  C        0.1866420     0.7562470     0.4534190
  C        0.2161923    -0.7498245     0.4965912
  C       -0.7958940    -0.0000060    -0.4032040
  C        1.3017950     1.5715540    -0.1562120
  C        1.3018100    -1.5715430    -0.1562120
  C       -2.2698350    -0.0000050    -0.0828370
  H       -0.2448680     1.2051630     1.3480830
  H       -0.2448540    -1.2051680     1.3480870
  H       -0.5605670    -0.0000080    -1.4682010
  H        0.9553190     2.5847770    -0.3848190
  H        2.1550520     1.6529780     0.5256790
  H        1.6595600     1.1289300    -1.0891140
  H        2.1551040    -1.6528880     0.5256410
  H        0.9553680    -2.5847950    -0.3847400
  H        1.6595080    -1.1289620    -1.0891610
  H       -2.7665390    -0.8865100    -0.4914230
  H       -2.4235610    -0.0000430     1.0010740
  H       -2.7665230     0.8865400    -0.4913590
units angstrom
no_reorient  #important for SAPT in psi4, default
symmetry c1  #important for SAPT in psi4, default
}

set PROPERTIES_ORIGIN ["COM"]
properties('MP2/aug-cc-pvtz', properties = ['dipole'])
--------------------------------------------------------------------------

    Molecular point group: c1
  Charge       = 0
  Multiplicity = 1
  Basis Set: AUG-CC-PVTZ
    Blend: AUG-CC-PVTZ
  Basis Set: (AUG-CC-PVTZ AUX)
    Blend: AUG-CC-PVTZ-JKFIT

    Orbital Energies [Eh]
    ---------------------

    Doubly Occupied:

       1A    -11.222830     2A    -11.220443     3A    -11.219403
       4A    -11.213089     5A    -11.212366     6A    -11.212115
       7A     -1.146342     8A     -0.982478     9A     -0.975931
      10A     -0.906658    11A     -0.771144    12A     -0.746316
      13A     -0.641691    14A     -0.608929    15A     -0.570001
      16A     -0.567458    17A     -0.546363    18A     -0.535123
      19A     -0.529489    20A     -0.527686    21A     -0.485932
      22A     -0.476349    23A     -0.390413    24A     -0.368862

  @DF-RHF Final Energy:  -234.24671115838891

   => Energetics <=

    Nuclear Repulsion Energy =            245.9417419541504444
    One-Electron Energy =                -802.2220826904891737
    Two-Electron Energy =                 322.0336295779498528
    Total Energy =                       -234.2467111583889050
  Basis Set: (AUG-CC-PVTZ AUX)
    Blend: AUG-CC-PVTZ-RI
    Molecular point group: c1

    Geometry (in Angstrom), charge = 0, multiplicity = 1:

       Center              X                  Y                   Z               Mass
    ------------   -----------------  -----------------  -----------------  -----------------
         C            0.188714762291     0.755330356710     0.439586829724    12.000000000000
         C            0.218265062291    -0.750741143290     0.482759029724    12.000000000000
         C           -0.793821237709    -0.000922643290    -0.417036170276    12.000000000000
         C            1.303867762291     1.570637356710    -0.170044170276    12.000000000000
         C            1.303882762291    -1.572459643290    -0.170044170276    12.000000000000
         C           -2.267762237709    -0.000921643290    -0.096669170276    12.000000000000
         H           -0.242795237709     1.204246356710     1.334250829724     1.007825032230
         H           -0.242781237709    -1.206084643290     1.334254829724     1.007825032230
         H           -0.558494237709    -0.000924643290    -1.482033170276     1.007825032230
         H            0.957391762291     2.583860356710    -0.398651170276     1.007825032230
         H            2.157124762291     1.652061356710     0.511846829724     1.007825032230
         H            1.661632762291     1.128013356710    -1.102946170276     1.007825032230
         H            2.157176762291    -1.653804643290     0.511808829724     1.007825032230
         H            0.957440762291    -2.585711643290    -0.398572170276     1.007825032230
         H            1.661580762291    -1.129878643290    -1.102993170276     1.007825032230
         H           -2.764466237709    -0.887426643290    -0.505255170276     1.007825032230
         H           -2.421488237709    -0.000959643290     0.987241829724     1.007825032230
         H           -2.764450237709     0.885623356710    -0.505191170276     1.007825032230

  Basis Set: AUG-CC-PVTZ
    Blend: AUG-CC-PVTZ
  Basis Set: (AUG-CC-PVTZ AUX)
    Blend: AUG-CC-PVTZ-JKFIT
	 Reference Energy          =    -234.2467111583889050 [Eh]
	 Singles Energy            =      -0.0000000000000000 [Eh]
	 Same-Spin Energy          =      -0.2538977602278712 [Eh]
	 Opposite-Spin Energy      =      -0.9202357024192462 [Eh]
	 Correlation Energy        =      -1.1741334626471174 [Eh]
	 Total Energy              =    -235.4208446210360250 [Eh]

	 ================> DF-SCS-MP2 Energies <==================
	-----------------------------------------------------------
	 SCS Same-Spin Scale       =       0.3333333333333333 [-]
	 SCS Opposite-Spin Scale   =       1.2000000000000000 [-]
	 SCS Same-Spin Energy      =      -0.0846325867426237 [Eh]
	 SCS Opposite-Spin Energy  =      -1.1042828429030955 [Eh]
	 SCS Correlation Energy    =      -1.1889154296457192 [Eh]
	 SCS Total Energy          =    -235.4356265880346371 [Eh]
	-----------------------------------------------------------

  Dipole Moment: [D]
     X:     0.0019      Y:     0.0221      Z:     0.0020     Total:     0.0223

*** Psi4 exiting successfully. Buy a developer a beer!
