                               Psi4 1.4a3.dev225

  ==> Input File <==

--------------------------------------------------------------------------
#psi4
#
memory 32 gb

molecule  {
0 1
  C        0.2253816     0.7398720     0.4218265
  C        0.1866490    -0.7562500     0.4534210
  C       -0.7958940    -0.0000060    -0.4032040
  C        1.3017950     1.5715540    -0.1562120
  C        1.3018100    -1.5715430    -0.1562120
  C       -2.2698350    -0.0000050    -0.0828370
  H       -0.2448680     1.2051630     1.3480830
  H       -0.2448540    -1.2051680     1.3480870
  H       -0.5605670    -0.0000080    -1.4682010
  H        0.9553190     2.5847770    -0.3848190
  H        2.1550520     1.6529780     0.5256790
  H        1.6595600     1.1289300    -1.0891140
  H        2.1551040    -1.6528880     0.5256410
  H        0.9553680    -2.5847950    -0.3847400
  H        1.6595080    -1.1289620    -1.0891610
  H       -2.7665390    -0.8865100    -0.4914230
  H       -2.4235610    -0.0000430     1.0010740
  H       -2.7665230     0.8865400    -0.4913590
units angstrom
no_reorient  #important for SAPT in psi4, default
symmetry c1  #important for SAPT in psi4, default
}

set PROPERTIES_ORIGIN ["COM"]
properties('MP2/aug-cc-pvtz', properties = ['dipole'])
--------------------------------------------------------------------------

    Molecular point group: c1
  Charge       = 0
  Multiplicity = 1
  Basis Set: AUG-CC-PVTZ
    Blend: AUG-CC-PVTZ
  Basis Set: (AUG-CC-PVTZ AUX)
    Blend: AUG-CC-PVTZ-JKFIT

    Orbital Energies [Eh]
    ---------------------

    Doubly Occupied:

       1A    -11.222587     2A    -11.220661     3A    -11.218882
       4A    -11.213173     5A    -11.212154     6A    -11.212080
       7A     -1.154567     8A     -0.985984     9A     -0.978444
      10A     -0.910242    11A     -0.768348    12A     -0.740096
      13A     -0.642474    14A     -0.611764    15A     -0.571498
      16A     -0.569401    17A     -0.548780    18A     -0.538453
      19A     -0.531138    20A     -0.525525    21A     -0.483482
      22A     -0.469096    23A     -0.386033    24A     -0.378709

  @DF-RHF Final Energy:  -234.24486308666812

   => Energetics <=

    Nuclear Repulsion Energy =            246.6812488856172081
    One-Electron Energy =                -803.6650811334512809
    Two-Electron Energy =                 322.7389691611658691
    Total Energy =                       -234.2448630866681469
  Basis Set: (AUG-CC-PVTZ AUX)
    Blend: AUG-CC-PVTZ-RI
    Molecular point group: c1

    Geometry (in Angstrom), charge = 0, multiplicity = 1:

       Center              X                  Y                   Z               Mass
    ------------   -----------------  -----------------  -----------------  -----------------
         C            0.226142072107     0.742208933946     0.418662789575    12.000000000000
         C            0.187409472107    -0.753913066054     0.450257289575    12.000000000000
         C           -0.795133527893     0.002330933946    -0.406367710425    12.000000000000
         C            1.302555472107     1.573890933946    -0.159375710425    12.000000000000
         C            1.302570472107    -1.569206066054    -0.159375710425    12.000000000000
         C           -2.269074527893     0.002331933946    -0.086000710425    12.000000000000
         H           -0.244107527893     1.207499933946     1.344919289575     1.007825032230
         H           -0.244093527893    -1.202831066054     1.344923289575     1.007825032230
         H           -0.559806527893     0.002328933946    -1.471364710425     1.007825032230
         H            0.956079472107     2.587113933946    -0.387982710425     1.007825032230
         H            2.155812472107     1.655314933946     0.522515289575     1.007825032230
         H            1.660320472107     1.131266933946    -1.092277710425     1.007825032230
         H            2.155864472107    -1.650551066054     0.522477289575     1.007825032230
         H            0.956128472107    -2.582458066054    -0.387903710425     1.007825032230
         H            1.660268472107    -1.126625066054    -1.092324710425     1.007825032230
         H           -2.765778527893    -0.884173066054    -0.494586710425     1.007825032230
         H           -2.422800527893     0.002293933946     0.997910289575     1.007825032230
         H           -2.765762527893     0.888876933946    -0.494522710425     1.007825032230

  Basis Set: AUG-CC-PVTZ
    Blend: AUG-CC-PVTZ
  Basis Set: (AUG-CC-PVTZ AUX)
    Blend: AUG-CC-PVTZ-JKFIT
	 Reference Energy          =    -234.2448630866681185 [Eh]
	 Singles Energy            =      -0.0000000000000000 [Eh]
	 Same-Spin Energy          =      -0.2542715330868749 [Eh]
	 Opposite-Spin Energy      =      -0.9203932387403353 [Eh]
	 Correlation Energy        =      -1.1746647718272101 [Eh]
	 Total Energy              =    -235.4195278584953144 [Eh]

	 ================> DF-SCS-MP2 Energies <==================
	-----------------------------------------------------------
	 SCS Same-Spin Scale       =       0.3333333333333333 [-]
	 SCS Opposite-Spin Scale   =       1.2000000000000000 [-]
	 SCS Same-Spin Energy      =      -0.0847571776956250 [Eh]
	 SCS Opposite-Spin Energy  =      -1.1044718864884022 [Eh]
	 SCS Correlation Energy    =      -1.1892290641840271 [Eh]
	 SCS Total Energy          =    -235.4340921508521376 [Eh]
	-----------------------------------------------------------

  Dipole Moment: [D]
     X:     0.0071      Y:     0.0066      Z:    -0.0234     Total:     0.0253

*** Psi4 exiting successfully. Buy a developer a beer!
