                               Psi4 1.4a3.dev225

  ==> Input File <==

--------------------------------------------------------------------------
#psi4
#
memory 32 gb

molecule  {
0 1
  C        0.1866420     0.7562470     0.4534190
  C        0.1866490    -0.7562500     0.4534210
  C       -0.8198279     0.0166573    -0.3594263
  C        1.3017950     1.5715540    -0.1562120
  C        1.3018100    -1.5715430    -0.1562120
  C       -2.2698350    -0.0000050    -0.0828370
  H       -0.2448680     1.2051630     1.3480830
  H       -0.2448540    -1.2051680     1.3480870
  H       -0.5605670    -0.0000080    -1.4682010
  H        0.9553190     2.5847770    -0.3848190
  H        2.1550520     1.6529780     0.5256790
  H        1.6595600     1.1289300    -1.0891140
  H        2.1551040    -1.6528880     0.5256410
  H        0.9553680    -2.5847950    -0.3847400
  H        1.6595080    -1.1289620    -1.0891610
  H       -2.7665390    -0.8865100    -0.4914230
  H       -2.4235610    -0.0000430     1.0010740
  H       -2.7665230     0.8865400    -0.4913590
units angstrom
no_reorient  #important for SAPT in psi4, default
symmetry c1  #important for SAPT in psi4, default
}

set PROPERTIES_ORIGIN ["COM"]
properties('MP2/aug-cc-pvtz', properties = ['dipole'])
--------------------------------------------------------------------------

    Molecular point group: c1
  Charge       = 0
  Multiplicity = 1
  Basis Set: AUG-CC-PVTZ
    Blend: AUG-CC-PVTZ
  Basis Set: (AUG-CC-PVTZ AUX)
    Blend: AUG-CC-PVTZ-JKFIT

    Orbital Energies [Eh]
    ---------------------

    Doubly Occupied:

       1A    -11.221848     2A    -11.220483     3A    -11.219617
       4A    -11.213394     5A    -11.213138     6A    -11.211976
       7A     -1.154495     8A     -0.988644     9A     -0.975919
      10A     -0.911811    11A     -0.760725    12A     -0.747369
      13A     -0.643722    14A     -0.609483    15A     -0.572012
      16A     -0.569910    17A     -0.548794    18A     -0.534681
      19A     -0.534188    20A     -0.527498    21A     -0.476060
      22A     -0.474298    23A     -0.386601    24A     -0.379146

  @DF-RHF Final Energy:  -234.24485945463346

   => Energetics <=

    Nuclear Repulsion Energy =            246.5589979891183248
    One-Electron Energy =                -803.4160935644309802
    Two-Electron Energy =                 322.6122361206791993
    Total Energy =                       -234.2448594546334562
  Basis Set: (AUG-CC-PVTZ AUX)
    Blend: AUG-CC-PVTZ-RI
    Molecular point group: c1

    Geometry (in Angstrom), charge = 0, multiplicity = 1:

       Center              X                  Y                   Z               Mass
    ------------   -----------------  -----------------  -----------------  -----------------
         C            0.196345831811     0.753869446948     0.439500140916    12.000000000000
         C            0.196352831811    -0.758627553052     0.439502140916    12.000000000000
         C           -0.810124068189     0.014279746948    -0.373345159084    12.000000000000
         C            1.311498831811     1.569176446948    -0.170130859084    12.000000000000
         C            1.311513831811    -1.573920553052    -0.170130859084    12.000000000000
         C           -2.260131168189    -0.002382553052    -0.096755859084    12.000000000000
         H           -0.235164168189     1.202785446948     1.334164140916     1.007825032230
         H           -0.235150168189    -1.207545553052     1.334168140916     1.007825032230
         H           -0.550863168189    -0.002385553052    -1.482119859084     1.007825032230
         H            0.965022831811     2.582399446948    -0.398737859084     1.007825032230
         H            2.164755831811     1.650600446948     0.511760140916     1.007825032230
         H            1.669263831811     1.126552446948    -1.103032859084     1.007825032230
         H            2.164807831811    -1.655265553052     0.511722140916     1.007825032230
         H            0.965071831811    -2.587172553052    -0.398658859084     1.007825032230
         H            1.669211831811    -1.131339553052    -1.103079859084     1.007825032230
         H           -2.756835168189    -0.888887553052    -0.505341859084     1.007825032230
         H           -2.413857168189    -0.002420553052     0.987155140916     1.007825032230
         H           -2.756819168189     0.884162446948    -0.505277859084     1.007825032230

  Basis Set: AUG-CC-PVTZ
    Blend: AUG-CC-PVTZ
  Basis Set: (AUG-CC-PVTZ AUX)
    Blend: AUG-CC-PVTZ-JKFIT
	 Reference Energy          =    -234.2448594546334562 [Eh]
	 Singles Energy            =      -0.0000000000000000 [Eh]
	 Same-Spin Energy          =      -0.2543048320858372 [Eh]
	 Opposite-Spin Energy      =      -0.9203811466033417 [Eh]
	 Correlation Energy        =      -1.1746859786891788 [Eh]
	 Total Energy              =    -235.4195454333226394 [Eh]

	 ================> DF-SCS-MP2 Energies <==================
	-----------------------------------------------------------
	 SCS Same-Spin Scale       =       0.3333333333333333 [-]
	 SCS Opposite-Spin Scale   =       1.2000000000000000 [-]
	 SCS Same-Spin Energy      =      -0.0847682773619457 [Eh]
	 SCS Opposite-Spin Energy  =      -1.1044573759240099 [Eh]
	 SCS Correlation Energy    =      -1.1892256532859558 [Eh]
	 SCS Total Energy          =    -235.4340851079194010 [Eh]
	-----------------------------------------------------------

  Dipole Moment: [D]
     X:    -0.0226      Y:     0.0078      Z:     0.0016     Total:     0.0239

*** Psi4 exiting successfully. Buy a developer a beer!
