                               Psi4 1.4a3.dev225

  ==> Input File <==

--------------------------------------------------------------------------
#psi4
#
memory 32 gb

molecule  {
0 1
  C        0.1866420     0.7562470     0.4534190
  C        0.1866490    -0.7562500     0.4534210
  C       -0.7958940    -0.0000060    -0.4032040
  C        1.3105144     1.4972841    -0.2304791
  C        1.3018100    -1.5715430    -0.1562120
  C       -2.2698350    -0.0000050    -0.0828370
  H       -0.2448680     1.2051630     1.3480830
  H       -0.2448540    -1.2051680     1.3480870
  H       -0.5605670    -0.0000080    -1.4682010
  H        0.9553190     2.5847770    -0.3848190
  H        2.1550520     1.6529780     0.5256790
  H        1.6595600     1.1289300    -1.0891140
  H        2.1551040    -1.6528880     0.5256410
  H        0.9553680    -2.5847950    -0.3847400
  H        1.6595080    -1.1289620    -1.0891610
  H       -2.7665390    -0.8865100    -0.4914230
  H       -2.4235610    -0.0000430     1.0010740
  H       -2.7665230     0.8865400    -0.4913590
units angstrom
no_reorient  #important for SAPT in psi4, default
symmetry c1  #important for SAPT in psi4, default
}

set PROPERTIES_ORIGIN ["COM"]
properties('MP2/aug-cc-pvtz', properties = ['dipole'])
--------------------------------------------------------------------------

    Molecular point group: c1
  Charge       = 0
  Multiplicity = 1
  Basis Set: AUG-CC-PVTZ
    Blend: AUG-CC-PVTZ
  Basis Set: (AUG-CC-PVTZ AUX)
    Blend: AUG-CC-PVTZ-JKFIT

    Orbital Energies [Eh]
    ---------------------

    Doubly Occupied:

       1A    -11.222227     2A    -11.219598     3A    -11.218732
       4A    -11.214606     5A    -11.212901     6A    -11.212529
       7A     -1.152748     8A     -0.983464     9A     -0.975188
      10A     -0.908758    11A     -0.771645    12A     -0.748284
      13A     -0.641611    14A     -0.615967    15A     -0.574500
      16A     -0.561253    17A     -0.546669    18A     -0.540852
      19A     -0.527975    20A     -0.518036    21A     -0.486098
      22A     -0.480862    23A     -0.379521    24A     -0.377885

  @DF-RHF Final Energy:  -234.23537413506904

   => Energetics <=

    Nuclear Repulsion Energy =            246.7792600221179384
    One-Electron Energy =                -803.8454471565394215
    Two-Electron Energy =                 322.8308129993524744
    Total Energy =                       -234.2353741350690370
  Basis Set: (AUG-CC-PVTZ AUX)
    Blend: AUG-CC-PVTZ-RI
    Molecular point group: c1

    Geometry (in Angstrom), charge = 0, multiplicity = 1:

       Center              X                  Y                   Z               Mass
    ------------   -----------------  -----------------  -----------------  -----------------
         C            0.191686283399     0.766845398770     0.456344853713    12.000000000000
         C            0.191693283399    -0.745651601230     0.456346853713    12.000000000000
         C           -0.790849716601     0.010592398770    -0.400278146287    12.000000000000
         C            1.315558683399     1.507882498770    -0.227553246287    12.000000000000
         C            1.306854283399    -1.560944601230    -0.153286146287    12.000000000000
         C           -2.264790716601     0.010593398770    -0.079911146287    12.000000000000
         H           -0.239823716601     1.215761398770     1.351008853713     1.007825032230
         H           -0.239809716601    -1.194569601230     1.351012853713     1.007825032230
         H           -0.555522716601     0.010590398770    -1.465275146287     1.007825032230
         H            0.960363283399     2.595375398770    -0.381893146287     1.007825032230
         H            2.160096283399     1.663576398770     0.528604853713     1.007825032230
         H            1.664604283399     1.139528398770    -1.086188146287     1.007825032230
         H            2.160148283399    -1.642289601230     0.528566853713     1.007825032230
         H            0.960412283399    -2.574196601230    -0.381814146287     1.007825032230
         H            1.664552283399    -1.118363601230    -1.086235146287     1.007825032230
         H           -2.761494716601    -0.875911601230    -0.488497146287     1.007825032230
         H           -2.418516716601     0.010555398770     1.003999853713     1.007825032230
         H           -2.761478716601     0.897138398770    -0.488433146287     1.007825032230

  Basis Set: AUG-CC-PVTZ
    Blend: AUG-CC-PVTZ
  Basis Set: (AUG-CC-PVTZ AUX)
    Blend: AUG-CC-PVTZ-JKFIT
	 Reference Energy          =    -234.2353741350690370 [Eh]
	 Singles Energy            =      -0.0000000000000000 [Eh]
	 Same-Spin Energy          =      -0.2541811892683464 [Eh]
	 Opposite-Spin Energy      =      -0.9206350238714928 [Eh]
	 Correlation Energy        =      -1.1748162131398392 [Eh]
	 Total Energy              =    -235.4101903482088858 [Eh]

	 ================> DF-SCS-MP2 Energies <==================
	-----------------------------------------------------------
	 SCS Same-Spin Scale       =       0.3333333333333333 [-]
	 SCS Opposite-Spin Scale   =       1.2000000000000000 [-]
	 SCS Same-Spin Energy      =      -0.0847270630894488 [Eh]
	 SCS Opposite-Spin Energy  =      -1.1047620286457913 [Eh]
	 SCS Correlation Energy    =      -1.1894890917352401 [Eh]
	 SCS Total Energy          =    -235.4248632268042911 [Eh]
	-----------------------------------------------------------

  Dipole Moment: [D]
     X:    -0.0209      Y:    -0.0232      Z:    -0.0067     Total:     0.0319

*** Psi4 exiting successfully. Buy a developer a beer!
