                               Psi4 1.4a3.dev225

  ==> Input File <==

--------------------------------------------------------------------------
#psi4
#
memory 32 gb

molecule  {
0 1
  C        0.1866420     0.7562470     0.4534190
  C        0.1866490    -0.7562500     0.4534210
  C       -0.7958940    -0.0000060    -0.4032040
  C        1.3756488     1.6255497    -0.1965863
  C        1.3018100    -1.5715430    -0.1562120
  C       -2.2698350    -0.0000050    -0.0828370
  H       -0.2448680     1.2051630     1.3480830
  H       -0.2448540    -1.2051680     1.3480870
  H       -0.5605670    -0.0000080    -1.4682010
  H        0.9553190     2.5847770    -0.3848190
  H        2.1550520     1.6529780     0.5256790
  H        1.6595600     1.1289300    -1.0891140
  H        2.1551040    -1.6528880     0.5256410
  H        0.9553680    -2.5847950    -0.3847400
  H        1.6595080    -1.1289620    -1.0891610
  H       -2.7665390    -0.8865100    -0.4914230
  H       -2.4235610    -0.0000430     1.0010740
  H       -2.7665230     0.8865400    -0.4913590
units angstrom
no_reorient  #important for SAPT in psi4, default
symmetry c1  #important for SAPT in psi4, default
}

set PROPERTIES_ORIGIN ["COM"]
properties('MP2/aug-cc-pvtz', properties = ['dipole'])
--------------------------------------------------------------------------

    Molecular point group: c1
  Charge       = 0
  Multiplicity = 1
  Basis Set: AUG-CC-PVTZ
    Blend: AUG-CC-PVTZ
  Basis Set: (AUG-CC-PVTZ AUX)
    Blend: AUG-CC-PVTZ-JKFIT

    Orbital Energies [Eh]
    ---------------------

    Doubly Occupied:

       1A    -11.223981     2A    -11.220012     3A    -11.218926
       4A    -11.212534     5A    -11.212071     6A    -11.210076
       7A     -1.146600     8A     -0.981291     9A     -0.969811
      10A     -0.910752    11A     -0.768211    12A     -0.744015
      13A     -0.638441    14A     -0.604809    15A     -0.576836
      16A     -0.570392    17A     -0.550760    18A     -0.545380
      19A     -0.532508    20A     -0.523624    21A     -0.482018
      22A     -0.459220    23A     -0.385513    24A     -0.380079

  @DF-RHF Final Energy:  -234.24121359513671

   => Energetics <=

    Nuclear Repulsion Energy =            244.9075319883622512
    One-Electron Energy =                -800.1617718790834033
    Two-Electron Energy =                 321.0130262955843818
    Total Energy =                       -234.2412135951367418
  Basis Set: (AUG-CC-PVTZ AUX)
    Blend: AUG-CC-PVTZ-RI
    Molecular point group: c1

    Geometry (in Angstrom), charge = 0, multiplicity = 1:

       Center              X                  Y                   Z               Mass
    ------------   -----------------  -----------------  -----------------  -----------------
         C            0.182391759106     0.748542202071     0.451508431593    12.000000000000
         C            0.182398759106    -0.763954797929     0.451510431593    12.000000000000
         C           -0.800144240894    -0.007710797929    -0.405114568407    12.000000000000
         C            1.371398559106     1.617844902071    -0.198496868407    12.000000000000
         C            1.297559759106    -1.579247797929    -0.158122568407    12.000000000000
         C           -2.274085240894    -0.007709797929    -0.084747568407    12.000000000000
         H           -0.249118240894     1.197458202071     1.346172431593     1.007825032230
         H           -0.249104240894    -1.212872797929     1.346176431593     1.007825032230
         H           -0.564817240894    -0.007712797929    -1.470111568407     1.007825032230
         H            0.951068759106     2.577072202071    -0.386729568407     1.007825032230
         H            2.150801759106     1.645273202071     0.523768431593     1.007825032230
         H            1.655309759106     1.121225202071    -1.091024568407     1.007825032230
         H            2.150853759106    -1.660592797929     0.523730431593     1.007825032230
         H            0.951117759106    -2.592499797929    -0.386650568407     1.007825032230
         H            1.655257759106    -1.136666797929    -1.091071568407     1.007825032230
         H           -2.770789240894    -0.894214797929    -0.493333568407     1.007825032230
         H           -2.427811240894    -0.007747797929     0.999163431593     1.007825032230
         H           -2.770773240894     0.878835202071    -0.493269568407     1.007825032230

  Basis Set: AUG-CC-PVTZ
    Blend: AUG-CC-PVTZ
  Basis Set: (AUG-CC-PVTZ AUX)
    Blend: AUG-CC-PVTZ-JKFIT
	 Reference Energy          =    -234.2412135951367134 [Eh]
	 Singles Energy            =      -0.0000000000000000 [Eh]
	 Same-Spin Energy          =      -0.2535273739442178 [Eh]
	 Opposite-Spin Energy      =      -0.9199479329276584 [Eh]
	 Correlation Energy        =      -1.1734753068718762 [Eh]
	 Total Energy              =    -235.4146889020085780 [Eh]

	 ================> DF-SCS-MP2 Energies <==================
	-----------------------------------------------------------
	 SCS Same-Spin Scale       =       0.3333333333333333 [-]
	 SCS Opposite-Spin Scale   =       1.2000000000000000 [-]
	 SCS Same-Spin Energy      =      -0.0845091246480726 [Eh]
	 SCS Opposite-Spin Energy  =      -1.1039375195131900 [Eh]
	 SCS Correlation Energy    =      -1.1884466441612624 [Eh]
	 SCS Total Energy          =    -235.4296602392979878 [Eh]
	-----------------------------------------------------------

  Dipole Moment: [D]
     X:     0.0035      Y:     0.0100      Z:    -0.0000     Total:     0.0106

*** Psi4 exiting successfully. Buy a developer a beer!
