                               Psi4 1.4a3.dev225

  ==> Input File <==

--------------------------------------------------------------------------
#psi4
#
memory 32 gb

molecule  {
0 1
  C        0.1866420     0.7562470     0.4534190
  C        0.1866490    -0.7562500     0.4534210
  C       -0.7958940    -0.0000060    -0.4032040
  C        1.3017950     1.5715540    -0.1562120
  C        1.3018100    -1.5715430    -0.1562120
  C       -2.2698350    -0.0000050    -0.0828370
  H       -0.2448680     1.2051630     1.3480830
  H       -0.2448540    -1.2051680     1.3480870
  H       -0.5605670    -0.0000080    -1.4682010
  H        0.9553190     2.5847770    -0.3848190
  H        2.1550520     1.6529780     0.5256790
  H        1.6431909     1.1491818    -1.0464301
  H        2.1551040    -1.6528880     0.5256410
  H        0.9553680    -2.5847950    -0.3847400
  H        1.6595080    -1.1289620    -1.0891610
  H       -2.7665390    -0.8865100    -0.4914230
  H       -2.4235610    -0.0000430     1.0010740
  H       -2.7665230     0.8865400    -0.4913590
units angstrom
no_reorient  #important for SAPT in psi4, default
symmetry c1  #important for SAPT in psi4, default
}

set PROPERTIES_ORIGIN ["COM"]
properties('MP2/aug-cc-pvtz', properties = ['dipole'])
--------------------------------------------------------------------------

    Molecular point group: c1
  Charge       = 0
  Multiplicity = 1
  Basis Set: AUG-CC-PVTZ
    Blend: AUG-CC-PVTZ
  Basis Set: (AUG-CC-PVTZ AUX)
    Blend: AUG-CC-PVTZ-JKFIT

    Orbital Energies [Eh]
    ---------------------

    Doubly Occupied:

       1A    -11.220729     2A    -11.219806     3A    -11.219291
       4A    -11.212784     5A    -11.212454     6A    -11.206317
       7A     -1.151251     8A     -0.983930     9A     -0.977452
      10A     -0.909811    11A     -0.770191    12A     -0.747139
      13A     -0.641118    14A     -0.611804    15A     -0.571492
      16A     -0.568320    17A     -0.547941    18A     -0.537110
      19A     -0.530481    20A     -0.528320    21A     -0.484016
      22A     -0.475342    23A     -0.382185    24A     -0.381945

  @DF-RHF Final Energy:  -234.24754450453005

   => Energetics <=

    Nuclear Repulsion Energy =            246.4879325018178804
    One-Electron Energy =                -803.2884943602524572
    Two-Electron Energy =                 322.5530173539044654
    Total Energy =                       -234.2475445045300830
  Basis Set: (AUG-CC-PVTZ AUX)
    Blend: AUG-CC-PVTZ-RI
    Molecular point group: c1

    Geometry (in Angstrom), charge = 0, multiplicity = 1:

       Center              X                  Y                   Z               Mass
    ------------   -----------------  -----------------  -----------------  -----------------
         C            0.193126696891     0.756004552207     0.445235568752    12.000000000000
         C            0.193133696891    -0.756492447793     0.445237568752    12.000000000000
         C           -0.789409303109    -0.000248447793    -0.411387431248    12.000000000000
         C            1.308279696891     1.571311552207    -0.164395431248    12.000000000000
         C            1.308294696891    -1.571785447793    -0.164395431248    12.000000000000
         C           -2.263350303109    -0.000247447793    -0.091020431248    12.000000000000
         H           -0.238383303109     1.204920552207     1.339899568752     1.007825032230
         H           -0.238369303109    -1.205410447793     1.339903568752     1.007825032230
         H           -0.554082303109    -0.000250447793    -1.476384431248     1.007825032230
         H            0.961803696891     2.584534552207    -0.393002431248     1.007825032230
         H            2.161536696891     1.652735552207     0.517495568752     1.007825032230
         H            1.649675596891     1.148939352207    -1.054613531248     1.007825032230
         H            2.161588696891    -1.653130447793     0.517457568752     1.007825032230
         H            0.961852696891    -2.585037447793    -0.392923431248     1.007825032230
         H            1.665992696891    -1.129204447793    -1.097344431248     1.007825032230
         H           -2.760054303109    -0.886752447793    -0.499606431248     1.007825032230
         H           -2.417076303109    -0.000285447793     0.992890568752     1.007825032230
         H           -2.760038303109     0.886297552207    -0.499542431248     1.007825032230

  Basis Set: AUG-CC-PVTZ
    Blend: AUG-CC-PVTZ
  Basis Set: (AUG-CC-PVTZ AUX)
    Blend: AUG-CC-PVTZ-JKFIT
	 Reference Energy          =    -234.2475445045300546 [Eh]
	 Singles Energy            =      -0.0000000000000000 [Eh]
	 Same-Spin Energy          =      -0.2538846837736035 [Eh]
	 Opposite-Spin Energy      =      -0.9196765843712845 [Eh]
	 Correlation Energy        =      -1.1735612681448879 [Eh]
	 Total Energy              =    -235.4211057726749345 [Eh]

	 ================> DF-SCS-MP2 Energies <==================
	-----------------------------------------------------------
	 SCS Same-Spin Scale       =       0.3333333333333333 [-]
	 SCS Opposite-Spin Scale   =       1.2000000000000000 [-]
	 SCS Same-Spin Energy      =      -0.0846282279245345 [Eh]
	 SCS Opposite-Spin Energy  =      -1.1036119012455414 [Eh]
	 SCS Correlation Energy    =      -1.1882401291700759 [Eh]
	 SCS Total Energy          =    -235.4357846337001376 [Eh]
	-----------------------------------------------------------

  Dipole Moment: [D]
     X:     0.0088      Y:    -0.0062      Z:    -0.0316     Total:     0.0334

*** Psi4 exiting successfully. Buy a developer a beer!
