                               Psi4 1.4a3.dev225

  ==> Input File <==

--------------------------------------------------------------------------
#psi4
#
memory 32 gb

molecule  {
0 1
  C        0.1866420     0.7562470     0.4534190
  C        0.1866490    -0.7562500     0.4534210
  C       -0.7170336    -0.0554372    -0.5280683
  C        1.3017950     1.5715540    -0.1562120
  C        1.3018100    -1.5715430    -0.1562120
  C       -2.2698350    -0.0000050    -0.0828370
  H       -0.2448680     1.2051630     1.3480830
  H       -0.2448540    -1.2051680     1.3480870
  H       -0.5605670    -0.0000080    -1.4682010
  H        0.9553190     2.5847770    -0.3848190
  H        2.1550520     1.6529780     0.5256790
  H        1.6595600     1.1289300    -1.0891140
  H        2.1551040    -1.6528880     0.5256410
  H        0.9553680    -2.5847950    -0.3847400
  H        1.6595080    -1.1289620    -1.0891610
  H       -2.7665390    -0.8865100    -0.4914230
  H       -2.4235610    -0.0000430     1.0010740
  H       -2.7665230     0.8865400    -0.4913590
units angstrom
no_reorient  #important for SAPT in psi4, default
symmetry c1  #important for SAPT in psi4, default
}

set PROPERTIES_ORIGIN ["COM"]
properties('MP2/aug-cc-pvtz', properties = ['dipole'])
--------------------------------------------------------------------------

    Molecular point group: c1
  Charge       = 0
  Multiplicity = 1
  Basis Set: AUG-CC-PVTZ
    Blend: AUG-CC-PVTZ
  Basis Set: (AUG-CC-PVTZ AUX)
    Blend: AUG-CC-PVTZ-JKFIT

    Orbital Energies [Eh]
    ---------------------

    Doubly Occupied:

       1A    -11.225238     2A    -11.222552     3A    -11.216655
       4A    -11.214903     5A    -11.211566     6A    -11.210981
       7A     -1.143392     8A     -0.975738     9A     -0.968185
      10A     -0.898570    11A     -0.803732    12A     -0.742362
      13A     -0.642458    14A     -0.611844    15A     -0.567889
      16A     -0.565156    17A     -0.542606    18A     -0.534546
      19A     -0.531002    20A     -0.527514    21A     -0.482476
      22A     -0.474409    23A     -0.388155    24A     -0.365703

  @DF-RHF Final Energy:  -234.22013083276860

   => Energetics <=

    Nuclear Repulsion Energy =            245.5196525503322391
    One-Electron Energy =                -801.3443063920923350
    Two-Electron Energy =                 321.6045230089914639
    Total Energy =                       -234.2201308327686320
  Basis Set: (AUG-CC-PVTZ AUX)
    Blend: AUG-CC-PVTZ-RI
    Molecular point group: c1

    Geometry (in Angstrom), charge = 0, multiplicity = 1:

       Center              X                  Y                   Z               Mass
    ------------   -----------------  -----------------  -----------------  -----------------
         C            0.181677329169     0.764157160991     0.463564954068    12.000000000000
         C            0.181684329169    -0.748339839009     0.463566954068    12.000000000000
         C           -0.721998270831    -0.047527039009    -0.517922345932    12.000000000000
         C            1.296830329169     1.579464160991    -0.146066045932    12.000000000000
         C            1.296845329169    -1.563632839009    -0.146066045932    12.000000000000
         C           -2.274799670831     0.007905160991    -0.072691045932    12.000000000000
         H           -0.249832670831     1.213073160991     1.358228954068     1.007825032230
         H           -0.249818670831    -1.197257839009     1.358232954068     1.007825032230
         H           -0.565531670831     0.007902160991    -1.458055045932     1.007825032230
         H            0.950354329169     2.592687160991    -0.374673045932     1.007825032230
         H            2.150087329169     1.660888160991     0.535824954068     1.007825032230
         H            1.654595329169     1.136840160991    -1.078968045932     1.007825032230
         H            2.150139329169    -1.644977839009     0.535786954068     1.007825032230
         H            0.950403329169    -2.576884839009    -0.374594045932     1.007825032230
         H            1.654543329169    -1.121051839009    -1.079015045932     1.007825032230
         H           -2.771503670831    -0.878599839009    -0.481277045932     1.007825032230
         H           -2.428525670831     0.007867160991     1.011219954068     1.007825032230
         H           -2.771487670831     0.894450160991    -0.481213045932     1.007825032230

  Basis Set: AUG-CC-PVTZ
    Blend: AUG-CC-PVTZ
  Basis Set: (AUG-CC-PVTZ AUX)
    Blend: AUG-CC-PVTZ-JKFIT
	 Reference Energy          =    -234.2201308327686036 [Eh]
	 Singles Energy            =      -0.0000000000000000 [Eh]
	 Same-Spin Energy          =      -0.2535667735240538 [Eh]
	 Opposite-Spin Energy      =      -0.9211033839868247 [Eh]
	 Correlation Energy        =      -1.1746701575108784 [Eh]
	 Total Energy              =    -235.3948009902794922 [Eh]

	 ================> DF-SCS-MP2 Energies <==================
	-----------------------------------------------------------
	 SCS Same-Spin Scale       =       0.3333333333333333 [-]
	 SCS Opposite-Spin Scale   =       1.2000000000000000 [-]
	 SCS Same-Spin Energy      =      -0.0845222578413513 [Eh]
	 SCS Opposite-Spin Energy  =      -1.1053240607841897 [Eh]
	 SCS Correlation Energy    =      -1.1898463186255410 [Eh]
	 SCS Total Energy          =    -235.4099771513941448 [Eh]
	-----------------------------------------------------------

  Dipole Moment: [D]
     X:     0.0627      Y:    -0.0161      Z:     0.0174     Total:     0.0670

*** Psi4 exiting successfully. Buy a developer a beer!
