                               Psi4 1.4a3.dev225

  ==> Input File <==

--------------------------------------------------------------------------
#psi4
#
memory 32 gb

molecule  {
0 1
  C        0.1866420     0.7562470     0.4534190
  C        0.1866490    -0.7562500     0.4534210
  C       -0.7834762    -0.0086845    -0.4247048
  C        1.3017950     1.5715540    -0.1562120
  C        1.3018100    -1.5715430    -0.1562120
  C       -2.2698350    -0.0000050    -0.0828370
  H       -0.2448680     1.2051630     1.3480830
  H       -0.2448540    -1.2051680     1.3480870
  H       -0.5605670    -0.0000080    -1.4682010
  H        0.9553190     2.5847770    -0.3848190
  H        2.1550520     1.6529780     0.5256790
  H        1.6595600     1.1289300    -1.0891140
  H        2.1551040    -1.6528880     0.5256410
  H        0.9553680    -2.5847950    -0.3847400
  H        1.6595080    -1.1289620    -1.0891610
  H       -2.7665390    -0.8865100    -0.4914230
  H       -2.4235610    -0.0000430     1.0010740
  H       -2.7665230     0.8865400    -0.4913590
units angstrom
no_reorient  #important for SAPT in psi4, default
symmetry c1  #important for SAPT in psi4, default
}

set PROPERTIES_ORIGIN ["COM"]
properties('MP2/aug-cc-pvtz', properties = ['dipole'])
--------------------------------------------------------------------------

    Molecular point group: c1
  Charge       = 0
  Multiplicity = 1
  Basis Set: AUG-CC-PVTZ
    Blend: AUG-CC-PVTZ
  Basis Set: (AUG-CC-PVTZ AUX)
    Blend: AUG-CC-PVTZ-JKFIT

    Orbital Energies [Eh]
    ---------------------

    Doubly Occupied:

       1A    -11.221263     2A    -11.220418     3A    -11.218644
       4A    -11.212876     5A    -11.212347     6A    -11.212231
       7A     -1.149669     8A     -0.980074     9A     -0.975576
      10A     -0.906476    11A     -0.774847    12A     -0.744884
      13A     -0.639793    14A     -0.611341    15A     -0.569253
      16A     -0.568064    17A     -0.546631    18A     -0.534430
      19A     -0.528189    20A     -0.527381    21A     -0.486714
      22A     -0.473760    23A     -0.383563    24A     -0.379653

  @DF-RHF Final Energy:  -234.24803652798431

   => Energetics <=

    Nuclear Repulsion Energy =            246.1573171069602211
    One-Electron Energy =                -802.6545484699423696
    Two-Electron Energy =                 322.2491948349978088
    Total Energy =                       -234.2480365279843113
  Basis Set: (AUG-CC-PVTZ AUX)
    Blend: AUG-CC-PVTZ-RI
    Molecular point group: c1

    Geometry (in Angstrom), charge = 0, multiplicity = 1:

       Center              X                  Y                   Z               Mass
    ------------   -----------------  -----------------  -----------------  -----------------
         C            0.191158530496     0.757485661662     0.448815227936    12.000000000000
         C            0.191165530496    -0.755011338338     0.448817227936    12.000000000000
         C           -0.778959669504    -0.007445838338    -0.429308572064    12.000000000000
         C            1.306311530496     1.572792661662    -0.160815772064    12.000000000000
         C            1.306326530496    -1.570304338338    -0.160815772064    12.000000000000
         C           -2.265318469504     0.001233661662    -0.087440772064    12.000000000000
         H           -0.240351469504     1.206401661662     1.343479227936     1.007825032230
         H           -0.240337469504    -1.203929338338     1.343483227936     1.007825032230
         H           -0.556050469504     0.001230661662    -1.472804772064     1.007825032230
         H            0.959835530496     2.586015661662    -0.389422772064     1.007825032230
         H            2.159568530496     1.654216661662     0.521075227936     1.007825032230
         H            1.664076530496     1.130168661662    -1.093717772064     1.007825032230
         H            2.159620530496    -1.651649338338     0.521037227936     1.007825032230
         H            0.959884530496    -2.583556338338    -0.389343772064     1.007825032230
         H            1.664024530496    -1.127723338338    -1.093764772064     1.007825032230
         H           -2.762022469504    -0.885271338338    -0.496026772064     1.007825032230
         H           -2.419044469504     0.001195661662     0.996470227936     1.007825032230
         H           -2.762006469504     0.887778661662    -0.495962772064     1.007825032230

  Basis Set: AUG-CC-PVTZ
    Blend: AUG-CC-PVTZ
  Basis Set: (AUG-CC-PVTZ AUX)
    Blend: AUG-CC-PVTZ-JKFIT
	 Reference Energy          =    -234.2480365279843113 [Eh]
	 Singles Energy            =      -0.0000000000000000 [Eh]
	 Same-Spin Energy          =      -0.2537595424166526 [Eh]
	 Opposite-Spin Energy      =      -0.9199249066577382 [Eh]
	 Correlation Energy        =      -1.1736844490743907 [Eh]
	 Total Energy              =    -235.4217209770586976 [Eh]

	 ================> DF-SCS-MP2 Energies <==================
	-----------------------------------------------------------
	 SCS Same-Spin Scale       =       0.3333333333333333 [-]
	 SCS Opposite-Spin Scale   =       1.2000000000000000 [-]
	 SCS Same-Spin Energy      =      -0.0845865141388842 [Eh]
	 SCS Opposite-Spin Energy  =      -1.1039098879892857 [Eh]
	 SCS Correlation Energy    =      -1.1884964021281699 [Eh]
	 SCS Total Energy          =    -235.4365329301124916 [Eh]
	-----------------------------------------------------------

  Dipole Moment: [D]
     X:     0.0040      Y:    -0.0035      Z:    -0.0103     Total:     0.0116

*** Psi4 exiting successfully. Buy a developer a beer!
