                               Psi4 1.4a3.dev225

  ==> Input File <==

--------------------------------------------------------------------------
#psi4
#
memory 32 gb

molecule  {
0 1
  C        0.1866420     0.7562470     0.4534190
  C        0.1866490    -0.7562500     0.4534210
  C       -0.7958940    -0.0000060    -0.4032040
  C        1.3017950     1.5715540    -0.1562120
  C        1.3165809    -1.5823420    -0.1642869
  C       -2.2698350    -0.0000050    -0.0828370
  H       -0.2448680     1.2051630     1.3480830
  H       -0.2448540    -1.2051680     1.3480870
  H       -0.5605670    -0.0000080    -1.4682010
  H        0.9553190     2.5847770    -0.3848190
  H        2.1550520     1.6529780     0.5256790
  H        1.6595600     1.1289300    -1.0891140
  H        2.1551040    -1.6528880     0.5256410
  H        0.9553680    -2.5847950    -0.3847400
  H        1.6595080    -1.1289620    -1.0891610
  H       -2.7665390    -0.8865100    -0.4914230
  H       -2.4235610    -0.0000430     1.0010740
  H       -2.7665230     0.8865400    -0.4913590
units angstrom
no_reorient  #important for SAPT in psi4, default
symmetry c1  #important for SAPT in psi4, default
}

set PROPERTIES_ORIGIN ["COM"]
properties('MP2/aug-cc-pvtz', properties = ['dipole'])
--------------------------------------------------------------------------

    Molecular point group: c1
  Charge       = 0
  Multiplicity = 1
  Basis Set: AUG-CC-PVTZ
    Blend: AUG-CC-PVTZ
  Basis Set: (AUG-CC-PVTZ AUX)
    Blend: AUG-CC-PVTZ-JKFIT

    Orbital Energies [Eh]
    ---------------------

    Doubly Occupied:

       1A    -11.221436     2A    -11.220265     3A    -11.219280
       4A    -11.212564     5A    -11.212415     6A    -11.211846
       7A     -1.150110     8A     -0.982329     9A     -0.974388
      10A     -0.908714    11A     -0.769476    12A     -0.745312
      13A     -0.640186    14A     -0.609307    15A     -0.570654
      16A     -0.569117    17A     -0.547915    18A     -0.536097
      19A     -0.530593    20A     -0.527181    21A     -0.483377
      22A     -0.471867    23A     -0.383084    24A     -0.381820

  @DF-RHF Final Energy:  -234.24837431853200

   => Energetics <=

    Nuclear Repulsion Energy =            246.0069624783781705
    One-Electron Energy =                -802.3520084511220603
    Two-Electron Energy =                 322.0966716542119457
    Total Energy =                       -234.2483743185320009
  Basis Set: (AUG-CC-PVTZ AUX)
    Blend: AUG-CC-PVTZ-RI
    Molecular point group: c1

    Geometry (in Angstrom), charge = 0, multiplicity = 1:

       Center              X                  Y                   Z               Mass
    ------------   -----------------  -----------------  -----------------  -----------------
         C            0.190822748711     0.757788251980     0.446899383871    12.000000000000
         C            0.190829748711    -0.754708748020     0.446901383871    12.000000000000
         C           -0.791713251289     0.001535251980    -0.409723616129    12.000000000000
         C            1.305975748711     1.573095251980    -0.162731616129    12.000000000000
         C            1.320761648711    -1.580800748020    -0.170806516129    12.000000000000
         C           -2.265654251289     0.001536251980    -0.089356616129    12.000000000000
         H           -0.240687251289     1.206704251980     1.341563383871     1.007825032230
         H           -0.240673251289    -1.203626748020     1.341567383871     1.007825032230
         H           -0.556386251289     0.001533251980    -1.474720616129     1.007825032230
         H            0.959499748711     2.586318251980    -0.391338616129     1.007825032230
         H            2.159232748711     1.654519251980     0.519159383871     1.007825032230
         H            1.663740748711     1.130471251980    -1.095633616129     1.007825032230
         H            2.159284748711    -1.651346748020     0.519121383871     1.007825032230
         H            0.959548748711    -2.583253748020    -0.391259616129     1.007825032230
         H            1.663688748711    -1.127420748020    -1.095680616129     1.007825032230
         H           -2.762358251289    -0.884968748020    -0.497942616129     1.007825032230
         H           -2.419380251289     0.001498251980     0.994554383871     1.007825032230
         H           -2.762342251289     0.888081251980    -0.497878616129     1.007825032230

  Basis Set: AUG-CC-PVTZ
    Blend: AUG-CC-PVTZ
  Basis Set: (AUG-CC-PVTZ AUX)
    Blend: AUG-CC-PVTZ-JKFIT
	 Reference Energy          =    -234.2483743185320009 [Eh]
	 Singles Energy            =      -0.0000000000000000 [Eh]
	 Same-Spin Energy          =      -0.2537730133843233 [Eh]
	 Opposite-Spin Energy      =      -0.9198737228067314 [Eh]
	 Correlation Energy        =      -1.1736467361910548 [Eh]
	 Total Energy              =    -235.4220210547230465 [Eh]

	 ================> DF-SCS-MP2 Energies <==================
	-----------------------------------------------------------
	 SCS Same-Spin Scale       =       0.3333333333333333 [-]
	 SCS Opposite-Spin Scale   =       1.2000000000000000 [-]
	 SCS Same-Spin Energy      =      -0.0845910044614411 [Eh]
	 SCS Opposite-Spin Energy  =      -1.1038484673680777 [Eh]
	 SCS Correlation Energy    =      -1.1884394718295188 [Eh]
	 SCS Total Energy          =    -235.4368137903615263 [Eh]
	-----------------------------------------------------------

  Dipole Moment: [D]
     X:    -0.0008      Y:    -0.0046      Z:    -0.0078     Total:     0.0091

*** Psi4 exiting successfully. Buy a developer a beer!
