                               Psi4 1.4a3.dev225

  ==> Input File <==

--------------------------------------------------------------------------
#psi4
#
memory 32 gb

molecule  {
0 1
  C        0.1866420     0.7562470     0.4534190
  C        0.1866490    -0.7562500     0.4534210
  C       -0.7958940    -0.0000060    -0.4032040
  C        1.3017950     1.5715540    -0.1562120
  C        1.3018100    -1.5715430    -0.1562120
  C       -2.2698350    -0.0000050    -0.0828370
  H       -0.2448680     1.2051630     1.3480830
  H       -0.2448540    -1.2051680     1.3480870
  H       -0.5605670    -0.0000080    -1.4682010
  H        0.9553190     2.5847770    -0.3848190
  H        2.1550520     1.6529780     0.5256790
  H        1.6759291     1.1086782    -1.1317979
  H        2.1551040    -1.6528880     0.5256410
  H        0.9553680    -2.5847950    -0.3847400
  H        1.6595080    -1.1289620    -1.0891610
  H       -2.7665390    -0.8865100    -0.4914230
  H       -2.4235610    -0.0000430     1.0010740
  H       -2.7665230     0.8865400    -0.4913590
units angstrom
no_reorient  #important for SAPT in psi4, default
symmetry c1  #important for SAPT in psi4, default
}

set PROPERTIES_ORIGIN ["COM"]
properties('MP2/aug-cc-pvtz', properties = ['dipole'])
--------------------------------------------------------------------------

    Molecular point group: c1
  Charge       = 0
  Multiplicity = 1
  Basis Set: AUG-CC-PVTZ
    Blend: AUG-CC-PVTZ
  Basis Set: (AUG-CC-PVTZ AUX)
    Blend: AUG-CC-PVTZ-JKFIT

    Orbital Energies [Eh]
    ---------------------

    Doubly Occupied:

       1A    -11.221368     2A    -11.220463     3A    -11.219518
       4A    -11.218686     5A    -11.212619     6A    -11.212371
       7A     -1.151196     8A     -0.982299     9A     -0.973940
      10A     -0.906804    11A     -0.769607    12A     -0.744354
      13A     -0.640549    14A     -0.609898    15A     -0.569426
      16A     -0.568588    17A     -0.547151    18A     -0.533388
      19A     -0.529290    20A     -0.523946    21A     -0.484245
      22A     -0.471917    23A     -0.382635    24A     -0.381966

  @DF-RHF Final Energy:  -234.24638369382927

   => Energetics <=

    Nuclear Repulsion Energy =            246.1053258440452112
    One-Electron Energy =                -802.5509698581377052
    Two-Electron Energy =                 322.1992603202632495
    Total Energy =                       -234.2463836938292729
  Basis Set: (AUG-CC-PVTZ AUX)
    Blend: AUG-CC-PVTZ-RI
    Molecular point group: c1

    Geometry (in Angstrom), charge = 0, multiplicity = 1:

       Center              X                  Y                   Z               Mass
    ------------   -----------------  -----------------  -----------------  -----------------
         C            0.192734345278     0.756489968412     0.446258660859    12.000000000000
         C            0.192741345278    -0.756007031588     0.446260660859    12.000000000000
         C           -0.789801654722     0.000236968412    -0.410364339141    12.000000000000
         C            1.307887345278     1.571796968412    -0.163372339141    12.000000000000
         C            1.307902345278    -1.571300031588    -0.163372339141    12.000000000000
         C           -2.263742654722     0.000237968412    -0.089997339141    12.000000000000
         H           -0.238775654722     1.205405968412     1.340922660859     1.007825032230
         H           -0.238761654722    -1.204925031588     1.340926660859     1.007825032230
         H           -0.554474654722     0.000234968412    -1.475361339141     1.007825032230
         H            0.961411345278     2.585019968412    -0.391979339141     1.007825032230
         H            2.161144345278     1.653220968412     0.518518660859     1.007825032230
         H            1.682021445278     1.108921168412    -1.138958239141     1.007825032230
         H            2.161196345278    -1.652645031588     0.518480660859     1.007825032230
         H            0.961460345278    -2.584552031588    -0.391900339141     1.007825032230
         H            1.665600345278    -1.128719031588    -1.096321339141     1.007825032230
         H           -2.760446654722    -0.886267031588    -0.498583339141     1.007825032230
         H           -2.417468654722     0.000199968412     0.993913660859     1.007825032230
         H           -2.760430654722     0.886782968412    -0.498519339141     1.007825032230

  Basis Set: AUG-CC-PVTZ
    Blend: AUG-CC-PVTZ
  Basis Set: (AUG-CC-PVTZ AUX)
    Blend: AUG-CC-PVTZ-JKFIT
	 Reference Energy          =    -234.2463836938292729 [Eh]
	 Singles Energy            =      -0.0000000000000000 [Eh]
	 Same-Spin Energy          =      -0.2539367005907024 [Eh]
	 Opposite-Spin Energy      =      -0.9203554136507489 [Eh]
	 Correlation Energy        =      -1.1742921142414513 [Eh]
	 Total Energy              =    -235.4206758080707118 [Eh]

	 ================> DF-SCS-MP2 Energies <==================
	-----------------------------------------------------------
	 SCS Same-Spin Scale       =       0.3333333333333333 [-]
	 SCS Opposite-Spin Scale   =       1.2000000000000000 [-]
	 SCS Same-Spin Energy      =      -0.0846455668635675 [Eh]
	 SCS Opposite-Spin Energy  =      -1.1044264963808987 [Eh]
	 SCS Correlation Energy    =      -1.1890720632444662 [Eh]
	 SCS Total Energy          =    -235.4354557570737256 [Eh]
	-----------------------------------------------------------

  Dipole Moment: [D]
     X:    -0.0212      Y:     0.0069      Z:     0.0169     Total:     0.0280

*** Psi4 exiting successfully. Buy a developer a beer!
