                               Psi4 1.4a3.dev225

  ==> Input File <==

--------------------------------------------------------------------------
#psi4
#
memory 32 gb

molecule  {
0 1
  C        0.2061644     0.7481735     0.4377508
  C        0.1866490    -0.7562500     0.4534210
  C       -0.7958940    -0.0000060    -0.4032040
  C        1.3017950     1.5715540    -0.1562120
  C        1.3018100    -1.5715430    -0.1562120
  C       -2.2698350    -0.0000050    -0.0828370
  H       -0.2448680     1.2051630     1.3480830
  H       -0.2448540    -1.2051680     1.3480870
  H       -0.5605670    -0.0000080    -1.4682010
  H        0.9553190     2.5847770    -0.3848190
  H        2.1550520     1.6529780     0.5256790
  H        1.6595600     1.1289300    -1.0891140
  H        2.1551040    -1.6528880     0.5256410
  H        0.9553680    -2.5847950    -0.3847400
  H        1.6595080    -1.1289620    -1.0891610
  H       -2.7665390    -0.8865100    -0.4914230
  H       -2.4235610    -0.0000430     1.0010740
  H       -2.7665230     0.8865400    -0.4913590
units angstrom
no_reorient  #important for SAPT in psi4, default
symmetry c1  #important for SAPT in psi4, default
}

set PROPERTIES_ORIGIN ["COM"]
properties('MP2/aug-cc-pvtz', properties = ['dipole'])
--------------------------------------------------------------------------

    Molecular point group: c1
  Charge       = 0
  Multiplicity = 1
  Basis Set: AUG-CC-PVTZ
    Blend: AUG-CC-PVTZ
  Basis Set: (AUG-CC-PVTZ AUX)
    Blend: AUG-CC-PVTZ-JKFIT

    Orbital Energies [Eh]
    ---------------------

    Doubly Occupied:

       1A    -11.221602     2A    -11.220446     3A    -11.219103
       4A    -11.212838     5A    -11.212350     6A    -11.212309
       7A     -1.152836     8A     -0.984096     9A     -0.977263
      10A     -0.909229    11A     -0.768868    12A     -0.742863
      13A     -0.641618    14A     -0.611154    15A     -0.570405
      16A     -0.569295    17A     -0.548005    18A     -0.536145
      19A     -0.530491    20A     -0.526547    21A     -0.483760
      22A     -0.471832    23A     -0.384293    24A     -0.380419

  @DF-RHF Final Energy:  -234.24743248658274

   => Energetics <=

    Nuclear Repulsion Energy =            246.4852457010654518
    One-Electron Energy =                -803.2898246783943250
    Two-Electron Energy =                 322.5571464907461632
    Total Energy =                       -234.2474324865827384
  Basis Set: (AUG-CC-PVTZ AUX)
    Blend: AUG-CC-PVTZ-RI
    Molecular point group: c1

    Geometry (in Angstrom), charge = 0, multiplicity = 1:

       Center              X                  Y                   Z               Mass
    ------------   -----------------  -----------------  -----------------  -----------------
         C            0.209667120938     0.749325829598     0.432314729759    12.000000000000
         C            0.190151720938    -0.755097670402     0.447984929759    12.000000000000
         C           -0.792391279062     0.001146329598    -0.408640070241    12.000000000000
         C            1.305297720938     1.572706329598    -0.161648070241    12.000000000000
         C            1.305312720938    -1.570390670402    -0.161648070241    12.000000000000
         C           -2.266332279062     0.001147329598    -0.088273070241    12.000000000000
         H           -0.241365279062     1.206315329598     1.342646929759     1.007825032230
         H           -0.241351279062    -1.204015670402     1.342650929759     1.007825032230
         H           -0.557064279062     0.001144329598    -1.473637070241     1.007825032230
         H            0.958821720938     2.585929329598    -0.390255070241     1.007825032230
         H            2.158554720938     1.654130329598     0.520242929759     1.007825032230
         H            1.663062720938     1.130082329598    -1.094550070241     1.007825032230
         H            2.158606720938    -1.651735670402     0.520204929759     1.007825032230
         H            0.958870720938    -2.583642670402    -0.390176070241     1.007825032230
         H            1.663010720938    -1.127809670402    -1.094597070241     1.007825032230
         H           -2.763036279062    -0.885357670402    -0.496859070241     1.007825032230
         H           -2.420058279062     0.001109329598     0.995637929759     1.007825032230
         H           -2.763020279062     0.887692329598    -0.496795070241     1.007825032230

  Basis Set: AUG-CC-PVTZ
    Blend: AUG-CC-PVTZ
  Basis Set: (AUG-CC-PVTZ AUX)
    Blend: AUG-CC-PVTZ-JKFIT
	 Reference Energy          =    -234.2474324865827384 [Eh]
	 Singles Energy            =      -0.0000000000000000 [Eh]
	 Same-Spin Energy          =      -0.2540729185879781 [Eh]
	 Opposite-Spin Energy      =      -0.9201420529175187 [Eh]
	 Correlation Energy        =      -1.1742149715054968 [Eh]
	 Total Energy              =    -235.4216474580882448 [Eh]

	 ================> DF-SCS-MP2 Energies <==================
	-----------------------------------------------------------
	 SCS Same-Spin Scale       =       0.3333333333333333 [-]
	 SCS Opposite-Spin Scale   =       1.2000000000000000 [-]
	 SCS Same-Spin Energy      =      -0.0846909728626594 [Eh]
	 SCS Opposite-Spin Energy  =      -1.1041704635010223 [Eh]
	 SCS Correlation Energy    =      -1.1888614363636816 [Eh]
	 SCS Total Energy          =    -235.4362939229464189 [Eh]
	-----------------------------------------------------------

  Dipole Moment: [D]
     X:     0.0006      Y:     0.0044      Z:    -0.0151     Total:     0.0158

*** Psi4 exiting successfully. Buy a developer a beer!
