                               Psi4 1.4a3.dev225

  ==> Input File <==

--------------------------------------------------------------------------
#psi4
#
memory 32 gb

molecule  {
0 1
  C        0.1866420     0.7562470     0.4534190
  C        0.1866490    -0.7562500     0.4534210
  C       -0.7958940    -0.0000060    -0.4032040
  C        1.3017950     1.5715540    -0.1562120
  C        1.3018100    -1.5715430    -0.1562120
  C       -2.2698350    -0.0000050    -0.0828370
  H       -0.2448680     1.2051630     1.3480830
  H       -0.2052674    -1.1639837     1.2660093
  H       -0.5605670    -0.0000080    -1.4682010
  H        0.9553190     2.5847770    -0.3848190
  H        2.1550520     1.6529780     0.5256790
  H        1.6595600     1.1289300    -1.0891140
  H        2.1551040    -1.6528880     0.5256410
  H        0.9553680    -2.5847950    -0.3847400
  H        1.6595080    -1.1289620    -1.0891610
  H       -2.7665390    -0.8865100    -0.4914230
  H       -2.4235610    -0.0000430     1.0010740
  H       -2.7665230     0.8865400    -0.4913590
units angstrom
no_reorient  #important for SAPT in psi4, default
symmetry c1  #important for SAPT in psi4, default
}

set PROPERTIES_ORIGIN ["COM"]
properties('MP2/aug-cc-pvtz', properties = ['dipole'])
--------------------------------------------------------------------------

    Molecular point group: c1
  Charge       = 0
  Multiplicity = 1
  Basis Set: AUG-CC-PVTZ
    Blend: AUG-CC-PVTZ
  Basis Set: (AUG-CC-PVTZ AUX)
    Blend: AUG-CC-PVTZ-JKFIT

    Orbital Energies [Eh]
    ---------------------

    Doubly Occupied:

       1A    -11.219925     2A    -11.218697     3A    -11.212511
       4A    -11.212097     5A    -11.211687     6A    -11.208090
       7A     -1.152621     8A     -0.982769     9A     -0.976751
      10A     -0.908262    11A     -0.778669    12A     -0.753188
      13A     -0.644685    14A     -0.610931    15A     -0.570872
      16A     -0.568153    17A     -0.547198    18A     -0.534214
      19A     -0.530399    20A     -0.528592    21A     -0.485727
      22A     -0.477888    23A     -0.382520    24A     -0.381498

  @DF-RHF Final Energy:  -234.24268919847304

   => Energetics <=

    Nuclear Repulsion Energy =            246.8101871916140624
    One-Electron Energy =                -803.9098617182023645
    Two-Electron Energy =                 322.8569853281152291
    Total Energy =                       -234.2426891984730446
  Basis Set: (AUG-CC-PVTZ AUX)
    Blend: AUG-CC-PVTZ-RI
    Molecular point group: c1

    Geometry (in Angstrom), charge = 0, multiplicity = 1:

       Center              X                  Y                   Z               Mass
    ------------   -----------------  -----------------  -----------------  -----------------
         C            0.192456094684     0.755753686242     0.446730776644    12.000000000000
         C            0.192463094684    -0.756743313758     0.446732776644    12.000000000000
         C           -0.790079905316    -0.000499313758    -0.409892223356    12.000000000000
         C            1.307609094684     1.571060686242    -0.162900223356    12.000000000000
         C            1.307624094684    -1.572036313758    -0.162900223356    12.000000000000
         C           -2.264020905316    -0.000498313758    -0.089525223356    12.000000000000
         H           -0.239053905316     1.204669686242     1.341394776644     1.007825032230
         H           -0.199453305316    -1.164477013758     1.259321076644     1.007825032230
         H           -0.554752905316    -0.000501313758    -1.474889223356     1.007825032230
         H            0.961133094684     2.584283686242    -0.391507223356     1.007825032230
         H            2.160866094684     1.652484686242     0.518990776644     1.007825032230
         H            1.665374094684     1.128436686242    -1.095802223356     1.007825032230
         H            2.160918094684    -1.653381313758     0.518952776644     1.007825032230
         H            0.961182094684    -2.585288313758    -0.391428223356     1.007825032230
         H            1.665322094684    -1.129455313758    -1.095849223356     1.007825032230
         H           -2.760724905316    -0.887003313758    -0.498111223356     1.007825032230
         H           -2.417746905316    -0.000536313758     0.994385776644     1.007825032230
         H           -2.760708905316     0.886046686242    -0.498047223356     1.007825032230

  Basis Set: AUG-CC-PVTZ
    Blend: AUG-CC-PVTZ
  Basis Set: (AUG-CC-PVTZ AUX)
    Blend: AUG-CC-PVTZ-JKFIT
	 Reference Energy          =    -234.2426891984730446 [Eh]
	 Singles Energy            =      -0.0000000000000000 [Eh]
	 Same-Spin Energy          =      -0.2538511761555574 [Eh]
	 Opposite-Spin Energy      =      -0.9195571460148158 [Eh]
	 Correlation Energy        =      -1.1734083221703733 [Eh]
	 Total Energy              =    -235.4160975206434046 [Eh]

	 ================> DF-SCS-MP2 Energies <==================
	-----------------------------------------------------------
	 SCS Same-Spin Scale       =       0.3333333333333333 [-]
	 SCS Opposite-Spin Scale   =       1.2000000000000000 [-]
	 SCS Same-Spin Energy      =      -0.0846170587185191 [Eh]
	 SCS Opposite-Spin Energy  =      -1.1034685752177789 [Eh]
	 SCS Correlation Energy    =      -1.1880856339362980 [Eh]
	 SCS Total Energy          =    -235.4307748324093552 [Eh]
	-----------------------------------------------------------

  Dipole Moment: [D]
     X:    -0.0263      Y:    -0.0239      Z:     0.0286     Total:     0.0456

*** Psi4 exiting successfully. Buy a developer a beer!
