                               Psi4 1.4a3.dev225

  ==> Input File <==

--------------------------------------------------------------------------
#psi4
#
memory 32 gb

molecule  {
0 1
  C        0.1467054     0.7717006     0.4839679
  C        0.1866490    -0.7562500     0.4534210
  C       -0.7958940    -0.0000060    -0.4032040
  C        1.3017950     1.5715540    -0.1562120
  C        1.3018100    -1.5715430    -0.1562120
  C       -2.2698350    -0.0000050    -0.0828370
  H       -0.2448680     1.2051630     1.3480830
  H       -0.2448540    -1.2051680     1.3480870
  H       -0.5605670    -0.0000080    -1.4682010
  H        0.9553190     2.5847770    -0.3848190
  H        2.1550520     1.6529780     0.5256790
  H        1.6595600     1.1289300    -1.0891140
  H        2.1551040    -1.6528880     0.5256410
  H        0.9553680    -2.5847950    -0.3847400
  H        1.6595080    -1.1289620    -1.0891610
  H       -2.7665390    -0.8865100    -0.4914230
  H       -2.4235610    -0.0000430     1.0010740
  H       -2.7665230     0.8865400    -0.4913590
units angstrom
no_reorient  #important for SAPT in psi4, default
symmetry c1  #important for SAPT in psi4, default
}

set PROPERTIES_ORIGIN ["COM"]
properties('MP2/aug-cc-pvtz', properties = ['dipole'])
--------------------------------------------------------------------------

    Molecular point group: c1
  Charge       = 0
  Multiplicity = 1
  Basis Set: AUG-CC-PVTZ
    Blend: AUG-CC-PVTZ
  Basis Set: (AUG-CC-PVTZ AUX)
    Blend: AUG-CC-PVTZ-JKFIT

    Orbital Energies [Eh]
    ---------------------

    Doubly Occupied:

       1A    -11.221064     2A    -11.220281     3A    -11.218921
       4A    -11.213240     5A    -11.213164     6A    -11.211990
       7A     -1.148152     8A     -0.981661     9A     -0.971651
      10A     -0.906159    11A     -0.773843    12A     -0.750517
      13A     -0.639238    14A     -0.610331    15A     -0.570588
      16A     -0.566616    17A     -0.546401    18A     -0.533673
      19A     -0.530462    20A     -0.525195    21A     -0.484601
      22A     -0.475942    23A     -0.384694    24A     -0.378003

  @DF-RHF Final Energy:  -234.24594794865254

   => Energetics <=

    Nuclear Repulsion Energy =            245.9069595011650904
    One-Electron Energy =                -802.1530399652633605
    Two-Electron Energy =                 322.0001325154456708
    Total Energy =                       -234.2459479486525424
  Basis Set: (AUG-CC-PVTZ AUX)
    Blend: AUG-CC-PVTZ-RI
    Molecular point group: c1

    Geometry (in Angstrom), charge = 0, multiplicity = 1:

       Center              X                  Y                   Z               Mass
    ------------   -----------------  -----------------  -----------------  -----------------
         C            0.158692779120     0.769495668267     0.471936759279    12.000000000000
         C            0.198636379120    -0.758454931733     0.441389859279    12.000000000000
         C           -0.783906620880    -0.002210931733    -0.415235140721    12.000000000000
         C            1.313782379120     1.569349068267    -0.168243140721    12.000000000000
         C            1.313797379120    -1.573747931733    -0.168243140721    12.000000000000
         C           -2.257847620880    -0.002209931733    -0.094868140721    12.000000000000
         H           -0.232880620880     1.202958068267     1.336051859279     1.007825032230
         H           -0.232866620880    -1.207372931733     1.336055859279     1.007825032230
         H           -0.548579620880    -0.002212931733    -1.480232140721     1.007825032230
         H            0.967306379120     2.582572068267    -0.396850140721     1.007825032230
         H            2.167039379120     1.650773068267     0.513647859279     1.007825032230
         H            1.671547379120     1.126725068267    -1.101145140721     1.007825032230
         H            2.167091379120    -1.655092931733     0.513609859279     1.007825032230
         H            0.967355379120    -2.586999931733    -0.396771140721     1.007825032230
         H            1.671495379120    -1.131166931733    -1.101192140721     1.007825032230
         H           -2.754551620880    -0.888714931733    -0.503454140721     1.007825032230
         H           -2.411573620880    -0.002247931733     0.989042859279     1.007825032230
         H           -2.754535620880     0.884335068267    -0.503390140721     1.007825032230

  Basis Set: AUG-CC-PVTZ
    Blend: AUG-CC-PVTZ
  Basis Set: (AUG-CC-PVTZ AUX)
    Blend: AUG-CC-PVTZ-JKFIT
	 Reference Energy          =    -234.2459479486525424 [Eh]
	 Singles Energy            =      -0.0000000000000000 [Eh]
	 Same-Spin Energy          =      -0.2536794349027846 [Eh]
	 Opposite-Spin Energy      =      -0.9199583093073080 [Eh]
	 Correlation Energy        =      -1.1736377442100927 [Eh]
	 Total Energy              =    -235.4195856928626256 [Eh]

	 ================> DF-SCS-MP2 Energies <==================
	-----------------------------------------------------------
	 SCS Same-Spin Scale       =       0.3333333333333333 [-]
	 SCS Opposite-Spin Scale   =       1.2000000000000000 [-]
	 SCS Same-Spin Energy      =      -0.0845598116342615 [Eh]
	 SCS Opposite-Spin Energy  =      -1.1039499711687697 [Eh]
	 SCS Correlation Energy    =      -1.1885097828030313 [Eh]
	 SCS Total Energy          =    -235.4344577314555806 [Eh]
	-----------------------------------------------------------

  Dipole Moment: [D]
     X:    -0.0159      Y:    -0.0153      Z:    -0.0022     Total:     0.0221

*** Psi4 exiting successfully. Buy a developer a beer!
