                               Psi4 1.4a3.dev225

  ==> Input File <==

--------------------------------------------------------------------------
#psi4
#
memory 32 gb

molecule  {
0 1
  C        0.1866420     0.7562470     0.4534190
  C        0.1866490    -0.7562500     0.4534210
  C       -0.7958940    -0.0000060    -0.4032040
  C        1.3017950     1.5715540    -0.1562120
  C        1.3018100    -1.5715430    -0.1562120
  C       -2.2698350    -0.0000050    -0.0828370
  H       -0.2448680     1.2051630     1.3480830
  H       -0.2448540    -1.2051680     1.3480870
  H       -0.5648822    -0.0000080    -1.4486721
  H        0.9553190     2.5847770    -0.3848190
  H        2.1550520     1.6529780     0.5256790
  H        1.6595600     1.1289300    -1.0891140
  H        2.1551040    -1.6528880     0.5256410
  H        0.9553680    -2.5847950    -0.3847400
  H        1.6595080    -1.1289620    -1.0891610
  H       -2.7665390    -0.8865100    -0.4914230
  H       -2.4235610    -0.0000430     1.0010740
  H       -2.7665230     0.8865400    -0.4913590
units angstrom
no_reorient  #important for SAPT in psi4, default
symmetry c1  #important for SAPT in psi4, default
}

set PROPERTIES_ORIGIN ["COM"]
properties('MP2/aug-cc-pvtz', properties = ['dipole'])
--------------------------------------------------------------------------

    Molecular point group: c1
  Charge       = 0
  Multiplicity = 1
  Basis Set: AUG-CC-PVTZ
    Blend: AUG-CC-PVTZ
  Basis Set: (AUG-CC-PVTZ AUX)
    Blend: AUG-CC-PVTZ-JKFIT

    Orbital Energies [Eh]
    ---------------------

    Doubly Occupied:

       1A    -11.220685     2A    -11.219961     3A    -11.217082
       4A    -11.212577     5A    -11.212573     6A    -11.212300
       7A     -1.151409     8A     -0.982939     9A     -0.975624
      10A     -0.908103    11A     -0.772934    12A     -0.745511
      13A     -0.640751    14A     -0.611958    15A     -0.569988
      16A     -0.568607    17A     -0.547319    18A     -0.534484
      19A     -0.529413    20A     -0.527538    21A     -0.485876
      22A     -0.473788    23A     -0.382363    24A     -0.381806

  @DF-RHF Final Energy:  -234.24859992884524

   => Energetics <=

    Nuclear Repulsion Energy =            246.3867036905407701
    One-Electron Energy =                -803.0994303550623954
    Two-Electron Energy =                 322.4641267356763592
    Total Energy =                       -234.2485999288452376
  Basis Set: (AUG-CC-PVTZ AUX)
    Blend: AUG-CC-PVTZ-RI
    Molecular point group: c1

    Geometry (in Angstrom), charge = 0, multiplicity = 1:

       Center              X                  Y                   Z               Mass
    ------------   -----------------  -----------------  -----------------  -----------------
         C            0.192982236685     0.756247260310     0.445513070313    12.000000000000
         C            0.192989236685    -0.756249739690     0.445515070313    12.000000000000
         C           -0.789553763315    -0.000005739690    -0.411109929687    12.000000000000
         C            1.308135236685     1.571554260310    -0.164117929687    12.000000000000
         C            1.308150236685    -1.571542739690    -0.164117929687    12.000000000000
         C           -2.263494763315    -0.000004739690    -0.090742929687    12.000000000000
         H           -0.238527763315     1.205163260310     1.340177070313     1.007825032230
         H           -0.238513763315    -1.205167739690     1.340181070313     1.007825032230
         H           -0.558541963315    -0.000007739690    -1.456578029687     1.007825032230
         H            0.961659236685     2.584777260310    -0.392724929687     1.007825032230
         H            2.161392236685     1.652978260310     0.517773070313     1.007825032230
         H            1.665900236685     1.128930260310    -1.097019929687     1.007825032230
         H            2.161444236685    -1.652887739690     0.517735070313     1.007825032230
         H            0.961708236685    -2.584794739690    -0.392645929687     1.007825032230
         H            1.665848236685    -1.128961739690    -1.097066929687     1.007825032230
         H           -2.760198763315    -0.886509739690    -0.499328929687     1.007825032230
         H           -2.417220763315    -0.000042739690     0.993168070313     1.007825032230
         H           -2.760182763315     0.886540260310    -0.499264929687     1.007825032230

  Basis Set: AUG-CC-PVTZ
    Blend: AUG-CC-PVTZ
  Basis Set: (AUG-CC-PVTZ AUX)
    Blend: AUG-CC-PVTZ-JKFIT
	 Reference Energy          =    -234.2485999288452376 [Eh]
	 Singles Energy            =      -0.0000000000000000 [Eh]
	 Same-Spin Energy          =      -0.2538885383846984 [Eh]
	 Opposite-Spin Energy      =      -0.9198739234402926 [Eh]
	 Correlation Energy        =      -1.1737624618249911 [Eh]
	 Total Energy              =    -235.4223623906702301 [Eh]

	 ================> DF-SCS-MP2 Energies <==================
	-----------------------------------------------------------
	 SCS Same-Spin Scale       =       0.3333333333333333 [-]
	 SCS Opposite-Spin Scale   =       1.2000000000000000 [-]
	 SCS Same-Spin Energy      =      -0.0846295127948995 [Eh]
	 SCS Opposite-Spin Energy  =      -1.1038487081283510 [Eh]
	 SCS Correlation Energy    =      -1.1884782209232505 [Eh]
	 SCS Total Energy          =    -235.4370781497684959 [Eh]
	-----------------------------------------------------------

  Dipole Moment: [D]
     X:    -0.0027      Y:    -0.0000      Z:    -0.0193     Total:     0.0195

*** Psi4 exiting successfully. Buy a developer a beer!
