                               Psi4 1.4a3.dev225

  ==> Input File <==

--------------------------------------------------------------------------
#psi4
#
memory 32 gb

molecule  {
0 1
  C        0.1866420     0.7562470     0.4534190
  C        0.1866490    -0.7562500     0.4534210
  C       -0.7958940    -0.0000060    -0.4032040
  C        1.3017950     1.5715540    -0.1562120
  C        1.3018100    -1.5715430    -0.1562120
  C       -2.2698350    -0.0000050    -0.0828370
  H       -0.2448680     1.2051630     1.3480830
  H       -0.2448540    -1.2051680     1.3480870
  H       -0.5605670    -0.0000080    -1.4682010
  H        0.9553190     2.5847770    -0.3848190
  H        2.1550520     1.6529780     0.5256790
  H        1.6530123     1.1370307    -1.0720404
  H        2.1551040    -1.6528880     0.5256410
  H        0.9553680    -2.5847950    -0.3847400
  H        1.6595080    -1.1289620    -1.0891610
  H       -2.7665390    -0.8865100    -0.4914230
  H       -2.4235610    -0.0000430     1.0010740
  H       -2.7665230     0.8865400    -0.4913590
units angstrom
no_reorient  #important for SAPT in psi4, default
symmetry c1  #important for SAPT in psi4, default
}

set PROPERTIES_ORIGIN ["COM"]
properties('MP2/aug-cc-pvtz', properties = ['dipole'])
--------------------------------------------------------------------------

    Molecular point group: c1
  Charge       = 0
  Multiplicity = 1
  Basis Set: AUG-CC-PVTZ
    Blend: AUG-CC-PVTZ
  Basis Set: (AUG-CC-PVTZ AUX)
    Blend: AUG-CC-PVTZ-JKFIT

    Orbital Energies [Eh]
    ---------------------

    Doubly Occupied:

       1A    -11.220858     2A    -11.220010     3A    -11.219359
       4A    -11.212667     5A    -11.212497     6A    -11.210093
       7A     -1.151206     8A     -0.983167     9A     -0.976386
      10A     -0.908828    11A     -0.769974    12A     -0.746211
      13A     -0.640901    14A     -0.611114    15A     -0.570571
      16A     -0.568499    17A     -0.547553    18A     -0.535379
      19A     -0.529899    20A     -0.528098    21A     -0.484079
      22A     -0.474502    23A     -0.382274    24A     -0.381978

  @DF-RHF Final Energy:  -234.24854965361703

   => Energetics <=

    Nuclear Repulsion Energy =            246.3679224595565529
    One-Electron Energy =                -803.0607370700118963
    Two-Electron Energy =                 322.4442649568383104
    Total Energy =                       -234.2485496536170331
  Basis Set: (AUG-CC-PVTZ AUX)
    Blend: AUG-CC-PVTZ-RI
    Molecular point group: c1

    Geometry (in Angstrom), charge = 0, multiplicity = 1:

       Center              X                  Y                   Z               Mass
    ------------   -----------------  -----------------  -----------------  -----------------
         C            0.193008992126     0.756150177308     0.445542495905    12.000000000000
         C            0.193015992126    -0.756346822692     0.445544495905    12.000000000000
         C           -0.789527007874    -0.000102822692    -0.411080504095    12.000000000000
         C            1.308161992126     1.571457177308    -0.164088504095    12.000000000000
         C            1.308176992126    -1.571639822692    -0.164088504095    12.000000000000
         C           -2.263468007874    -0.000101822692    -0.090713504095    12.000000000000
         H           -0.238501007874     1.205066177308     1.340206495905     1.007825032230
         H           -0.238487007874    -1.205264822692     1.340210495905     1.007825032230
         H           -0.554200007874    -0.000104822692    -1.476077504095     1.007825032230
         H            0.961685992126     2.584680177308    -0.392695504095     1.007825032230
         H            2.161418992126     1.652881177308     0.517802495905     1.007825032230
         H            1.659379292126     1.136933877308    -1.079916904095     1.007825032230
         H            2.161470992126    -1.652984822692     0.517764495905     1.007825032230
         H            0.961734992126    -2.584891822692    -0.392616504095     1.007825032230
         H            1.665874992126    -1.129058822692    -1.097037504095     1.007825032230
         H           -2.760172007874    -0.886606822692    -0.499299504095     1.007825032230
         H           -2.417194007874    -0.000139822692     0.993197495905     1.007825032230
         H           -2.760156007874     0.886443177308    -0.499235504095     1.007825032230

  Basis Set: AUG-CC-PVTZ
    Blend: AUG-CC-PVTZ
  Basis Set: (AUG-CC-PVTZ AUX)
    Blend: AUG-CC-PVTZ-JKFIT
	 Reference Energy          =    -234.2485496536170331 [Eh]
	 Singles Energy            =      -0.0000000000000000 [Eh]
	 Same-Spin Energy          =      -0.2538972331920406 [Eh]
	 Opposite-Spin Energy      =      -0.9198524900626022 [Eh]
	 Correlation Energy        =      -1.1737497232546428 [Eh]
	 Total Energy              =    -235.4222993768716776 [Eh]

	 ================> DF-SCS-MP2 Energies <==================
	-----------------------------------------------------------
	 SCS Same-Spin Scale       =       0.3333333333333333 [-]
	 SCS Opposite-Spin Scale   =       1.2000000000000000 [-]
	 SCS Same-Spin Energy      =      -0.0846324110640135 [Eh]
	 SCS Opposite-Spin Energy  =      -1.1038229880751225 [Eh]
	 SCS Correlation Energy    =      -1.1884553991391360 [Eh]
	 SCS Total Energy          =    -235.4370050527561773 [Eh]
	-----------------------------------------------------------

  Dipole Moment: [D]
     X:     0.0006      Y:    -0.0026      Z:    -0.0183     Total:     0.0185

*** Psi4 exiting successfully. Buy a developer a beer!
