                               Psi4 1.4a3.dev225

  ==> Input File <==

--------------------------------------------------------------------------
#psi4
#
memory 32 gb

molecule  {
0 1
  C        0.1866420     0.7562470     0.4534190
  C        0.1866490    -0.7562500     0.4534210
  C       -0.7958940    -0.0000060    -0.4032040
  C        1.3017950     1.5715540    -0.1562120
  C        1.3018100    -1.5715430    -0.1562120
  C       -2.2698350    -0.0000050    -0.0828370
  H       -0.2448680     1.2051630     1.3480830
  H       -0.2448540    -1.2051680     1.3480870
  H       -0.5821430    -0.0000078    -1.3705564
  H        0.9553190     2.5847770    -0.3848190
  H        2.1550520     1.6529780     0.5256790
  H        1.6595600     1.1289300    -1.0891140
  H        2.1551040    -1.6528880     0.5256410
  H        0.9553680    -2.5847950    -0.3847400
  H        1.6595080    -1.1289620    -1.0891610
  H       -2.7665390    -0.8865100    -0.4914230
  H       -2.4235610    -0.0000430     1.0010740
  H       -2.7665230     0.8865400    -0.4913590
units angstrom
no_reorient  #important for SAPT in psi4, default
symmetry c1  #important for SAPT in psi4, default
}

set PROPERTIES_ORIGIN ["COM"]
properties('MP2/aug-cc-pvtz', properties = ['dipole'])
--------------------------------------------------------------------------

    Molecular point group: c1
  Charge       = 0
  Multiplicity = 1
  Basis Set: AUG-CC-PVTZ
    Blend: AUG-CC-PVTZ
  Basis Set: (AUG-CC-PVTZ AUX)
    Blend: AUG-CC-PVTZ-JKFIT

    Orbital Energies [Eh]
    ---------------------

    Doubly Occupied:

       1A    -11.220023     2A    -11.219346     3A    -11.212564
       4A    -11.212561     5A    -11.211562     6A    -11.207182
       7A     -1.152697     8A     -0.983700     9A     -0.975541
      10A     -0.907750    11A     -0.787038    12A     -0.745092
      13A     -0.640857    14A     -0.616846    15A     -0.569763
      16A     -0.568615    17A     -0.547117    18A     -0.534493
      19A     -0.529100    20A     -0.527665    21A     -0.492190
      22A     -0.473552    23A     -0.382386    24A     -0.381260

  @DF-RHF Final Energy:  -234.24268378067887

   => Energetics <=

    Nuclear Repulsion Energy =            246.7953643731655120
    One-Electron Energy =                -803.8783037960008642
    Two-Electron Energy =                 322.8402556421564782
    Total Energy =                       -234.2426837806788740
  Basis Set: (AUG-CC-PVTZ AUX)
    Blend: AUG-CC-PVTZ-RI
    Molecular point group: c1

    Geometry (in Angstrom), charge = 0, multiplicity = 1:

       Center              X                  Y                   Z               Mass
    ------------   -----------------  -----------------  -----------------  -----------------
         C            0.193189099088     0.756247257913     0.444576891143    12.000000000000
         C            0.193196099088    -0.756249742087     0.444578891143    12.000000000000
         C           -0.789346900912    -0.000005742087    -0.412046108857    12.000000000000
         C            1.308342099088     1.571554257913    -0.165054108857    12.000000000000
         C            1.308357099088    -1.571542742087    -0.165054108857    12.000000000000
         C           -2.263287900912    -0.000004742087    -0.091679108857    12.000000000000
         H           -0.238320900912     1.205163257913     1.339240891143     1.007825032230
         H           -0.238306900912    -1.205167742087     1.339244891143     1.007825032230
         H           -0.575595900912    -0.000007542087    -1.379398508857     1.007825032230
         H            0.961866099088     2.584777257913    -0.393661108857     1.007825032230
         H            2.161599099088     1.652978257913     0.516836891143     1.007825032230
         H            1.666107099088     1.128930257913    -1.097956108857     1.007825032230
         H            2.161651099088    -1.652887742087     0.516798891143     1.007825032230
         H            0.961915099088    -2.584794742087    -0.393582108857     1.007825032230
         H            1.666055099088    -1.128961742087    -1.098003108857     1.007825032230
         H           -2.759991900912    -0.886509742087    -0.500265108857     1.007825032230
         H           -2.417013900912    -0.000042742087     0.992231891143     1.007825032230
         H           -2.759975900912     0.886540257913    -0.500201108857     1.007825032230

  Basis Set: AUG-CC-PVTZ
    Blend: AUG-CC-PVTZ
  Basis Set: (AUG-CC-PVTZ AUX)
    Blend: AUG-CC-PVTZ-JKFIT
	 Reference Energy          =    -234.2426837806788740 [Eh]
	 Singles Energy            =      -0.0000000000000000 [Eh]
	 Same-Spin Energy          =      -0.2538321141830499 [Eh]
	 Opposite-Spin Energy      =      -0.9195784665104448 [Eh]
	 Correlation Energy        =      -1.1734105806934947 [Eh]
	 Total Energy              =    -235.4160943613723589 [Eh]

	 ================> DF-SCS-MP2 Energies <==================
	-----------------------------------------------------------
	 SCS Same-Spin Scale       =       0.3333333333333333 [-]
	 SCS Opposite-Spin Scale   =       1.2000000000000000 [-]
	 SCS Same-Spin Energy      =      -0.0846107047276833 [Eh]
	 SCS Opposite-Spin Energy  =      -1.1034941598125338 [Eh]
	 SCS Correlation Energy    =      -1.1881048645402172 [Eh]
	 SCS Total Energy          =    -235.4307886452190814 [Eh]
	-----------------------------------------------------------

  Dipole Moment: [D]
     X:     0.0078      Y:    -0.0000      Z:    -0.0534     Total:     0.0539

*** Psi4 exiting successfully. Buy a developer a beer!
