                               Psi4 1.4a3.dev225

  ==> Input File <==

--------------------------------------------------------------------------
#psi4
#
memory 32 gb

molecule  {
0 1
  C        0.1866420     0.7562470     0.4534190
  C        0.1866490    -0.7562500     0.4534210
  C       -0.7958940    -0.0000060    -0.4032040
  C        1.3017950     1.5715540    -0.1562120
  C        1.3387372    -1.5985404    -0.1763992
  C       -2.2698350    -0.0000050    -0.0828370
  H       -0.2448680     1.2051630     1.3480830
  H       -0.2448540    -1.2051680     1.3480870
  H       -0.5605670    -0.0000080    -1.4682010
  H        0.9553190     2.5847770    -0.3848190
  H        2.1550520     1.6529780     0.5256790
  H        1.6595600     1.1289300    -1.0891140
  H        2.1551040    -1.6528880     0.5256410
  H        0.9553680    -2.5847950    -0.3847400
  H        1.6595080    -1.1289620    -1.0891610
  H       -2.7665390    -0.8865100    -0.4914230
  H       -2.4235610    -0.0000430     1.0010740
  H       -2.7665230     0.8865400    -0.4913590
units angstrom
no_reorient  #important for SAPT in psi4, default
symmetry c1  #important for SAPT in psi4, default
}

set PROPERTIES_ORIGIN ["COM"]
properties('MP2/aug-cc-pvtz', properties = ['dipole'])
--------------------------------------------------------------------------

    Molecular point group: c1
  Charge       = 0
  Multiplicity = 1
  Basis Set: AUG-CC-PVTZ
    Blend: AUG-CC-PVTZ
  Basis Set: (AUG-CC-PVTZ AUX)
    Blend: AUG-CC-PVTZ-JKFIT

    Orbital Energies [Eh]
    ---------------------

    Doubly Occupied:

       1A    -11.222406     2A    -11.220175     3A    -11.219112
       4A    -11.212542     5A    -11.212266     6A    -11.210953
       7A     -1.148652     8A     -0.981817     9A     -0.972543
      10A     -0.909480    11A     -0.768959    12A     -0.744818
      13A     -0.639421    14A     -0.607412    15A     -0.572506
      16A     -0.569489    17A     -0.548899    18A     -0.539454
      19A     -0.531826    20A     -0.525812    21A     -0.482631
      22A     -0.467850    23A     -0.384122    24A     -0.381323

  @DF-RHF Final Energy:  -234.24684098752689

   => Energetics <=

    Nuclear Repulsion Energy =            245.5886319701635898
    One-Electron Energy =                -801.5220116857022958
    Two-Electron Energy =                 321.6865387280117830
    Total Energy =                       -234.2468409875268662
  Basis Set: (AUG-CC-PVTZ AUX)
    Blend: AUG-CC-PVTZ-RI
    Molecular point group: c1

    Geometry (in Angstrom), charge = 0, multiplicity = 1:

       Center              X                  Y                   Z               Mass
    ------------   -----------------  -----------------  -----------------  -----------------
         C            0.187661097286     0.760099725215     0.448627780334    12.000000000000
         C            0.187668097286    -0.752397274785     0.448629780334    12.000000000000
         C           -0.794874902714     0.003846725215    -0.407995219666    12.000000000000
         C            1.302814097286     1.575406725215    -0.161003219666    12.000000000000
         C            1.339756297286    -1.594687674785    -0.181190419666    12.000000000000
         C           -2.268815902714     0.003847725215    -0.087628219666    12.000000000000
         H           -0.243848902714     1.209015725215     1.343291780334     1.007825032230
         H           -0.243834902714    -1.201315274785     1.343295780334     1.007825032230
         H           -0.559547902714     0.003844725215    -1.472992219666     1.007825032230
         H            0.956338097286     2.588629725215    -0.389610219666     1.007825032230
         H            2.156071097286     1.656830725215     0.520887780334     1.007825032230
         H            1.660579097286     1.132782725215    -1.093905219666     1.007825032230
         H            2.156123097286    -1.649035274785     0.520849780334     1.007825032230
         H            0.956387097286    -2.580942274785    -0.389531219666     1.007825032230
         H            1.660527097286    -1.125109274785    -1.093952219666     1.007825032230
         H           -2.765519902714    -0.882657274785    -0.496214219666     1.007825032230
         H           -2.422541902714     0.003809725215     0.996282780334     1.007825032230
         H           -2.765503902714     0.890392725215    -0.496150219666     1.007825032230

  Basis Set: AUG-CC-PVTZ
    Blend: AUG-CC-PVTZ
  Basis Set: (AUG-CC-PVTZ AUX)
    Blend: AUG-CC-PVTZ-JKFIT
	 Reference Energy          =    -234.2468409875268947 [Eh]
	 Singles Energy            =      -0.0000000000000000 [Eh]
	 Same-Spin Energy          =      -0.2536278808489397 [Eh]
	 Opposite-Spin Energy      =      -0.9198073501735696 [Eh]
	 Correlation Energy        =      -1.1734352310225094 [Eh]
	 Total Energy              =    -235.4202762185494180 [Eh]

	 ================> DF-SCS-MP2 Energies <==================
	-----------------------------------------------------------
	 SCS Same-Spin Scale       =       0.3333333333333333 [-]
	 SCS Opposite-Spin Scale   =       1.2000000000000000 [-]
	 SCS Same-Spin Energy      =      -0.0845426269496466 [Eh]
	 SCS Opposite-Spin Energy  =      -1.1037688202082836 [Eh]
	 SCS Correlation Energy    =      -1.1883114471579301 [Eh]
	 SCS Total Energy          =    -235.4351524346848237 [Eh]
	-----------------------------------------------------------

  Dipole Moment: [D]
     X:     0.0034      Y:    -0.0091      Z:    -0.0055     Total:     0.0112

*** Psi4 exiting successfully. Buy a developer a beer!
