                               Psi4 1.4a3.dev225

  ==> Input File <==

--------------------------------------------------------------------------
#psi4
#
memory 32 gb

molecule  {
0 1
  C        0.1866420     0.7562470     0.4534190
  C        0.1866490    -0.7562500     0.4534210
  C       -0.8425356     0.0323789    -0.3146582
  C        1.3017950     1.5715540    -0.1562120
  C        1.3018100    -1.5715430    -0.1562120
  C       -2.2698350    -0.0000050    -0.0828370
  H       -0.2448680     1.2051630     1.3480830
  H       -0.2448540    -1.2051680     1.3480870
  H       -0.5605670    -0.0000080    -1.4682010
  H        0.9553190     2.5847770    -0.3848190
  H        2.1550520     1.6529780     0.5256790
  H        1.6595600     1.1289300    -1.0891140
  H        2.1551040    -1.6528880     0.5256410
  H        0.9553680    -2.5847950    -0.3847400
  H        1.6595080    -1.1289620    -1.0891610
  H       -2.7665390    -0.8865100    -0.4914230
  H       -2.4235610    -0.0000430     1.0010740
  H       -2.7665230     0.8865400    -0.4913590
units angstrom
no_reorient  #important for SAPT in psi4, default
symmetry c1  #important for SAPT in psi4, default
}

set PROPERTIES_ORIGIN ["COM"]
properties('MP2/aug-cc-pvtz', properties = ['dipole'])
--------------------------------------------------------------------------

    Molecular point group: c1
  Charge       = 0
  Multiplicity = 1
  Basis Set: AUG-CC-PVTZ
    Blend: AUG-CC-PVTZ
  Basis Set: (AUG-CC-PVTZ AUX)
    Blend: AUG-CC-PVTZ-JKFIT

    Orbital Energies [Eh]
    ---------------------

    Doubly Occupied:

       1A    -11.224419     2A    -11.221025     3A    -11.219389
       4A    -11.214324     5A    -11.213783     6A    -11.211685
       7A     -1.158152     8A     -0.994860     9A     -0.976319
      10A     -0.915571    11A     -0.752974    12A     -0.749189
      13A     -0.647545    14A     -0.608586    15A     -0.574304
      16A     -0.571595    17A     -0.550103    18A     -0.540043
      19A     -0.534964    20A     -0.527401    21A     -0.475238
      22A     -0.465592    23A     -0.390144    24A     -0.375614

  @DF-RHF Final Energy:  -234.23551343661774

   => Energetics <=

    Nuclear Repulsion Energy =            246.8265834467949276
    One-Electron Energy =                -803.8985522823774090
    Two-Electron Energy =                 322.8364553989648016
    Total Energy =                       -234.2355134366177367
  Basis Set: (AUG-CC-PVTZ AUX)
    Blend: AUG-CC-PVTZ-RI
    Molecular point group: c1

    Geometry (in Angstrom), charge = 0, multiplicity = 1:

       Center              X                  Y                   Z               Mass
    ------------   -----------------  -----------------  -----------------  -----------------
         C            0.199586166707     0.751626011941     0.433111839297    12.000000000000
         C            0.199593166707    -0.760870988059     0.433113839297    12.000000000000
         C           -0.829591433293     0.027757911941    -0.334965360703    12.000000000000
         C            1.314739166707     1.566933011941    -0.176519160703    12.000000000000
         C            1.314754166707    -1.576163988059    -0.176519160703    12.000000000000
         C           -2.256890833293    -0.004625988059    -0.103144160703    12.000000000000
         H           -0.231923833293     1.200542011941     1.327775839297     1.007825032230
         H           -0.231909833293    -1.209788988059     1.327779839297     1.007825032230
         H           -0.547622833293    -0.004628988059    -1.488508160703     1.007825032230
         H            0.968263166707     2.580156011941    -0.405126160703     1.007825032230
         H            2.167996166707     1.648357011941     0.505371839297     1.007825032230
         H            1.672504166707     1.124309011941    -1.109421160703     1.007825032230
         H            2.168048166707    -1.657508988059     0.505333839297     1.007825032230
         H            0.968312166707    -2.589415988059    -0.405047160703     1.007825032230
         H            1.672452166707    -1.133582988059    -1.109468160703     1.007825032230
         H           -2.753594833293    -0.891130988059    -0.511730160703     1.007825032230
         H           -2.410616833293    -0.004663988059     0.980766839297     1.007825032230
         H           -2.753578833293     0.881919011941    -0.511666160703     1.007825032230

  Basis Set: AUG-CC-PVTZ
    Blend: AUG-CC-PVTZ
  Basis Set: (AUG-CC-PVTZ AUX)
    Blend: AUG-CC-PVTZ-JKFIT
	 Reference Energy          =    -234.2355134366177367 [Eh]
	 Singles Energy            =      -0.0000000000000000 [Eh]
	 Same-Spin Energy          =      -0.2548300178430054 [Eh]
	 Opposite-Spin Energy      =      -0.9211217786830985 [Eh]
	 Correlation Energy        =      -1.1759517965261039 [Eh]
	 Total Energy              =    -235.4114652331438435 [Eh]

	 ================> DF-SCS-MP2 Energies <==================
	-----------------------------------------------------------
	 SCS Same-Spin Scale       =       0.3333333333333333 [-]
	 SCS Opposite-Spin Scale   =       1.2000000000000000 [-]
	 SCS Same-Spin Energy      =      -0.0849433392810018 [Eh]
	 SCS Opposite-Spin Energy  =      -1.1053461344197182 [Eh]
	 SCS Correlation Energy    =      -1.1902894737007199 [Eh]
	 SCS Total Energy          =    -235.4258029103184526 [Eh]
	-----------------------------------------------------------

  Dipole Moment: [D]
     X:    -0.0389      Y:     0.0168      Z:     0.0233     Total:     0.0483

*** Psi4 exiting successfully. Buy a developer a beer!
