                               Psi4 1.4a3.dev225

  ==> Input File <==

--------------------------------------------------------------------------
#psi4
#
memory 32 gb

molecule  {
0 1
  C        0.1866420     0.7562470     0.4534190
  C        0.1866488    -0.7062500     0.4534209
  C       -0.7958940    -0.0000060    -0.4032040
  C        1.3017950     1.5715540    -0.1562120
  C        1.3018100    -1.5715430    -0.1562120
  C       -2.2698350    -0.0000050    -0.0828370
  H       -0.2448680     1.2051630     1.3480830
  H       -0.2448540    -1.2051680     1.3480870
  H       -0.5605670    -0.0000080    -1.4682010
  H        0.9553190     2.5847770    -0.3848190
  H        2.1550520     1.6529780     0.5256790
  H        1.6595600     1.1289300    -1.0891140
  H        2.1551040    -1.6528880     0.5256410
  H        0.9553680    -2.5847950    -0.3847400
  H        1.6595080    -1.1289620    -1.0891610
  H       -2.7665390    -0.8865100    -0.4914230
  H       -2.4235610    -0.0000430     1.0010740
  H       -2.7665230     0.8865400    -0.4913590
units angstrom
no_reorient  #important for SAPT in psi4, default
symmetry c1  #important for SAPT in psi4, default
}

set PROPERTIES_ORIGIN ["COM"]
properties('MP2/aug-cc-pvtz', properties = ['dipole'])
--------------------------------------------------------------------------

    Molecular point group: c1
  Charge       = 0
  Multiplicity = 1
  Basis Set: AUG-CC-PVTZ
    Blend: AUG-CC-PVTZ
  Basis Set: (AUG-CC-PVTZ AUX)
    Blend: AUG-CC-PVTZ-JKFIT

    Orbital Energies [Eh]
    ---------------------

    Doubly Occupied:

       1A    -11.220723     2A    -11.218639     3A    -11.216621
       4A    -11.214033     5A    -11.212753     6A    -11.212328
       7A     -1.162094     8A     -0.982515     9A     -0.971414
      10A     -0.911940    11A     -0.771448    12A     -0.742078
      13A     -0.644139    14A     -0.612223    15A     -0.568694
      16A     -0.567964    17A     -0.546418    18A     -0.534385
      19A     -0.532711    20A     -0.527110    21A     -0.483105
      22A     -0.463213    23A     -0.396889    24A     -0.378778

  @DF-RHF Final Energy:  -234.24619796157680

   => Energetics <=

    Nuclear Repulsion Energy =            246.8469581451388137
    One-Electron Energy =                -804.0018840943538407
    Two-Electron Energy =                 322.9087279876382013
    Total Energy =                       -234.2461979615767973
  Basis Set: (AUG-CC-PVTZ AUX)
    Blend: AUG-CC-PVTZ-RI
    Molecular point group: c1

    Geometry (in Angstrom), charge = 0, multiplicity = 1:

       Center              X                  Y                   Z               Mass
    ------------   -----------------  -----------------  -----------------  -----------------
         C            0.192930549624     0.749112378978     0.445747129075    12.000000000000
         C            0.192937349624    -0.713384621022     0.445749029075    12.000000000000
         C           -0.789605450376    -0.007140621022    -0.410875870925    12.000000000000
         C            1.308083549624     1.564419378978    -0.163883870925    12.000000000000
         C            1.308098549624    -1.578677621022    -0.163883870925    12.000000000000
         C           -2.263546450376    -0.007139621022    -0.090508870925    12.000000000000
         H           -0.238579450376     1.198028378978     1.340411129075     1.007825032230
         H           -0.238565450376    -1.212302621022     1.340415129075     1.007825032230
         H           -0.554278450376    -0.007142621022    -1.475872870925     1.007825032230
         H            0.961607549624     2.577642378978    -0.392490870925     1.007825032230
         H            2.161340549624     1.645843378978     0.518007129075     1.007825032230
         H            1.665848549624     1.121795378978    -1.096785870925     1.007825032230
         H            2.161392549624    -1.660022621022     0.517969129075     1.007825032230
         H            0.961656549624    -2.591929621022    -0.392411870925     1.007825032230
         H            1.665796549624    -1.136096621022    -1.096832870925     1.007825032230
         H           -2.760250450376    -0.893644621022    -0.499094870925     1.007825032230
         H           -2.417272450376    -0.007177621022     0.993402129075     1.007825032230
         H           -2.760234450376     0.879405378978    -0.499030870925     1.007825032230

  Basis Set: AUG-CC-PVTZ
    Blend: AUG-CC-PVTZ
  Basis Set: (AUG-CC-PVTZ AUX)
    Blend: AUG-CC-PVTZ-JKFIT
	 Reference Energy          =    -234.2461979615767973 [Eh]
	 Singles Energy            =      -0.0000000000000000 [Eh]
	 Same-Spin Energy          =      -0.2539324012031867 [Eh]
	 Opposite-Spin Energy      =      -0.9197204794778424 [Eh]
	 Correlation Energy        =      -1.1736528806810291 [Eh]
	 Total Energy              =    -235.4198508422578300 [Eh]

	 ================> DF-SCS-MP2 Energies <==================
	-----------------------------------------------------------
	 SCS Same-Spin Scale       =       0.3333333333333333 [-]
	 SCS Opposite-Spin Scale   =       1.2000000000000000 [-]
	 SCS Same-Spin Energy      =      -0.0846441337343956 [Eh]
	 SCS Opposite-Spin Energy  =      -1.1036645753734109 [Eh]
	 SCS Correlation Energy    =      -1.1883087091078064 [Eh]
	 SCS Total Energy          =    -235.4345066706846126 [Eh]
	-----------------------------------------------------------

  Dipole Moment: [D]
     X:     0.0102      Y:    -0.0040      Z:     0.0073     Total:     0.0132

*** Psi4 exiting successfully. Buy a developer a beer!
