                               Psi4 1.4a3.dev225

  ==> Input File <==

--------------------------------------------------------------------------
#psi4
#
memory 32 gb

molecule  {
0 1
  C        0.1866420     0.7562470     0.4534190
  C        0.1866490    -0.7562500     0.4534210
  C       -0.7988846     0.0228711    -0.4158816
  C        1.3017950     1.5715540    -0.1562120
  C        1.3018100    -1.5715430    -0.1562120
  C       -2.2698350    -0.0000050    -0.0828370
  H       -0.2448680     1.2051630     1.3480830
  H       -0.2448540    -1.2051680     1.3480870
  H       -0.5605670    -0.0000080    -1.4682010
  H        0.9553190     2.5847770    -0.3848190
  H        2.1550520     1.6529780     0.5256790
  H        1.6595600     1.1289300    -1.0891140
  H        2.1551040    -1.6528880     0.5256410
  H        0.9553680    -2.5847950    -0.3847400
  H        1.6595080    -1.1289620    -1.0891610
  H       -2.7665390    -0.8865100    -0.4914230
  H       -2.4235610    -0.0000430     1.0010740
  H       -2.7665230     0.8865400    -0.4913590
units angstrom
no_reorient  #important for SAPT in psi4, default
symmetry c1  #important for SAPT in psi4, default
}

set PROPERTIES_ORIGIN ["COM"]
properties('MP2/aug-cc-pvtz', properties = ['dipole'])
--------------------------------------------------------------------------

    Molecular point group: c1
  Charge       = 0
  Multiplicity = 1
  Basis Set: AUG-CC-PVTZ
    Blend: AUG-CC-PVTZ
  Basis Set: (AUG-CC-PVTZ AUX)
    Blend: AUG-CC-PVTZ-JKFIT

    Orbital Energies [Eh]
    ---------------------

    Doubly Occupied:

       1A    -11.221765     2A    -11.220469     3A    -11.219273
       4A    -11.212652     5A    -11.212393     6A    -11.212344
       7A     -1.148604     8A     -0.982830     9A     -0.975524
      10A     -0.906995    11A     -0.772154    12A     -0.744843
      13A     -0.640137    14A     -0.610712    15A     -0.569828
      16A     -0.568582    17A     -0.547261    18A     -0.534433
      19A     -0.528219    20A     -0.527577    21A     -0.487607
      22A     -0.473779    23A     -0.386074    24A     -0.375507

  @DF-RHF Final Energy:  -234.24805017321850

   => Energetics <=

    Nuclear Repulsion Energy =            246.1298388826166388
    One-Electron Energy =                -802.5966471091384165
    Two-Electron Energy =                 322.2187580533033042
    Total Energy =                       -234.2480501732185303
  Basis Set: (AUG-CC-PVTZ AUX)
    Blend: AUG-CC-PVTZ-RI
    Molecular point group: c1

    Geometry (in Angstrom), charge = 0, multiplicity = 1:

       Center              X                  Y                   Z               Mass
    ------------   -----------------  -----------------  -----------------  -----------------
         C            0.193357272607     0.752982752435     0.447556178237    12.000000000000
         C            0.193364272607    -0.759514247565     0.447558178237    12.000000000000
         C           -0.792169327393     0.019606852435    -0.421744421763    12.000000000000
         C            1.308510272607     1.568289752435    -0.162074821763    12.000000000000
         C            1.308525272607    -1.574807247565    -0.162074821763    12.000000000000
         C           -2.263119727393    -0.003269247565    -0.088699821763    12.000000000000
         H           -0.238152727393     1.201898752435     1.342220178237     1.007825032230
         H           -0.238138727393    -1.208432247565     1.342224178237     1.007825032230
         H           -0.553851727393    -0.003272247565    -1.474063821763     1.007825032230
         H            0.962034272607     2.581512752435    -0.390681821763     1.007825032230
         H            2.161767272607     1.649713752435     0.519816178237     1.007825032230
         H            1.666275272607     1.125665752435    -1.094976821763     1.007825032230
         H            2.161819272607    -1.656152247565     0.519778178237     1.007825032230
         H            0.962083272607    -2.588059247565    -0.390602821763     1.007825032230
         H            1.666223272607    -1.132226247565    -1.095023821763     1.007825032230
         H           -2.759823727393    -0.889774247565    -0.497285821763     1.007825032230
         H           -2.416845727393    -0.003307247565     0.995211178237     1.007825032230
         H           -2.759807727393     0.883275752435    -0.497221821763     1.007825032230

  Basis Set: AUG-CC-PVTZ
    Blend: AUG-CC-PVTZ
  Basis Set: (AUG-CC-PVTZ AUX)
    Blend: AUG-CC-PVTZ-JKFIT
	 Reference Energy          =    -234.2480501732185019 [Eh]
	 Singles Energy            =      -0.0000000000000000 [Eh]
	 Same-Spin Energy          =      -0.2538803588575758 [Eh]
	 Opposite-Spin Energy      =      -0.9200780142942736 [Eh]
	 Correlation Energy        =      -1.1739583731518493 [Eh]
	 Total Energy              =    -235.4220085463703640 [Eh]

	 ================> DF-SCS-MP2 Energies <==================
	-----------------------------------------------------------
	 SCS Same-Spin Scale       =       0.3333333333333333 [-]
	 SCS Opposite-Spin Scale   =       1.2000000000000000 [-]
	 SCS Same-Spin Energy      =      -0.0846267862858586 [Eh]
	 SCS Opposite-Spin Energy  =      -1.1040936171531284 [Eh]
	 SCS Correlation Energy    =      -1.1887204034389869 [Eh]
	 SCS Total Energy          =    -235.4367705766574943 [Eh]
	-----------------------------------------------------------

  Dipole Moment: [D]
     X:     0.0007      Y:     0.0090      Z:    -0.0059     Total:     0.0108

*** Psi4 exiting successfully. Buy a developer a beer!
