                               Psi4 1.4a3.dev225

  ==> Input File <==

--------------------------------------------------------------------------
#psi4
#
memory 32 gb

molecule  {
0 1
  C        0.1866420     0.7562470     0.4534190
  C        0.1866490    -0.7562500     0.4534210
  C       -0.7958940    -0.0000060    -0.4032040
  C        1.3017950     1.5715540    -0.1562120
  C        1.3018100    -1.5715430    -0.1562120
  C       -2.2698350    -0.0000050    -0.0828370
  H       -0.2448680     1.2051630     1.3480830
  H       -0.2448540    -1.2051680     1.3480870
  H       -0.5497790    -0.0000081    -1.5170233
  H        0.9553190     2.5847770    -0.3848190
  H        2.1550520     1.6529780     0.5256790
  H        1.6595600     1.1289300    -1.0891140
  H        2.1551040    -1.6528880     0.5256410
  H        0.9553680    -2.5847950    -0.3847400
  H        1.6595080    -1.1289620    -1.0891610
  H       -2.7665390    -0.8865100    -0.4914230
  H       -2.4235610    -0.0000430     1.0010740
  H       -2.7665230     0.8865400    -0.4913590
units angstrom
no_reorient  #important for SAPT in psi4, default
symmetry c1  #important for SAPT in psi4, default
}

set PROPERTIES_ORIGIN ["COM"]
properties('MP2/aug-cc-pvtz', properties = ['dipole'])
--------------------------------------------------------------------------

    Molecular point group: c1
  Charge       = 0
  Multiplicity = 1
  Basis Set: AUG-CC-PVTZ
    Blend: AUG-CC-PVTZ
  Basis Set: (AUG-CC-PVTZ AUX)
    Blend: AUG-CC-PVTZ-JKFIT

    Orbital Energies [Eh]
    ---------------------

    Doubly Occupied:

       1A    -11.225554     2A    -11.221270     3A    -11.220666
       4A    -11.213131     5A    -11.212631     6A    -11.212627
       7A     -1.150804     8A     -0.982643     9A     -0.975753
      10A     -0.908509    11A     -0.762893    12A     -0.745983
      13A     -0.640931    14A     -0.607638    15A     -0.570266
      16A     -0.568659    17A     -0.547548    18A     -0.534510
      19A     -0.529782    20A     -0.527555    21A     -0.479453
      22A     -0.474074    23A     -0.382492    24A     -0.382356

  @DF-RHF Final Energy:  -234.24625408868263

   => Energetics <=

    Nuclear Repulsion Energy =            246.0592736435084475
    One-Electron Energy =                -802.4555980898190910
    Two-Electron Energy =                 322.1500703576280671
    Total Energy =                       -234.2462540886826332
  Basis Set: (AUG-CC-PVTZ AUX)
    Blend: AUG-CC-PVTZ-RI
    Molecular point group: c1

    Geometry (in Angstrom), charge = 0, multiplicity = 1:

       Center              X                  Y                   Z               Mass
    ------------   -----------------  -----------------  -----------------  -----------------
         C            0.192801232082     0.756247261508     0.446332226637    12.000000000000
         C            0.192808232082    -0.756249738492     0.446334226637    12.000000000000
         C           -0.789734767918    -0.000005738492    -0.410290773363    12.000000000000
         C            1.307954232082     1.571554261508    -0.163298773363    12.000000000000
         C            1.307969232082    -1.571542738492    -0.163298773363    12.000000000000
         C           -2.263675767918    -0.000004738492    -0.089923773363    12.000000000000
         H           -0.238708767918     1.205163261508     1.340996226637     1.007825032230
         H           -0.238694767918    -1.205167738492     1.341000226637     1.007825032230
         H           -0.543619767918    -0.000007838492    -1.524110073363     1.007825032230
         H            0.961478232082     2.584777261508    -0.391905773363     1.007825032230
         H            2.161211232082     1.652978261508     0.518592226637     1.007825032230
         H            1.665719232082     1.128930261508    -1.096200773363     1.007825032230
         H            2.161263232082    -1.652887738492     0.518554226637     1.007825032230
         H            0.961527232082    -2.584794738492    -0.391826773363     1.007825032230
         H            1.665667232082    -1.128961738492    -1.096247773363     1.007825032230
         H           -2.760379767918    -0.886509738492    -0.498509773363     1.007825032230
         H           -2.417401767918    -0.000042738492     0.993987226637     1.007825032230
         H           -2.760363767918     0.886540261508    -0.498445773363     1.007825032230

  Basis Set: AUG-CC-PVTZ
    Blend: AUG-CC-PVTZ
  Basis Set: (AUG-CC-PVTZ AUX)
    Blend: AUG-CC-PVTZ-JKFIT
	 Reference Energy          =    -234.2462540886826332 [Eh]
	 Singles Energy            =      -0.0000000000000000 [Eh]
	 Same-Spin Energy          =      -0.2539596400684354 [Eh]
	 Opposite-Spin Energy      =      -0.9203149991430402 [Eh]
	 Correlation Energy        =      -1.1742746392114756 [Eh]
	 Total Energy              =    -235.4205287278941228 [Eh]

	 ================> DF-SCS-MP2 Energies <==================
	-----------------------------------------------------------
	 SCS Same-Spin Scale       =       0.3333333333333333 [-]
	 SCS Opposite-Spin Scale   =       1.2000000000000000 [-]
	 SCS Same-Spin Energy      =      -0.0846532133561451 [Eh]
	 SCS Opposite-Spin Energy  =      -1.1043779989716482 [Eh]
	 SCS Correlation Energy    =      -1.1890312123277933 [Eh]
	 SCS Total Energy          =    -235.4352853010104241 [Eh]
	-----------------------------------------------------------

  Dipole Moment: [D]
     X:    -0.0119      Y:    -0.0000      Z:     0.0205     Total:     0.0237

*** Psi4 exiting successfully. Buy a developer a beer!
