                               Psi4 1.4a3.dev225

  ==> Input File <==

--------------------------------------------------------------------------
#psi4
#
memory 32 gb

molecule  {
0 1
  C        0.1866420     0.7562470     0.4534190
  C        0.1866485    -0.6562500     0.4534209
  C       -0.7958940    -0.0000060    -0.4032040
  C        1.3017950     1.5715540    -0.1562120
  C        1.3018100    -1.5715430    -0.1562120
  C       -2.2698350    -0.0000050    -0.0828370
  H       -0.2448680     1.2051630     1.3480830
  H       -0.2448540    -1.2051680     1.3480870
  H       -0.5605670    -0.0000080    -1.4682010
  H        0.9553190     2.5847770    -0.3848190
  H        2.1550520     1.6529780     0.5256790
  H        1.6595600     1.1289300    -1.0891140
  H        2.1551040    -1.6528880     0.5256410
  H        0.9553680    -2.5847950    -0.3847400
  H        1.6595080    -1.1289620    -1.0891610
  H       -2.7665390    -0.8865100    -0.4914230
  H       -2.4235610    -0.0000430     1.0010740
  H       -2.7665230     0.8865400    -0.4913590
units angstrom
no_reorient  #important for SAPT in psi4, default
symmetry c1  #important for SAPT in psi4, default
}

set PROPERTIES_ORIGIN ["COM"]
properties('MP2/aug-cc-pvtz', properties = ['dipole'])
--------------------------------------------------------------------------

    Molecular point group: c1
  Charge       = 0
  Multiplicity = 1
  Basis Set: AUG-CC-PVTZ
    Blend: AUG-CC-PVTZ
  Basis Set: (AUG-CC-PVTZ AUX)
    Blend: AUG-CC-PVTZ-JKFIT

    Orbital Energies [Eh]
    ---------------------

    Doubly Occupied:

       1A    -11.221022     2A    -11.216780     3A    -11.215542
       4A    -11.213979     5A    -11.213087     6A    -11.212145
       7A     -1.174381     8A     -0.982908     9A     -0.966936
      10A     -0.915557    11A     -0.774012    12A     -0.737972
      13A     -0.647861    14A     -0.614009    15A     -0.568120
      16A     -0.566864    17A     -0.545591    18A     -0.536740
      19A     -0.533250    20A     -0.527322    21A     -0.483022
      22A     -0.450756    23A     -0.411467    24A     -0.374923

  @DF-RHF Final Energy:  -234.23804117624451

   => Energetics <=

    Nuclear Repulsion Energy =            247.4280493457539478
    One-Electron Energy =                -805.1236872231266943
    Two-Electron Energy =                 323.4575967011282387
    Total Energy =                       -234.2380411762445078
  Basis Set: (AUG-CC-PVTZ AUX)
    Blend: AUG-CC-PVTZ-RI
    Molecular point group: c1

    Geometry (in Angstrom), charge = 0, multiplicity = 1:

       Center              X                  Y                   Z               Mass
    ------------   -----------------  -----------------  -----------------  -----------------
         C            0.192930592433     0.741977497646     0.445747129075    12.000000000000
         C            0.192937092433    -0.670519502354     0.445749029075    12.000000000000
         C           -0.789605407567    -0.014275502354    -0.410875870925    12.000000000000
         C            1.308083592433     1.557284497646    -0.163883870925    12.000000000000
         C            1.308098592433    -1.585812502354    -0.163883870925    12.000000000000
         C           -2.263546407567    -0.014274502354    -0.090508870925    12.000000000000
         H           -0.238579407567     1.190893497646     1.340411129075     1.007825032230
         H           -0.238565407567    -1.219437502354     1.340415129075     1.007825032230
         H           -0.554278407567    -0.014277502354    -1.475872870925     1.007825032230
         H            0.961607592433     2.570507497646    -0.392490870925     1.007825032230
         H            2.161340592433     1.638708497646     0.518007129075     1.007825032230
         H            1.665848592433     1.114660497646    -1.096785870925     1.007825032230
         H            2.161392592433    -1.667157502354     0.517969129075     1.007825032230
         H            0.961656592433    -2.599064502354    -0.392411870925     1.007825032230
         H            1.665796592433    -1.143231502354    -1.096832870925     1.007825032230
         H           -2.760250407567    -0.900779502354    -0.499094870925     1.007825032230
         H           -2.417272407567    -0.014312502354     0.993402129075     1.007825032230
         H           -2.760234407567     0.872270497646    -0.499030870925     1.007825032230

  Basis Set: AUG-CC-PVTZ
    Blend: AUG-CC-PVTZ
  Basis Set: (AUG-CC-PVTZ AUX)
    Blend: AUG-CC-PVTZ-JKFIT
	 Reference Energy          =    -234.2380411762445078 [Eh]
	 Singles Energy            =      -0.0000000000000000 [Eh]
	 Same-Spin Energy          =      -0.2541534984917240 [Eh]
	 Opposite-Spin Energy      =      -0.9198097333203815 [Eh]
	 Correlation Energy        =      -1.1739632318121056 [Eh]
	 Total Energy              =    -235.4120044080566174 [Eh]

	 ================> DF-SCS-MP2 Energies <==================
	-----------------------------------------------------------
	 SCS Same-Spin Scale       =       0.3333333333333333 [-]
	 SCS Opposite-Spin Scale   =       1.2000000000000000 [-]
	 SCS Same-Spin Energy      =      -0.0847178328305747 [Eh]
	 SCS Opposite-Spin Energy  =      -1.1037716799844577 [Eh]
	 SCS Correlation Energy    =      -1.1884895128150323 [Eh]
	 SCS Total Energy          =    -235.4265306890595468 [Eh]
	-----------------------------------------------------------

  Dipole Moment: [D]
     X:     0.0286      Y:     0.0006      Z:     0.0213     Total:     0.0357

*** Psi4 exiting successfully. Buy a developer a beer!
