                               Psi4 1.4a3.dev225

  ==> Input File <==

--------------------------------------------------------------------------
#psi4
#
memory 32 gb

molecule  {
0 1
  C        0.1866420     0.7562470     0.4534190
  C        0.1866490    -0.7562500     0.4534210
  C       -0.7958940    -0.0000060    -0.4032040
  C        1.3017950     1.5715540    -0.1562120
  C        1.3018100    -1.5715430    -0.1562120
  C       -2.2698350    -0.0000050    -0.0828370
  H       -0.2448680     1.2051630     1.3480830
  H       -0.3240272    -1.2875366     1.5122425
  H       -0.5605670    -0.0000080    -1.4682010
  H        0.9553190     2.5847770    -0.3848190
  H        2.1550520     1.6529780     0.5256790
  H        1.6595600     1.1289300    -1.0891140
  H        2.1551040    -1.6528880     0.5256410
  H        0.9553680    -2.5847950    -0.3847400
  H        1.6595080    -1.1289620    -1.0891610
  H       -2.7665390    -0.8865100    -0.4914230
  H       -2.4235610    -0.0000430     1.0010740
  H       -2.7665230     0.8865400    -0.4913590
units angstrom
no_reorient  #important for SAPT in psi4, default
symmetry c1  #important for SAPT in psi4, default
}

set PROPERTIES_ORIGIN ["COM"]
properties('MP2/aug-cc-pvtz', properties = ['dipole'])
--------------------------------------------------------------------------

    Molecular point group: c1
  Charge       = 0
  Multiplicity = 1
  Basis Set: AUG-CC-PVTZ
    Blend: AUG-CC-PVTZ
  Basis Set: (AUG-CC-PVTZ AUX)
    Blend: AUG-CC-PVTZ-JKFIT

    Orbital Energies [Eh]
    ---------------------

    Doubly Occupied:

       1A    -11.243045     2A    -11.222919     3A    -11.221983
       4A    -11.215245     5A    -11.214180     6A    -11.212830
       7A     -1.151007     8A     -0.983755     9A     -0.975535
      10A     -0.909180    11A     -0.766617    12A     -0.729573
      13A     -0.633784    14A     -0.610770    15A     -0.570165
      16A     -0.569111    17A     -0.548169    18A     -0.536028
      19A     -0.530431    20A     -0.523801    21A     -0.483994
      22A     -0.458622    23A     -0.384901    24A     -0.380866

  @DF-RHF Final Energy:  -234.22775407668777

   => Energetics <=

    Nuclear Repulsion Energy =            245.4094570380213725
    One-Electron Energy =                -801.1214015083270397
    Two-Electron Energy =                 321.4841903936178369
    Total Energy =                       -234.2277540766878019
  Basis Set: (AUG-CC-PVTZ AUX)
    Blend: AUG-CC-PVTZ-RI
    Molecular point group: c1

    Geometry (in Angstrom), charge = 0, multiplicity = 1:

       Center              X                  Y                   Z               Mass
    ------------   -----------------  -----------------  -----------------  -----------------
         C            0.193879373884     0.757234408445     0.443779789930    12.000000000000
         C            0.193886373884    -0.755262591555     0.443781789930    12.000000000000
         C           -0.788656626116     0.000981408445    -0.412843210070    12.000000000000
         C            1.309032373884     1.572541408445    -0.165851210070    12.000000000000
         C            1.309047373884    -1.570555591555    -0.165851210070    12.000000000000
         C           -2.262597626116     0.000982408445    -0.092476210070    12.000000000000
         H           -0.237630626116     1.206150408445     1.338443789930     1.007825032230
         H           -0.316789826116    -1.286549191555     1.502603289930     1.007825032230
         H           -0.553329626116     0.000979408445    -1.477840210070     1.007825032230
         H            0.962556373884     2.585764408445    -0.394458210070     1.007825032230
         H            2.162289373884     1.653965408445     0.516039789930     1.007825032230
         H            1.666797373884     1.129917408445    -1.098753210070     1.007825032230
         H            2.162341373884    -1.651900591555     0.516001789930     1.007825032230
         H            0.962605373884    -2.583807591555    -0.394379210070     1.007825032230
         H            1.666745373884    -1.127974591555    -1.098800210070     1.007825032230
         H           -2.759301626116    -0.885522591555    -0.501062210070     1.007825032230
         H           -2.416323626116     0.000944408445     0.991434789930     1.007825032230
         H           -2.759285626116     0.887527408445    -0.500998210070     1.007825032230

  Basis Set: AUG-CC-PVTZ
    Blend: AUG-CC-PVTZ
  Basis Set: (AUG-CC-PVTZ AUX)
    Blend: AUG-CC-PVTZ-JKFIT
	 Reference Energy          =    -234.2277540766877735 [Eh]
	 Singles Energy            =      -0.0000000000000000 [Eh]
	 Same-Spin Energy          =      -0.2540939043525175 [Eh]
	 Opposite-Spin Energy      =      -0.9217362248295679 [Eh]
	 Correlation Energy        =      -1.1758301291820854 [Eh]
	 Total Energy              =    -235.4035842058698620 [Eh]

	 ================> DF-SCS-MP2 Energies <==================
	-----------------------------------------------------------
	 SCS Same-Spin Scale       =       0.3333333333333333 [-]
	 SCS Opposite-Spin Scale   =       1.2000000000000000 [-]
	 SCS Same-Spin Energy      =      -0.0846979681175058 [Eh]
	 SCS Opposite-Spin Energy  =      -1.1060834697954813 [Eh]
	 SCS Correlation Energy    =      -1.1907814379129871 [Eh]
	 SCS Total Energy          =    -235.4185355146007623 [Eh]
	-----------------------------------------------------------

  Dipole Moment: [D]
     X:     0.0556      Y:     0.0846      Z:    -0.1354     Total:     0.1691

*** Psi4 exiting successfully. Buy a developer a beer!
