                               Psi4 1.4a3.dev225

  ==> Input File <==

--------------------------------------------------------------------------
#psi4
#
memory 32 gb

molecule  {
0 1
  C        0.1866420     0.7562470     0.4534190
  C        0.1866490    -0.7562500     0.4534210
  C       -0.8105405     0.0914328    -0.4532905
  C        1.3017950     1.5715540    -0.1562120
  C        1.3018100    -1.5715430    -0.1562120
  C       -2.2698350    -0.0000050    -0.0828370
  H       -0.2448680     1.2051630     1.3480830
  H       -0.2448540    -1.2051680     1.3480870
  H       -0.5605670    -0.0000080    -1.4682010
  H        0.9553190     2.5847770    -0.3848190
  H        2.1550520     1.6529780     0.5256790
  H        1.6595600     1.1289300    -1.0891140
  H        2.1551040    -1.6528880     0.5256410
  H        0.9553680    -2.5847950    -0.3847400
  H        1.6595080    -1.1289620    -1.0891610
  H       -2.7665390    -0.8865100    -0.4914230
  H       -2.4235610    -0.0000430     1.0010740
  H       -2.7665230     0.8865400    -0.4913590
units angstrom
no_reorient  #important for SAPT in psi4, default
symmetry c1  #important for SAPT in psi4, default
}

set PROPERTIES_ORIGIN ["COM"]
properties('MP2/aug-cc-pvtz', properties = ['dipole'])
--------------------------------------------------------------------------

    Molecular point group: c1
  Charge       = 0
  Multiplicity = 1
  Basis Set: AUG-CC-PVTZ
    Blend: AUG-CC-PVTZ
  Basis Set: (AUG-CC-PVTZ AUX)
    Blend: AUG-CC-PVTZ-JKFIT

    Orbital Energies [Eh]
    ---------------------

    Doubly Occupied:

       1A    -11.225413     2A    -11.220888     3A    -11.219912
       4A    -11.212860     5A    -11.212448     6A    -11.211799
       7A     -1.141177     8A     -0.983207     9A     -0.975211
      10A     -0.903458    11A     -0.778948    12A     -0.742892
      13A     -0.638504    14A     -0.610322    15A     -0.570228
      16A     -0.568086    17A     -0.547287    18A     -0.534332
      19A     -0.528008    20A     -0.524312    21A     -0.496245
      22A     -0.473655    23A     -0.396700    24A     -0.355691

  @DF-RHF Final Energy:  -234.24133182228337

   => Energetics <=

    Nuclear Repulsion Energy =            245.5989637225419813
    One-Electron Energy =                -801.5374276857716040
    Two-Electron Energy =                 321.6971321409462803
    Total Energy =                       -234.2413318222833709
  Basis Set: (AUG-CC-PVTZ AUX)
    Blend: AUG-CC-PVTZ-RI
    Molecular point group: c1

    Geometry (in Angstrom), charge = 0, multiplicity = 1:

       Center              X                  Y                   Z               Mass
    ------------   -----------------  -----------------  -----------------  -----------------
         C            0.195020541873     0.743199160567     0.452894339482    12.000000000000
         C            0.195027541873    -0.769297839433     0.452896339482    12.000000000000
         C           -0.802161958127     0.078384960567    -0.453815160518    12.000000000000
         C            1.310173541873     1.558506160567    -0.156736660518    12.000000000000
         C            1.310188541873    -1.584590839433    -0.156736660518    12.000000000000
         C           -2.261456458127    -0.013052839433    -0.083361660518    12.000000000000
         H           -0.236489458127     1.192115160567     1.347558339482     1.007825032230
         H           -0.236475458127    -1.218215839433     1.347562339482     1.007825032230
         H           -0.552188458127    -0.013055839433    -1.468725660518     1.007825032230
         H            0.963697541873     2.571729160567    -0.385343660518     1.007825032230
         H            2.163430541873     1.639930160567     0.525154339482     1.007825032230
         H            1.667938541873     1.115882160567    -1.089638660518     1.007825032230
         H            2.163482541873    -1.665935839433     0.525116339482     1.007825032230
         H            0.963746541873    -2.597842839433    -0.385264660518     1.007825032230
         H            1.667886541873    -1.142009839433    -1.089685660518     1.007825032230
         H           -2.758160458127    -0.899557839433    -0.491947660518     1.007825032230
         H           -2.415182458127    -0.013090839433     1.000549339482     1.007825032230
         H           -2.758144458127     0.873492160567    -0.491883660518     1.007825032230

  Basis Set: AUG-CC-PVTZ
    Blend: AUG-CC-PVTZ
  Basis Set: (AUG-CC-PVTZ AUX)
    Blend: AUG-CC-PVTZ-JKFIT
	 Reference Energy          =    -234.2413318222833709 [Eh]
	 Singles Energy            =      -0.0000000000000000 [Eh]
	 Same-Spin Energy          =      -0.2540413577528610 [Eh]
	 Opposite-Spin Energy      =      -0.9208803553532749 [Eh]
	 Correlation Energy        =      -1.1749217131061358 [Eh]
	 Total Energy              =    -235.4162535353895009 [Eh]

	 ================> DF-SCS-MP2 Energies <==================
	-----------------------------------------------------------
	 SCS Same-Spin Scale       =       0.3333333333333333 [-]
	 SCS Opposite-Spin Scale   =       1.2000000000000000 [-]
	 SCS Same-Spin Energy      =      -0.0846804525842870 [Eh]
	 SCS Opposite-Spin Energy  =      -1.1050564264239300 [Eh]
	 SCS Correlation Energy    =      -1.1897368790082170 [Eh]
	 SCS Total Energy          =    -235.4310687012915935 [Eh]
	-----------------------------------------------------------

  Dipole Moment: [D]
     X:     0.0182      Y:     0.0260      Z:     0.0098     Total:     0.0332

*** Psi4 exiting successfully. Buy a developer a beer!
