                               Psi4 1.4a3.dev225

  ==> Input File <==

--------------------------------------------------------------------------
#psi4
#
memory 32 gb

molecule  {
0 1
  C        0.1866420     0.7562470     0.4534190
  C        0.1866490    -0.7562500     0.4534210
  C       -0.7958940    -0.0000060    -0.4032040
  C        1.3017950     1.5715540    -0.1562120
  C        1.3018100    -1.5715430    -0.1562120
  C       -2.2698350    -0.0000050    -0.0828370
  H       -0.2448680     1.2051630     1.3480830
  H       -0.2250607    -1.1845759     1.3070481
  H       -0.5605670    -0.0000080    -1.4682010
  H        0.9553190     2.5847770    -0.3848190
  H        2.1550520     1.6529780     0.5256790
  H        1.6595600     1.1289300    -1.0891140
  H        2.1551040    -1.6528880     0.5256410
  H        0.9553680    -2.5847950    -0.3847400
  H        1.6595080    -1.1289620    -1.0891610
  H       -2.7665390    -0.8865100    -0.4914230
  H       -2.4235610    -0.0000430     1.0010740
  H       -2.7665230     0.8865400    -0.4913590
units angstrom
no_reorient  #important for SAPT in psi4, default
symmetry c1  #important for SAPT in psi4, default
}

set PROPERTIES_ORIGIN ["COM"]
properties('MP2/aug-cc-pvtz', properties = ['dipole'])
--------------------------------------------------------------------------

    Molecular point group: c1
  Charge       = 0
  Multiplicity = 1
  Basis Set: AUG-CC-PVTZ
    Blend: AUG-CC-PVTZ
  Basis Set: (AUG-CC-PVTZ AUX)
    Blend: AUG-CC-PVTZ-JKFIT

    Orbital Energies [Eh]
    ---------------------

    Doubly Occupied:

       1A    -11.220239     2A    -11.219042     3A    -11.214360
       4A    -11.212510     5A    -11.212317     6A    -11.212051
       7A     -1.151775     8A     -0.982750     9A     -0.976107
      10A     -0.908184    11A     -0.773196    12A     -0.749890
      13A     -0.642750    14A     -0.610806    15A     -0.570446
      16A     -0.568362    17A     -0.547272    18A     -0.534290
      19A     -0.529688    20A     -0.528335    21A     -0.484743
      22A     -0.476233    23A     -0.382353    24A     -0.381778

  @DF-RHF Final Energy:  -234.24767307555413

   => Energetics <=

    Nuclear Repulsion Energy =            246.5424007952591126
    One-Electron Energy =                -803.4011945980948894
    Two-Electron Energy =                 322.6111207272816159
    Total Energy =                       -234.2476730755541325
  Basis Set: (AUG-CC-PVTZ AUX)
    Blend: AUG-CC-PVTZ-RI
    Molecular point group: c1

    Geometry (in Angstrom), charge = 0, multiplicity = 1:

       Center              X                  Y                   Z               Mass
    ------------   -----------------  -----------------  -----------------  -----------------
         C            0.192693307884     0.756000473875     0.446238946324    12.000000000000
         C            0.192700307884    -0.756496526125     0.446240946324    12.000000000000
         C           -0.789842692116    -0.000252526125    -0.410384053676    12.000000000000
         C            1.307846307884     1.571307473875    -0.163392053676    12.000000000000
         C            1.307861307884    -1.571789526125    -0.163392053676    12.000000000000
         C           -2.263783692116    -0.000251526125    -0.090017053676    12.000000000000
         H           -0.238816692116     1.204916473875     1.340902946324     1.007825032230
         H           -0.219009392116    -1.184822426125     1.299868046324     1.007825032230
         H           -0.554515692116    -0.000254526125    -1.475381053676     1.007825032230
         H            0.961370307884     2.584530473875    -0.391999053676     1.007825032230
         H            2.161103307884     1.652731473875     0.518498946324     1.007825032230
         H            1.665611307884     1.128683473875    -1.096294053676     1.007825032230
         H            2.161155307884    -1.653134526125     0.518460946324     1.007825032230
         H            0.961419307884    -2.585041526125    -0.391920053676     1.007825032230
         H            1.665559307884    -1.129208526125    -1.096341053676     1.007825032230
         H           -2.760487692116    -0.886756526125    -0.498603053676     1.007825032230
         H           -2.417509692116    -0.000289526125     0.993893946324     1.007825032230
         H           -2.760471692116     0.886293473875    -0.498539053676     1.007825032230

  Basis Set: AUG-CC-PVTZ
    Blend: AUG-CC-PVTZ
  Basis Set: (AUG-CC-PVTZ AUX)
    Blend: AUG-CC-PVTZ-JKFIT
	 Reference Energy          =    -234.2476730755541325 [Eh]
	 Singles Energy            =      -0.0000000000000000 [Eh]
	 Same-Spin Energy          =      -0.2538728442834470 [Eh]
	 Opposite-Spin Energy      =      -0.9197219708751632 [Eh]
	 Correlation Energy        =      -1.1735948151586102 [Eh]
	 Total Energy              =    -235.4212678907127554 [Eh]

	 ================> DF-SCS-MP2 Energies <==================
	-----------------------------------------------------------
	 SCS Same-Spin Scale       =       0.3333333333333333 [-]
	 SCS Opposite-Spin Scale   =       1.2000000000000000 [-]
	 SCS Same-Spin Energy      =      -0.0846242814278157 [Eh]
	 SCS Opposite-Spin Energy  =      -1.1036663650501957 [Eh]
	 SCS Correlation Energy    =      -1.1882906464780114 [Eh]
	 SCS Total Energy          =    -235.4359637220321417 [Eh]
	-----------------------------------------------------------

  Dipole Moment: [D]
     X:    -0.0166      Y:    -0.0135      Z:     0.0120     Total:     0.0245

*** Psi4 exiting successfully. Buy a developer a beer!
