                               Psi4 1.4a3.dev225

  ==> Input File <==

--------------------------------------------------------------------------
#psi4
#
memory 32 gb

molecule  {
0 1
  C        0.1866420     0.7562470     0.4534190
  C        0.1866490    -0.7562500     0.4534210
  C       -0.7958940    -0.0000060    -0.4032040
  C        1.4495025     1.6795454    -0.2369606
  C        1.3018100    -1.5715430    -0.1562120
  C       -2.2698350    -0.0000050    -0.0828370
  H       -0.2448680     1.2051630     1.3480830
  H       -0.2448540    -1.2051680     1.3480870
  H       -0.5605670    -0.0000080    -1.4682010
  H        0.9553190     2.5847770    -0.3848190
  H        2.1550520     1.6529780     0.5256790
  H        1.6595600     1.1289300    -1.0891140
  H        2.1551040    -1.6528880     0.5256410
  H        0.9553680    -2.5847950    -0.3847400
  H        1.6595080    -1.1289620    -1.0891610
  H       -2.7665390    -0.8865100    -0.4914230
  H       -2.4235610    -0.0000430     1.0010740
  H       -2.7665230     0.8865400    -0.4913590
units angstrom
no_reorient  #important for SAPT in psi4, default
symmetry c1  #important for SAPT in psi4, default
}

set PROPERTIES_ORIGIN ["COM"]
properties('MP2/aug-cc-pvtz', properties = ['dipole'])
--------------------------------------------------------------------------

    Molecular point group: c1
  Charge       = 0
  Multiplicity = 1
  Basis Set: AUG-CC-PVTZ
    Blend: AUG-CC-PVTZ
  Basis Set: (AUG-CC-PVTZ AUX)
    Blend: AUG-CC-PVTZ-JKFIT

    Orbital Energies [Eh]
    ---------------------

    Doubly Occupied:

       1A    -11.226748     2A    -11.220012     3A    -11.218923
       4A    -11.212630     5A    -11.211881     6A    -11.210668
       7A     -1.143674     8A     -0.980814     9A     -0.965759
      10A     -0.913161    11A     -0.767157    12A     -0.742709
      13A     -0.637361    14A     -0.601545    15A     -0.586942
      16A     -0.575363    17A     -0.556140    18A     -0.550750
      19A     -0.532753    20A     -0.520577    21A     -0.481686
      22A     -0.439392    23A     -0.387436    24A     -0.375578

  @DF-RHF Final Energy:  -234.22131762758511

   => Energetics <=

    Nuclear Repulsion Energy =            243.5898983068369716
    One-Electron Energy =                -797.5031139605010821
    Two-Electron Energy =                 319.6918980260790022
    Total Energy =                       -234.2213176275851083
  Basis Set: (AUG-CC-PVTZ AUX)
    Blend: AUG-CC-PVTZ-RI
    Molecular point group: c1

    Geometry (in Angstrom), charge = 0, multiplicity = 1:

       Center              X                  Y                   Z               Mass
    ------------   -----------------  -----------------  -----------------  -----------------
         C            0.171853011398     0.740837143832     0.457269748380    12.000000000000
         C            0.171860011398    -0.771659856168     0.457271748380    12.000000000000
         C           -0.810682988602    -0.015415856168    -0.399353251620    12.000000000000
         C            1.434713511398     1.664135543832    -0.233109851620    12.000000000000
         C            1.287021011398    -1.586952856168    -0.152361251620    12.000000000000
         C           -2.284623988602    -0.015414856168    -0.078986251620    12.000000000000
         H           -0.259656988602     1.189753143832     1.351933748380     1.007825032230
         H           -0.259642988602    -1.220577856168     1.351937748380     1.007825032230
         H           -0.575355988602    -0.015417856168    -1.464350251620     1.007825032230
         H            0.940530011398     2.569367143832    -0.380968251620     1.007825032230
         H            2.140263011398     1.637568143832     0.529529748380     1.007825032230
         H            1.644771011398     1.113520143832    -1.085263251620     1.007825032230
         H            2.140315011398    -1.668297856168     0.529491748380     1.007825032230
         H            0.940579011398    -2.600204856168    -0.380889251620     1.007825032230
         H            1.644719011398    -1.144371856168    -1.085310251620     1.007825032230
         H           -2.781327988602    -0.901919856168    -0.487572251620     1.007825032230
         H           -2.438349988602    -0.015452856168     1.004924748380     1.007825032230
         H           -2.781311988602     0.871130143832    -0.487508251620     1.007825032230

  Basis Set: AUG-CC-PVTZ
    Blend: AUG-CC-PVTZ
  Basis Set: (AUG-CC-PVTZ AUX)
    Blend: AUG-CC-PVTZ-JKFIT
	 Reference Energy          =    -234.2213176275851083 [Eh]
	 Singles Energy            =      -0.0000000000000000 [Eh]
	 Same-Spin Energy          =      -0.2538006702969694 [Eh]
	 Opposite-Spin Energy      =      -0.9211081446185261 [Eh]
	 Correlation Energy        =      -1.1749088149154954 [Eh]
	 Total Energy              =    -235.3962264425005912 [Eh]

	 ================> DF-SCS-MP2 Energies <==================
	-----------------------------------------------------------
	 SCS Same-Spin Scale       =       0.3333333333333333 [-]
	 SCS Opposite-Spin Scale   =       1.2000000000000000 [-]
	 SCS Same-Spin Energy      =      -0.0846002234323231 [Eh]
	 SCS Opposite-Spin Energy  =      -1.1053297735422312 [Eh]
	 SCS Correlation Energy    =      -1.1899299969745543 [Eh]
	 SCS Total Energy          =    -235.4112476245596497 [Eh]
	-----------------------------------------------------------

  Dipole Moment: [D]
     X:    -0.0246      Y:    -0.0146      Z:     0.0188     Total:     0.0343

*** Psi4 exiting successfully. Buy a developer a beer!
