                               Psi4 1.4a3.dev225

  ==> Input File <==

--------------------------------------------------------------------------
#psi4
#
memory 32 gb

molecule  {
0 1
  C        0.1866420     0.7562470     0.4534190
  C        0.1866490    -0.7562500     0.4534210
  C       -0.7958940    -0.0000060    -0.4032040
  C        1.2785497     1.6754034    -0.0393596
  C        1.3018100    -1.5715430    -0.1562120
  C       -2.2698350    -0.0000050    -0.0828370
  H       -0.2448680     1.2051630     1.3480830
  H       -0.2448540    -1.2051680     1.3480870
  H       -0.5605670    -0.0000080    -1.4682010
  H        0.9553190     2.5847770    -0.3848190
  H        2.1550520     1.6529780     0.5256790
  H        1.6595600     1.1289300    -1.0891140
  H        2.1551040    -1.6528880     0.5256410
  H        0.9553680    -2.5847950    -0.3847400
  H        1.6595080    -1.1289620    -1.0891610
  H       -2.7665390    -0.8865100    -0.4914230
  H       -2.4235610    -0.0000430     1.0010740
  H       -2.7665230     0.8865400    -0.4913590
units angstrom
no_reorient  #important for SAPT in psi4, default
symmetry c1  #important for SAPT in psi4, default
}

set PROPERTIES_ORIGIN ["COM"]
properties('MP2/aug-cc-pvtz', properties = ['dipole'])
--------------------------------------------------------------------------

    Molecular point group: c1
  Charge       = 0
  Multiplicity = 1
  Basis Set: AUG-CC-PVTZ
    Blend: AUG-CC-PVTZ
  Basis Set: (AUG-CC-PVTZ AUX)
    Blend: AUG-CC-PVTZ-JKFIT

    Orbital Energies [Eh]
    ---------------------

    Doubly Occupied:

       1A    -11.223070     2A    -11.221572     3A    -11.221021
       4A    -11.216819     5A    -11.213069     6A    -11.212393
       7A     -1.150584     8A     -0.983636     9A     -0.978559
      10A     -0.909965    11A     -0.769622    12A     -0.747333
      13A     -0.640326    14A     -0.612638    15A     -0.596075
      16A     -0.568187    17A     -0.551796    18A     -0.536631
      19A     -0.531827    20A     -0.508590    21A     -0.484056
      22A     -0.446497    23A     -0.387568    24A     -0.384128

  @DF-RHF Final Energy:  -234.22546168640747

   => Energetics <=

    Nuclear Repulsion Energy =            245.6509768287722864
    One-Electron Energy =                -801.5609574506037234
    Two-Electron Energy =                 321.6845189354239665
    Total Energy =                       -234.2254616864074706
  Basis Set: (AUG-CC-PVTZ AUX)
    Blend: AUG-CC-PVTZ-RI
    Molecular point group: c1

    Geometry (in Angstrom), charge = 0, multiplicity = 1:

       Center              X                  Y                   Z               Mass
    ------------   -----------------  -----------------  -----------------  -----------------
         C            0.196247570225     0.741428197402     0.429072554659    12.000000000000
         C            0.196254570225    -0.771068802598     0.429074554659    12.000000000000
         C           -0.786288429775    -0.014824802598    -0.427550445341    12.000000000000
         C            1.288155270225     1.660584597402    -0.063706045341    12.000000000000
         C            1.311415570225    -1.586361802598    -0.180558445341    12.000000000000
         C           -2.260229429775    -0.014823802598    -0.107183445341    12.000000000000
         H           -0.235262429775     1.190344197402     1.323736554659     1.007825032230
         H           -0.235248429775    -1.219986802598     1.323740554659     1.007825032230
         H           -0.550961429775    -0.014826802598    -1.492547445341     1.007825032230
         H            0.964924570225     2.569958197402    -0.409165445341     1.007825032230
         H            2.164657570225     1.638159197402     0.501332554659     1.007825032230
         H            1.669165570225     1.114111197402    -1.113460445341     1.007825032230
         H            2.164709570225    -1.667706802598     0.501294554659     1.007825032230
         H            0.964973570225    -2.599613802598    -0.409086445341     1.007825032230
         H            1.669113570225    -1.143780802598    -1.113507445341     1.007825032230
         H           -2.756933429775    -0.901328802598    -0.515769445341     1.007825032230
         H           -2.413955429775    -0.014861802598     0.976727554659     1.007825032230
         H           -2.756917429775     0.871721197402    -0.515705445341     1.007825032230

  Basis Set: AUG-CC-PVTZ
    Blend: AUG-CC-PVTZ
  Basis Set: (AUG-CC-PVTZ AUX)
    Blend: AUG-CC-PVTZ-JKFIT
	 Reference Energy          =    -234.2254616864074706 [Eh]
	 Singles Energy            =      -0.0000000000000000 [Eh]
	 Same-Spin Energy          =      -0.2542018873241670 [Eh]
	 Opposite-Spin Energy      =      -0.9211010920683869 [Eh]
	 Correlation Energy        =      -1.1753029793925540 [Eh]
	 Total Energy              =    -235.4007646658000112 [Eh]

	 ================> DF-SCS-MP2 Energies <==================
	-----------------------------------------------------------
	 SCS Same-Spin Scale       =       0.3333333333333333 [-]
	 SCS Opposite-Spin Scale   =       1.2000000000000000 [-]
	 SCS Same-Spin Energy      =      -0.0847339624413890 [Eh]
	 SCS Opposite-Spin Energy  =      -1.1053213104820643 [Eh]
	 SCS Correlation Energy    =      -1.1900552729234533 [Eh]
	 SCS Total Energy          =    -235.4155169593309154 [Eh]
	-----------------------------------------------------------

  Dipole Moment: [D]
     X:    -0.0391      Y:     0.0032      Z:     0.0401     Total:     0.0560

*** Psi4 exiting successfully. Buy a developer a beer!
