                               Psi4 1.4a3.dev225

  ==> Input File <==

--------------------------------------------------------------------------
#psi4
#
memory 32 gb

molecule  {
0 1
  C        0.2628769     0.7225956     0.3892287
  C        0.1866490    -0.7562500     0.4534210
  C       -0.7958940    -0.0000060    -0.4032040
  C        1.3017950     1.5715540    -0.1562120
  C        1.3018100    -1.5715430    -0.1562120
  C       -2.2698350    -0.0000050    -0.0828370
  H       -0.2448680     1.2051630     1.3480830
  H       -0.2448540    -1.2051680     1.3480870
  H       -0.5605670    -0.0000080    -1.4682010
  H        0.9553190     2.5847770    -0.3848190
  H        2.1550520     1.6529780     0.5256790
  H        1.6595600     1.1289300    -1.0891140
  H        2.1551040    -1.6528880     0.5256410
  H        0.9553680    -2.5847950    -0.3847400
  H        1.6595080    -1.1289620    -1.0891610
  H       -2.7665390    -0.8865100    -0.4914230
  H       -2.4235610    -0.0000430     1.0010740
  H       -2.7665230     0.8865400    -0.4913590
units angstrom
no_reorient  #important for SAPT in psi4, default
symmetry c1  #important for SAPT in psi4, default
}

set PROPERTIES_ORIGIN ["COM"]
properties('MP2/aug-cc-pvtz', properties = ['dipole'])
--------------------------------------------------------------------------

    Molecular point group: c1
  Charge       = 0
  Multiplicity = 1
  Basis Set: AUG-CC-PVTZ
    Blend: AUG-CC-PVTZ
  Basis Set: (AUG-CC-PVTZ AUX)
    Blend: AUG-CC-PVTZ-JKFIT

    Orbital Energies [Eh]
    ---------------------

    Doubly Occupied:

       1A    -11.225112     2A    -11.221301     3A    -11.218733
       4A    -11.213917     5A    -11.211889     6A    -11.211802
       7A     -1.158277     8A     -0.991159     9A     -0.979943
      10A     -0.912254    11A     -0.768234    12A     -0.735041
      13A     -0.644180    14A     -0.613497    15A     -0.574308
      16A     -0.569472    17A     -0.551248    18A     -0.543258
      19A     -0.531824    20A     -0.524013    21A     -0.483392
      22A     -0.461900    23A     -0.388815    24A     -0.374803

  @DF-RHF Final Energy:  -234.23555296994419

   => Energetics <=

    Nuclear Repulsion Energy =            247.0747853518875843
    One-Electron Energy =                -804.4039353254476055
    Two-Electron Energy =                 323.0935970036157983
    Total Energy =                       -234.2355529699441945
  Basis Set: (AUG-CC-PVTZ AUX)
    Blend: AUG-CC-PVTZ-RI
    Molecular point group: c1

    Geometry (in Angstrom), charge = 0, multiplicity = 1:

       Center              X                  Y                   Z               Mass
    ------------   -----------------  -----------------  -----------------  -----------------
         C            0.258286881787     0.727397835223     0.390716618269    12.000000000000
         C            0.182058981787    -0.751447764777     0.454908918269    12.000000000000
         C           -0.800484018213     0.004796235223    -0.401716081731    12.000000000000
         C            1.297204981787     1.576356235223    -0.154724081731    12.000000000000
         C            1.297219981787    -1.566740764777    -0.154724081731    12.000000000000
         C           -2.274425018213     0.004797235223    -0.081349081731    12.000000000000
         H           -0.249458018213     1.209965235223     1.349570918269     1.007825032230
         H           -0.249444018213    -1.200365764777     1.349574918269     1.007825032230
         H           -0.565157018213     0.004794235223    -1.466713081731     1.007825032230
         H            0.950728981787     2.589579235223    -0.383331081731     1.007825032230
         H            2.150461981787     1.657780235223     0.527166918269     1.007825032230
         H            1.654969981787     1.133732235223    -1.087626081731     1.007825032230
         H            2.150513981787    -1.648085764777     0.527128918269     1.007825032230
         H            0.950777981787    -2.579992764777    -0.383252081731     1.007825032230
         H            1.654917981787    -1.124159764777    -1.087673081731     1.007825032230
         H           -2.771129018213    -0.881707764777    -0.489935081731     1.007825032230
         H           -2.428151018213     0.004759235223     1.002561918269     1.007825032230
         H           -2.771113018213     0.891342235223    -0.489871081731     1.007825032230

  Basis Set: AUG-CC-PVTZ
    Blend: AUG-CC-PVTZ
  Basis Set: (AUG-CC-PVTZ AUX)
    Blend: AUG-CC-PVTZ-JKFIT
	 Reference Energy          =    -234.2355529699441945 [Eh]
	 Singles Energy            =      -0.0000000000000000 [Eh]
	 Same-Spin Energy          =      -0.2547635074953867 [Eh]
	 Opposite-Spin Energy      =      -0.9211585139198544 [Eh]
	 Correlation Energy        =      -1.1759220214152410 [Eh]
	 Total Energy              =    -235.4114749913594267 [Eh]

	 ================> DF-SCS-MP2 Energies <==================
	-----------------------------------------------------------
	 SCS Same-Spin Scale       =       0.3333333333333333 [-]
	 SCS Opposite-Spin Scale   =       1.2000000000000000 [-]
	 SCS Same-Spin Energy      =      -0.0849211691651289 [Eh]
	 SCS Opposite-Spin Energy  =      -1.1053902167038252 [Eh]
	 SCS Correlation Energy    =      -1.1903113858689540 [Eh]
	 SCS Total Energy          =    -235.4258643558131610 [Eh]
	-----------------------------------------------------------

  Dipole Moment: [D]
     X:     0.0223      Y:     0.0045      Z:    -0.0465     Total:     0.0517

*** Psi4 exiting successfully. Buy a developer a beer!
