                               Psi4 1.4a3.dev225

  ==> Input File <==

--------------------------------------------------------------------------
#psi4
#
memory 32 gb

molecule  {
0 1
  C        0.1866420     0.7562470     0.4534190
  C        0.1866490    -0.7562500     0.4534210
  C       -0.7884284    -0.0914448    -0.3515567
  C        1.3017950     1.5715540    -0.1562120
  C        1.3018100    -1.5715430    -0.1562120
  C       -2.2698350    -0.0000050    -0.0828370
  H       -0.2448680     1.2051630     1.3480830
  H       -0.2448540    -1.2051680     1.3480870
  H       -0.5605670    -0.0000080    -1.4682010
  H        0.9553190     2.5847770    -0.3848190
  H        2.1550520     1.6529780     0.5256790
  H        1.6595600     1.1289300    -1.0891140
  H        2.1551040    -1.6528880     0.5256410
  H        0.9553680    -2.5847950    -0.3847400
  H        1.6595080    -1.1289620    -1.0891610
  H       -2.7665390    -0.8865100    -0.4914230
  H       -2.4235610    -0.0000430     1.0010740
  H       -2.7665230     0.8865400    -0.4913590
units angstrom
no_reorient  #important for SAPT in psi4, default
symmetry c1  #important for SAPT in psi4, default
}

set PROPERTIES_ORIGIN ["COM"]
properties('MP2/aug-cc-pvtz', properties = ['dipole'])
--------------------------------------------------------------------------

    Molecular point group: c1
  Charge       = 0
  Multiplicity = 1
  Basis Set: AUG-CC-PVTZ
    Blend: AUG-CC-PVTZ
  Basis Set: (AUG-CC-PVTZ AUX)
    Blend: AUG-CC-PVTZ-JKFIT

    Orbital Energies [Eh]
    ---------------------

    Doubly Occupied:

       1A    -11.222540     2A    -11.220422     3A    -11.216681
       4A    -11.214015     5A    -11.213800     6A    -11.212337
       7A     -1.162032     8A     -0.983415     9A     -0.976269
      10A     -0.913256    11A     -0.761367    12A     -0.748993
      13A     -0.643967    14A     -0.610135    15A     -0.572238
      16A     -0.568782    17A     -0.548394    18A     -0.534812
      19A     -0.534359    20A     -0.527501    21A     -0.474913
      22A     -0.467679    23A     -0.407477    24A     -0.365590

  @DF-RHF Final Energy:  -234.23987800075474

   => Energetics <=

    Nuclear Repulsion Energy =            246.8503221374124337
    One-Electron Energy =                -803.9784558049625502
    Two-Electron Energy =                 322.8882556667954304
    Total Energy =                       -234.2398780007547430
  Basis Set: (AUG-CC-PVTZ AUX)
    Blend: AUG-CC-PVTZ-RI
    Molecular point group: c1

    Geometry (in Angstrom), charge = 0, multiplicity = 1:

       Center              X                  Y                   Z               Mass
    ------------   -----------------  -----------------  -----------------  -----------------
         C            0.191865197683     0.769295360052     0.438377167673    12.000000000000
         C            0.191872197683    -0.743201639948     0.438379167673    12.000000000000
         C           -0.783205202317    -0.078396439948    -0.366598532327    12.000000000000
         C            1.307018197683     1.584602360052    -0.171253832327    12.000000000000
         C            1.307033197683    -1.558494639948    -0.171253832327    12.000000000000
         C           -2.264611802317     0.013043360052    -0.097878832327    12.000000000000
         H           -0.239644802317     1.218211360052     1.333041167673     1.007825032230
         H           -0.239630802317    -1.192119639948     1.333045167673     1.007825032230
         H           -0.555343802317     0.013040360052    -1.483242832327     1.007825032230
         H            0.960542197683     2.597825360052    -0.399860832327     1.007825032230
         H            2.160275197683     1.666026360052     0.510637167673     1.007825032230
         H            1.664783197683     1.141978360052    -1.104155832327     1.007825032230
         H            2.160327197683    -1.639839639948     0.510599167673     1.007825032230
         H            0.960591197683    -2.571746639948    -0.399781832327     1.007825032230
         H            1.664731197683    -1.115913639948    -1.104202832327     1.007825032230
         H           -2.761315802317    -0.873461639948    -0.506464832327     1.007825032230
         H           -2.418337802317     0.013005360052     0.986032167673     1.007825032230
         H           -2.761299802317     0.899588360052    -0.506400832327     1.007825032230

  Basis Set: AUG-CC-PVTZ
    Blend: AUG-CC-PVTZ
  Basis Set: (AUG-CC-PVTZ AUX)
    Blend: AUG-CC-PVTZ-JKFIT
	 Reference Energy          =    -234.2398780007547430 [Eh]
	 Singles Energy            =      -0.0000000000000000 [Eh]
	 Same-Spin Energy          =      -0.2544309561549710 [Eh]
	 Opposite-Spin Energy      =      -0.9205011507869312 [Eh]
	 Correlation Energy        =      -1.1749321069419021 [Eh]
	 Total Energy              =    -235.4148101076966384 [Eh]

	 ================> DF-SCS-MP2 Energies <==================
	-----------------------------------------------------------
	 SCS Same-Spin Scale       =       0.3333333333333333 [-]
	 SCS Opposite-Spin Scale   =       1.2000000000000000 [-]
	 SCS Same-Spin Energy      =      -0.0848103187183236 [Eh]
	 SCS Opposite-Spin Energy  =      -1.1046013809443174 [Eh]
	 SCS Correlation Energy    =      -1.1894116996626409 [Eh]
	 SCS Total Energy          =    -235.4292897004173710 [Eh]
	-----------------------------------------------------------

  Dipole Moment: [D]
     X:    -0.0354      Y:    -0.0465      Z:    -0.0100     Total:     0.0593

*** Psi4 exiting successfully. Buy a developer a beer!
