                               Psi4 1.4a3.dev225

  ==> Input File <==

--------------------------------------------------------------------------
#psi4
#
memory 32 gb

molecule  {
0 1
  C        0.1866420     0.7562470     0.4534190
  C        0.1866490    -0.7562500     0.4534210
  C       -0.7958940    -0.0000060    -0.4032040
  C        1.3017950     1.5715540    -0.1562120
  C        1.3018100    -1.5715430    -0.1562120
  C       -2.2698350    -0.0000050    -0.0828370
  H       -0.2448680     1.2051630     1.3480830
  H       -0.2448540    -1.2051680     1.3480870
  H       -0.5605670    -0.0000080    -1.4682010
  H        0.9553190     2.5847770    -0.3848190
  H        2.1550520     1.6529780     0.5256790
  H        1.6595600     1.1289300    -1.0891140
  H        2.1551040    -1.6528880     0.5256410
  H        0.9553680    -2.5847950    -0.3847400
  H        1.6595080    -1.1289620    -1.0891610
  H       -2.7665390    -0.8865100    -0.4914230
  H       -2.4235610    -0.0000430     1.0010740
  H       -2.7665230     0.8865400    -0.4913590
units angstrom
no_reorient  #important for SAPT in psi4, default
symmetry c1  #important for SAPT in psi4, default
}

set PROPERTIES_ORIGIN ["COM"]
properties('MP2/aug-cc-pvtz', properties = ['dipole'])
--------------------------------------------------------------------------

    Molecular point group: c1
  Charge       = 0
  Multiplicity = 1
  Basis Set: AUG-CC-PVTZ
    Blend: AUG-CC-PVTZ
  Basis Set: (AUG-CC-PVTZ AUX)
    Blend: AUG-CC-PVTZ-JKFIT

    Orbital Energies [Eh]
    ---------------------

    Doubly Occupied:

       1A    -11.220969     2A    -11.220146     3A    -11.219402
       4A    -11.212588     5A    -11.212584     6A    -11.212528
       7A     -1.151190     8A     -0.982823     9A     -0.975655
      10A     -0.908210    11A     -0.769850    12A     -0.745636
      13A     -0.640779    14A     -0.610713    15A     -0.570060
      16A     -0.568616    17A     -0.547379    18A     -0.534488
      19A     -0.529510    20A     -0.527530    21A     -0.484124
      22A     -0.473862    23A     -0.382361    24A     -0.381982

  @DF-RHF Final Energy:  -234.24851541254537

   => Energetics <=

    Nuclear Repulsion Energy =            246.2905172240411389
    One-Electron Energy =                -802.9120941775712481
    Two-Electron Energy =                 322.3730615409847928
    Total Energy =                       -234.2485154125453732
  Basis Set: (AUG-CC-PVTZ AUX)
    Blend: AUG-CC-PVTZ-RI
    Molecular point group: c1

    Geometry (in Angstrom), charge = 0, multiplicity = 1:

       Center              X                  Y                   Z               Mass
    ------------   -----------------  -----------------  -----------------  -----------------
         C            0.192930521084     0.756247260310     0.445747114806    12.000000000000
         C            0.192937521084    -0.756249739690     0.445749114806    12.000000000000
         C           -0.789605478916    -0.000005739690    -0.410875885194    12.000000000000
         C            1.308083521084     1.571554260310    -0.163883885194    12.000000000000
         C            1.308098521084    -1.571542739690    -0.163883885194    12.000000000000
         C           -2.263546478916    -0.000004739690    -0.090508885194    12.000000000000
         H           -0.238579478916     1.205163260310     1.340411114806     1.007825032230
         H           -0.238565478916    -1.205167739690     1.340415114806     1.007825032230
         H           -0.554278478916    -0.000007739690    -1.475872885194     1.007825032230
         H            0.961607521084     2.584777260310    -0.392490885194     1.007825032230
         H            2.161340521084     1.652978260310     0.518007114806     1.007825032230
         H            1.665848521084     1.128930260310    -1.096785885194     1.007825032230
         H            2.161392521084    -1.652887739690     0.517969114806     1.007825032230
         H            0.961656521084    -2.584794739690    -0.392411885194     1.007825032230
         H            1.665796521084    -1.128961739690    -1.096832885194     1.007825032230
         H           -2.760250478916    -0.886509739690    -0.499094885194     1.007825032230
         H           -2.417272478916    -0.000042739690     0.993402114806     1.007825032230
         H           -2.760234478916     0.886540260310    -0.499030885194     1.007825032230

  Basis Set: AUG-CC-PVTZ
    Blend: AUG-CC-PVTZ
  Basis Set: (AUG-CC-PVTZ AUX)
    Blend: AUG-CC-PVTZ-JKFIT
	 Reference Energy          =    -234.2485154125453732 [Eh]
	 Singles Energy            =      -0.0000000000000000 [Eh]
	 Same-Spin Energy          =      -0.2539073764088926 [Eh]
	 Opposite-Spin Energy      =      -0.9199840309839720 [Eh]
	 Correlation Energy        =      -1.1738914073928646 [Eh]
	 Total Energy              =    -235.4224068199382316 [Eh]

	 ================> DF-SCS-MP2 Energies <==================
	-----------------------------------------------------------
	 SCS Same-Spin Scale       =       0.3333333333333333 [-]
	 SCS Opposite-Spin Scale   =       1.2000000000000000 [-]
	 SCS Same-Spin Energy      =      -0.0846357921362975 [Eh]
	 SCS Opposite-Spin Energy  =      -1.1039808371807662 [Eh]
	 SCS Correlation Energy    =      -1.1886166293170637 [Eh]
	 SCS Total Energy          =    -235.4371320418624407 [Eh]
	-----------------------------------------------------------

  Dipole Moment: [D]
     X:    -0.0053      Y:    -0.0000      Z:    -0.0089     Total:     0.0103

*** Psi4 exiting successfully. Buy a developer a beer!
