                               Psi4 1.4a3.dev225

  ==> Input File <==

--------------------------------------------------------------------------
#psi4
#
memory 32 gb

molecule  {
0 1
  C        0.1866420     0.7562470     0.4534190
  C        0.1866490    -0.7562500     0.4534210
  C       -0.7958940    -0.0000060    -0.4032040
  C        1.3017950     1.5715540    -0.1562120
  C        1.3018100    -1.5715430    -0.1562120
  C       -2.2698350    -0.0000050    -0.0828370
  H       -0.2448680     1.2051630     1.3480830
  H       -0.2448540    -1.2051680     1.3480870
  H       -0.5713550    -0.0000079    -1.4193787
  H        0.9553190     2.5847770    -0.3848190
  H        2.1550520     1.6529780     0.5256790
  H        1.6595600     1.1289300    -1.0891140
  H        2.1551040    -1.6528880     0.5256410
  H        0.9553680    -2.5847950    -0.3847400
  H        1.6595080    -1.1289620    -1.0891610
  H       -2.7665390    -0.8865100    -0.4914230
  H       -2.4235610    -0.0000430     1.0010740
  H       -2.7665230     0.8865400    -0.4913590
units angstrom
no_reorient  #important for SAPT in psi4, default
symmetry c1  #important for SAPT in psi4, default
}

set PROPERTIES_ORIGIN ["COM"]
properties('MP2/aug-cc-pvtz', properties = ['dipole'])
--------------------------------------------------------------------------

    Molecular point group: c1
  Charge       = 0
  Multiplicity = 1
  Basis Set: AUG-CC-PVTZ
    Blend: AUG-CC-PVTZ
  Basis Set: (AUG-CC-PVTZ AUX)
    Blend: AUG-CC-PVTZ-JKFIT

    Orbital Energies [Eh]
    ---------------------

    Doubly Occupied:

       1A    -11.220399     2A    -11.219706     3A    -11.213481
       4A    -11.212566     5A    -11.212562     6A    -11.211937
       7A     -1.151812     8A     -0.983167     9A     -0.975585
      10A     -0.907956    11A     -0.777891    12A     -0.745339
      13A     -0.640748    14A     -0.613819    15A     -0.569893
      16A     -0.568602    17A     -0.547236    18A     -0.534483
      19A     -0.529281    20A     -0.527568    21A     -0.488374
      22A     -0.473688    23A     -0.382367    24A     -0.381571

  @DF-RHF Final Energy:  -234.24766537163941

   => Energetics <=

    Nuclear Repulsion Energy =            246.5352735379925093
    One-Electron Energy =                -803.3858122616431956
    Two-Electron Energy =                 322.6028733520113292
    Total Energy =                       -234.2476653716394139
  Basis Set: (AUG-CC-PVTZ AUX)
    Blend: AUG-CC-PVTZ-RI
    Molecular point group: c1

    Geometry (in Angstrom), charge = 0, multiplicity = 1:

       Center              X                  Y                   Z               Mass
    ------------   -----------------  -----------------  -----------------  -----------------
         C            0.193059810086     0.756247259111     0.445162002974    12.000000000000
         C            0.193066810086    -0.756249740889     0.445164002974    12.000000000000
         C           -0.789476189914    -0.000005740889    -0.411460997026    12.000000000000
         C            1.308212810086     1.571554259111    -0.164468997026    12.000000000000
         C            1.308227810086    -1.571542740889    -0.164468997026    12.000000000000
         C           -2.263417189914    -0.000004740889    -0.091093997026    12.000000000000
         H           -0.238450189914     1.205163259111     1.339826002974     1.007825032230
         H           -0.238436189914    -1.205167740889     1.339830002974     1.007825032230
         H           -0.564937189914    -0.000007640889    -1.427635697026     1.007825032230
         H            0.961736810086     2.584777259111    -0.393075997026     1.007825032230
         H            2.161469810086     1.652978259111     0.517422002974     1.007825032230
         H            1.665977810086     1.128930259111    -1.097370997026     1.007825032230
         H            2.161521810086    -1.652887740889     0.517384002974     1.007825032230
         H            0.961785810086    -2.584794740889    -0.392996997026     1.007825032230
         H            1.665925810086    -1.128961740889    -1.097417997026     1.007825032230
         H           -2.760121189914    -0.886509740889    -0.499679997026     1.007825032230
         H           -2.417143189914    -0.000042740889     0.992817002974     1.007825032230
         H           -2.760105189914     0.886540259111    -0.499615997026     1.007825032230

  Basis Set: AUG-CC-PVTZ
    Blend: AUG-CC-PVTZ
  Basis Set: (AUG-CC-PVTZ AUX)
    Blend: AUG-CC-PVTZ-JKFIT
	 Reference Energy          =    -234.2476653716394139 [Eh]
	 Singles Energy            =      -0.0000000000000000 [Eh]
	 Same-Spin Energy          =      -0.2538633951325586 [Eh]
	 Opposite-Spin Energy      =      -0.9197351042844776 [Eh]
	 Correlation Energy        =      -1.1735984994170363 [Eh]
	 Total Energy              =    -235.4212638710564534 [Eh]

	 ================> DF-SCS-MP2 Energies <==================
	-----------------------------------------------------------
	 SCS Same-Spin Scale       =       0.3333333333333333 [-]
	 SCS Opposite-Spin Scale   =       1.2000000000000000 [-]
	 SCS Same-Spin Energy      =      -0.0846211317108529 [Eh]
	 SCS Opposite-Spin Energy  =      -1.1036821251413731 [Eh]
	 SCS Correlation Energy    =      -1.1883032568522260 [Eh]
	 SCS Total Energy          =    -235.4359686284916506 [Eh]
	-----------------------------------------------------------

  Dipole Moment: [D]
     X:     0.0012      Y:    -0.0000      Z:    -0.0335     Total:     0.0335

*** Psi4 exiting successfully. Buy a developer a beer!
