                               Psi4 1.4a3.dev225

  ==> Input File <==

--------------------------------------------------------------------------
#psi4
#
memory 32 gb

molecule  {
0 1
  C        0.1866420     0.7562470     0.4534190
  C        0.1866490    -0.7562500     0.4534210
  C       -0.7958940    -0.0000060    -0.4032040
  C        1.2876427     1.6418518    -0.0789749
  C        1.3018100    -1.5715430    -0.1562120
  C       -2.2698350    -0.0000050    -0.0828370
  H       -0.2448680     1.2051630     1.3480830
  H       -0.2448540    -1.2051680     1.3480870
  H       -0.5605670    -0.0000080    -1.4682010
  H        0.9553190     2.5847770    -0.3848190
  H        2.1550520     1.6529780     0.5256790
  H        1.6595600     1.1289300    -1.0891140
  H        2.1551040    -1.6528880     0.5256410
  H        0.9553680    -2.5847950    -0.3847400
  H        1.6595080    -1.1289620    -1.0891610
  H       -2.7665390    -0.8865100    -0.4914230
  H       -2.4235610    -0.0000430     1.0010740
  H       -2.7665230     0.8865400    -0.4913590
units angstrom
no_reorient  #important for SAPT in psi4, default
symmetry c1  #important for SAPT in psi4, default
}

set PROPERTIES_ORIGIN ["COM"]
properties('MP2/aug-cc-pvtz', properties = ['dipole'])
--------------------------------------------------------------------------

    Molecular point group: c1
  Charge       = 0
  Multiplicity = 1
  Basis Set: AUG-CC-PVTZ
    Blend: AUG-CC-PVTZ
  Basis Set: (AUG-CC-PVTZ AUX)
    Blend: AUG-CC-PVTZ-JKFIT

    Orbital Energies [Eh]
    ---------------------

    Doubly Occupied:

       1A    -11.222171     2A    -11.220827     3A    -11.220327
       4A    -11.214425     5A    -11.212823     6A    -11.212428
       7A     -1.150576     8A     -0.983096     9A     -0.977424
      10A     -0.909179    11A     -0.769440    12A     -0.746210
      13A     -0.640200    14A     -0.611223    15A     -0.586193
      16A     -0.568122    17A     -0.550704    18A     -0.536993
      19A     -0.531093    20A     -0.514034    21A     -0.483915
      22A     -0.457377    23A     -0.385949    24A     -0.383861

  @DF-RHF Final Energy:  -234.23759138480506

   => Energetics <=

    Nuclear Repulsion Energy =            245.8560511586215398
    One-Electron Energy =                -802.0101071339555574
    Two-Electron Energy =                 321.9164645905289603
    Total Energy =                       -234.2375913848050573
  Basis Set: (AUG-CC-PVTZ AUX)
    Blend: AUG-CC-PVTZ-RI
    Molecular point group: c1

    Geometry (in Angstrom), charge = 0, multiplicity = 1:

       Center              X                  Y                   Z               Mass
    ------------   -----------------  -----------------  -----------------  -----------------
         C            0.194950020706     0.746215931092     0.434725563947    12.000000000000
         C            0.194957020706    -0.766281068908     0.434727563947    12.000000000000
         C           -0.787585979294    -0.010037068908    -0.421897436053    12.000000000000
         C            1.295950720706     1.631820731092    -0.097668336053    12.000000000000
         C            1.310118020706    -1.581574068908    -0.174905436053    12.000000000000
         C           -2.261526979294    -0.010036068908    -0.101530436053    12.000000000000
         H           -0.236559979294     1.195131931092     1.329389563947     1.007825032230
         H           -0.236545979294    -1.215199068908     1.329393563947     1.007825032230
         H           -0.552258979294    -0.010039068908    -1.486894436053     1.007825032230
         H            0.963627020706     2.574745931092    -0.403512436053     1.007825032230
         H            2.163360020706     1.642946931092     0.506985563947     1.007825032230
         H            1.667868020706     1.118898931092    -1.107807436053     1.007825032230
         H            2.163412020706    -1.662919068908     0.506947563947     1.007825032230
         H            0.963676020706    -2.594826068908    -0.403433436053     1.007825032230
         H            1.667816020706    -1.138993068908    -1.107854436053     1.007825032230
         H           -2.758230979294    -0.896541068908    -0.510116436053     1.007825032230
         H           -2.415252979294    -0.010074068908     0.982380563947     1.007825032230
         H           -2.758214979294     0.876508931092    -0.510052436053     1.007825032230

  Basis Set: AUG-CC-PVTZ
    Blend: AUG-CC-PVTZ
  Basis Set: (AUG-CC-PVTZ AUX)
    Blend: AUG-CC-PVTZ-JKFIT
	 Reference Energy          =    -234.2375913848050573 [Eh]
	 Singles Energy            =      -0.0000000000000000 [Eh]
	 Same-Spin Energy          =      -0.2540160734395788 [Eh]
	 Opposite-Spin Energy      =      -0.9204703083434295 [Eh]
	 Correlation Energy        =      -1.1744863817830082 [Eh]
	 Total Energy              =    -235.4120777665880553 [Eh]

	 ================> DF-SCS-MP2 Energies <==================
	-----------------------------------------------------------
	 SCS Same-Spin Scale       =       0.3333333333333333 [-]
	 SCS Opposite-Spin Scale   =       1.2000000000000000 [-]
	 SCS Same-Spin Energy      =      -0.0846720244798596 [Eh]
	 SCS Opposite-Spin Energy  =      -1.1045643700121153 [Eh]
	 SCS Correlation Energy    =      -1.1892363944919748 [Eh]
	 SCS Total Energy          =    -235.4268277792970423 [Eh]
	-----------------------------------------------------------

  Dipole Moment: [D]
     X:    -0.0213      Y:     0.0062      Z:     0.0181     Total:     0.0286

*** Psi4 exiting successfully. Buy a developer a beer!
