                               Psi4 1.4a3.dev225

  ==> Input File <==

--------------------------------------------------------------------------
#psi4
#
memory 32 gb

molecule  {
0 1
  C        0.1866420     0.7562470     0.4534190
  C        0.1316728    -0.7720718     0.3649059
  C       -0.7958940    -0.0000060    -0.4032040
  C        1.3017950     1.5715540    -0.1562120
  C        1.3018100    -1.5715430    -0.1562120
  C       -2.2698350    -0.0000050    -0.0828370
  H       -0.2448680     1.2051630     1.3480830
  H       -0.2448540    -1.2051680     1.3480870
  H       -0.5605670    -0.0000080    -1.4682010
  H        0.9553190     2.5847770    -0.3848190
  H        2.1550520     1.6529780     0.5256790
  H        1.6595600     1.1289300    -1.0891140
  H        2.1551040    -1.6528880     0.5256410
  H        0.9553680    -2.5847950    -0.3847400
  H        1.6595080    -1.1289620    -1.0891610
  H       -2.7665390    -0.8865100    -0.4914230
  H       -2.4235610    -0.0000430     1.0010740
  H       -2.7665230     0.8865400    -0.4913590
units angstrom
no_reorient  #important for SAPT in psi4, default
symmetry c1  #important for SAPT in psi4, default
}

set PROPERTIES_ORIGIN ["COM"]
properties('MP2/aug-cc-pvtz', properties = ['dipole'])
--------------------------------------------------------------------------

    Molecular point group: c1
  Charge       = 0
  Multiplicity = 1
  Basis Set: AUG-CC-PVTZ
    Blend: AUG-CC-PVTZ
  Basis Set: (AUG-CC-PVTZ AUX)
    Blend: AUG-CC-PVTZ-JKFIT

    Orbital Energies [Eh]
    ---------------------

    Doubly Occupied:

       1A    -11.223201     2A    -11.219956     3A    -11.216746
       4A    -11.214119     5A    -11.213614     6A    -11.211573
       7A     -1.161370     8A     -0.983876     9A     -0.975657
      10A     -0.911543    11A     -0.769718    12A     -0.742623
      13A     -0.639037    14A     -0.614518    15A     -0.573502
      16A     -0.568579    17A     -0.549575    18A     -0.533915
      19A     -0.532795    20A     -0.524448    21A     -0.482598
      22A     -0.464116    23A     -0.407111    24A     -0.364678

  @DF-RHF Final Energy:  -234.24032175252603

   => Energetics <=

    Nuclear Repulsion Energy =            246.8910543323778199
    One-Electron Energy =                -804.0650163082391373
    Two-Electron Energy =                 322.9336402233352601
    Total Energy =                       -234.2403217525260288
  Basis Set: (AUG-CC-PVTZ AUX)
    Blend: AUG-CC-PVTZ-RI
    Molecular point group: c1

    Geometry (in Angstrom), charge = 0, multiplicity = 1:

       Center              X                  Y                   Z               Mass
    ------------   -----------------  -----------------  -----------------  -----------------
         C            0.200775494346     0.758504993619     0.458378009497    12.000000000000
         C            0.145806294346    -0.769813806381     0.369864909497    12.000000000000
         C           -0.781760505654     0.002251993619    -0.398244990503    12.000000000000
         C            1.315928494346     1.573811993619    -0.151252990503    12.000000000000
         C            1.315943494346    -1.569285006381    -0.151252990503    12.000000000000
         C           -2.255701505654     0.002252993619    -0.077877990503    12.000000000000
         H           -0.230734505654     1.207420993619     1.353042009497     1.007825032230
         H           -0.230720505654    -1.202910006381     1.353046009497     1.007825032230
         H           -0.546433505654     0.002249993619    -1.463241990503     1.007825032230
         H            0.969452494346     2.587034993619    -0.379859990503     1.007825032230
         H            2.169185494346     1.655235993619     0.530638009497     1.007825032230
         H            1.673693494346     1.131187993619    -1.084154990503     1.007825032230
         H            2.169237494346    -1.650630006381     0.530600009497     1.007825032230
         H            0.969501494346    -2.582537006381    -0.379780990503     1.007825032230
         H            1.673641494346    -1.126704006381    -1.084201990503     1.007825032230
         H           -2.752405505654    -0.884252006381    -0.486463990503     1.007825032230
         H           -2.409427505654     0.002214993619     1.006033009497     1.007825032230
         H           -2.752389505654     0.888797993619    -0.486399990503     1.007825032230

  Basis Set: AUG-CC-PVTZ
    Blend: AUG-CC-PVTZ
  Basis Set: (AUG-CC-PVTZ AUX)
    Blend: AUG-CC-PVTZ-JKFIT
	 Reference Energy          =    -234.2403217525260288 [Eh]
	 Singles Energy            =      -0.0000000000000000 [Eh]
	 Same-Spin Energy          =      -0.2544268450098295 [Eh]
	 Opposite-Spin Energy      =      -0.9205892023179292 [Eh]
	 Correlation Energy        =      -1.1750160473277587 [Eh]
	 Total Energy              =    -235.4153377998537735 [Eh]

	 ================> DF-SCS-MP2 Energies <==================
	-----------------------------------------------------------
	 SCS Same-Spin Scale       =       0.3333333333333333 [-]
	 SCS Opposite-Spin Scale   =       1.2000000000000000 [-]
	 SCS Same-Spin Energy      =      -0.0848089483366098 [Eh]
	 SCS Opposite-Spin Energy  =      -1.1047070427815149 [Eh]
	 SCS Correlation Energy    =      -1.1895159911181248 [Eh]
	 SCS Total Energy          =    -235.4298377436441569 [Eh]
	-----------------------------------------------------------

  Dipole Moment: [D]
     X:    -0.0202      Y:    -0.0475      Z:    -0.0491     Total:     0.0713

*** Psi4 exiting successfully. Buy a developer a beer!
