                               Psi4 1.4a3.dev225

  ==> Input File <==

--------------------------------------------------------------------------
#psi4
#
memory 32 gb

molecule  {
0 1
  C        0.1866420     0.7562470     0.4534190
  C        0.1866490    -0.7562500     0.4534210
  C       -0.7707630    -0.0175906    -0.4459381
  C        1.3017950     1.5715540    -0.1562120
  C        1.3018100    -1.5715430    -0.1562120
  C       -2.2698350    -0.0000050    -0.0828370
  H       -0.2448680     1.2051630     1.3480830
  H       -0.2448540    -1.2051680     1.3480870
  H       -0.5605670    -0.0000080    -1.4682010
  H        0.9553190     2.5847770    -0.3848190
  H        2.1550520     1.6529780     0.5256790
  H        1.6595600     1.1289300    -1.0891140
  H        2.1551040    -1.6528880     0.5256410
  H        0.9553680    -2.5847950    -0.3847400
  H        1.6595080    -1.1289620    -1.0891610
  H       -2.7665390    -0.8865100    -0.4914230
  H       -2.4235610    -0.0000430     1.0010740
  H       -2.7665230     0.8865400    -0.4913590
units angstrom
no_reorient  #important for SAPT in psi4, default
symmetry c1  #important for SAPT in psi4, default
}

set PROPERTIES_ORIGIN ["COM"]
properties('MP2/aug-cc-pvtz', properties = ['dipole'])
--------------------------------------------------------------------------

    Molecular point group: c1
  Charge       = 0
  Multiplicity = 1
  Basis Set: AUG-CC-PVTZ
    Blend: AUG-CC-PVTZ
  Basis Set: (AUG-CC-PVTZ AUX)
    Blend: AUG-CC-PVTZ-JKFIT

    Orbital Energies [Eh]
    ---------------------

    Doubly Occupied:

       1A    -11.221785     2A    -11.220709     3A    -11.217981
       4A    -11.213256     5A    -11.212134     6A    -11.211909
       7A     -1.148237     8A     -0.977442     9A     -0.975532
      10A     -0.904791    11A     -0.780123    12A     -0.744215
      13A     -0.639237    14A     -0.611880    15A     -0.568617
      16A     -0.567515    17A     -0.545858    18A     -0.534398
      19A     -0.527880    20A     -0.527012    21A     -0.488057
      22A     -0.473743    23A     -0.384784    24A     -0.377049

  @DF-RHF Final Energy:  -234.24593281369337

   => Energetics <=

    Nuclear Repulsion Energy =            246.0254680372624705
    One-Electron Energy =                -802.3945133107494030
    Two-Electron Energy =                 322.1231124597935604
    Total Energy =                       -234.2459328136933436
  Basis Set: (AUG-CC-PVTZ AUX)
    Blend: AUG-CC-PVTZ-RI
    Molecular point group: c1

    Geometry (in Angstrom), charge = 0, multiplicity = 1:

       Center              X                  Y                   Z               Mass
    ------------   -----------------  -----------------  -----------------  -----------------
         C            0.189344387029     0.758756540995     0.451845169452    12.000000000000
         C            0.189351387029    -0.753740459005     0.451847169452    12.000000000000
         C           -0.768060612971    -0.015081059005    -0.447511930548    12.000000000000
         C            1.304497387029     1.574063540995    -0.157785830548    12.000000000000
         C            1.304512387029    -1.569033459005    -0.157785830548    12.000000000000
         C           -2.267132612971     0.002504540995    -0.084410830548    12.000000000000
         H           -0.242165612971     1.207672540995     1.346509169452     1.007825032230
         H           -0.242151612971    -1.202658459005     1.346513169452     1.007825032230
         H           -0.557864612971     0.002501540995    -1.469774830548     1.007825032230
         H            0.958021387029     2.587286540995    -0.386392830548     1.007825032230
         H            2.157754387029     1.655487540995     0.524105169452     1.007825032230
         H            1.662262387029     1.131439540995    -1.090687830548     1.007825032230
         H            2.157806387029    -1.650378459005     0.524067169452     1.007825032230
         H            0.958070387029    -2.582285459005    -0.386313830548     1.007825032230
         H            1.662210387029    -1.126452459005    -1.090734830548     1.007825032230
         H           -2.763836612971    -0.884000459005    -0.492996830548     1.007825032230
         H           -2.420858612971     0.002466540995     0.999500169452     1.007825032230
         H           -2.763820612971     0.889049540995    -0.492932830548     1.007825032230

  Basis Set: AUG-CC-PVTZ
    Blend: AUG-CC-PVTZ
  Basis Set: (AUG-CC-PVTZ AUX)
    Blend: AUG-CC-PVTZ-JKFIT
	 Reference Energy          =    -234.2459328136933721 [Eh]
	 Singles Energy            =      -0.0000000000000000 [Eh]
	 Same-Spin Energy          =      -0.2536470158924914 [Eh]
	 Opposite-Spin Energy      =      -0.9199625346131168 [Eh]
	 Correlation Energy        =      -1.1736095505056083 [Eh]
	 Total Energy              =    -235.4195423641989748 [Eh]

	 ================> DF-SCS-MP2 Energies <==================
	-----------------------------------------------------------
	 SCS Same-Spin Scale       =       0.3333333333333333 [-]
	 SCS Opposite-Spin Scale   =       1.2000000000000000 [-]
	 SCS Same-Spin Energy      =      -0.0845490052974971 [Eh]
	 SCS Opposite-Spin Energy  =      -1.1039550415357402 [Eh]
	 SCS Correlation Energy    =      -1.1885040468332373 [Eh]
	 SCS Total Energy          =    -235.4344368605266027 [Eh]
	-----------------------------------------------------------

  Dipole Moment: [D]
     X:     0.0140      Y:    -0.0066      Z:    -0.0092     Total:     0.0180

*** Psi4 exiting successfully. Buy a developer a beer!
