                               Psi4 1.4a3.dev225

  ==> Input File <==

--------------------------------------------------------------------------
#psi4
#
memory 32 gb

molecule  {
0 1
  C        0.1866420     0.7562470     0.4534190
  C        0.1866490    -0.7562500     0.4534210
  C       -0.8080125     0.0084421    -0.3814423
  C        1.3017950     1.5715540    -0.1562120
  C        1.3018100    -1.5715430    -0.1562120
  C       -2.2698350    -0.0000050    -0.0828370
  H       -0.2448680     1.2051630     1.3480830
  H       -0.2448540    -1.2051680     1.3480870
  H       -0.5605670    -0.0000080    -1.4682010
  H        0.9553190     2.5847770    -0.3848190
  H        2.1550520     1.6529780     0.5256790
  H        1.6595600     1.1289300    -1.0891140
  H        2.1551040    -1.6528880     0.5256410
  H        0.9553680    -2.5847950    -0.3847400
  H        1.6595080    -1.1289620    -1.0891610
  H       -2.7665390    -0.8865100    -0.4914230
  H       -2.4235610    -0.0000430     1.0010740
  H       -2.7665230     0.8865400    -0.4913590
units angstrom
no_reorient  #important for SAPT in psi4, default
symmetry c1  #important for SAPT in psi4, default
}

set PROPERTIES_ORIGIN ["COM"]
properties('MP2/aug-cc-pvtz', properties = ['dipole'])
--------------------------------------------------------------------------

    Molecular point group: c1
  Charge       = 0
  Multiplicity = 1
  Basis Set: AUG-CC-PVTZ
    Blend: AUG-CC-PVTZ
  Basis Set: (AUG-CC-PVTZ AUX)
    Blend: AUG-CC-PVTZ-JKFIT

    Orbital Energies [Eh]
    ---------------------

    Doubly Occupied:

       1A    -11.221071     2A    -11.220143     3A    -11.219841
       4A    -11.212974     5A    -11.212850     6A    -11.212225
       7A     -1.152799     8A     -0.985681     9A     -0.975770
      10A     -0.909989    11A     -0.765140    12A     -0.746466
      13A     -0.642113    14A     -0.610074    15A     -0.570988
      16A     -0.569221    17A     -0.548100    18A     -0.534572
      19A     -0.531613    20A     -0.527530    21A     -0.480481
      22A     -0.474050    23A     -0.384471    24A     -0.380725

  @DF-RHF Final Energy:  -234.24743392596420

   => Energetics <=

    Nuclear Repulsion Energy =            246.4245850474359543
    One-Electron Energy =                -803.1662628311167964
    Two-Electron Energy =                 322.4942438577166968
    Total Energy =                       -234.2474339259641738
  Basis Set: (AUG-CC-PVTZ AUX)
    Blend: AUG-CC-PVTZ-RI
    Molecular point group: c1

    Geometry (in Angstrom), charge = 0, multiplicity = 1:

       Center              X                  Y                   Z               Mass
    ------------   -----------------  -----------------  -----------------  -----------------
         C            0.194659802273     0.755041736490     0.442641771864    12.000000000000
         C            0.194666802273    -0.757455263510     0.442643771864    12.000000000000
         C           -0.799994697727     0.007236836490    -0.392219528136    12.000000000000
         C            1.309812802273     1.570348736490    -0.166989228136    12.000000000000
         C            1.309827802273    -1.572748263510    -0.166989228136    12.000000000000
         C           -2.261817197727    -0.001210263510    -0.093614228136    12.000000000000
         H           -0.236850197727     1.203957736490     1.337305771864     1.007825032230
         H           -0.236836197727    -1.206373263510     1.337309771864     1.007825032230
         H           -0.552549197727    -0.001213263510    -1.478978228136     1.007825032230
         H            0.963336802273     2.583571736490    -0.395596228136     1.007825032230
         H            2.163069802273     1.651772736490     0.514901771864     1.007825032230
         H            1.667577802273     1.127724736490    -1.099891228136     1.007825032230
         H            2.163121802273    -1.654093263510     0.514863771864     1.007825032230
         H            0.963385802273    -2.586000263510    -0.395517228136     1.007825032230
         H            1.667525802273    -1.130167263510    -1.099938228136     1.007825032230
         H           -2.758521197727    -0.887715263510    -0.502200228136     1.007825032230
         H           -2.415543197727    -0.001248263510     0.990296771864     1.007825032230
         H           -2.758505197727     0.885334736490    -0.502136228136     1.007825032230

  Basis Set: AUG-CC-PVTZ
    Blend: AUG-CC-PVTZ
  Basis Set: (AUG-CC-PVTZ AUX)
    Blend: AUG-CC-PVTZ-JKFIT
	 Reference Energy          =    -234.2474339259642022 [Eh]
	 Singles Energy            =      -0.0000000000000000 [Eh]
	 Same-Spin Energy          =      -0.2540895122992152 [Eh]
	 Opposite-Spin Energy      =      -0.9201373021264591 [Eh]
	 Correlation Energy        =      -1.1742268144256742 [Eh]
	 Total Energy              =    -235.4216607403898820 [Eh]

	 ================> DF-SCS-MP2 Energies <==================
	-----------------------------------------------------------
	 SCS Same-Spin Scale       =       0.3333333333333333 [-]
	 SCS Opposite-Spin Scale   =       1.2000000000000000 [-]
	 SCS Same-Spin Energy      =      -0.0846965040997384 [Eh]
	 SCS Opposite-Spin Energy  =      -1.1041647625517508 [Eh]
	 SCS Correlation Energy    =      -1.1888612666514891 [Eh]
	 SCS Total Energy          =    -235.4362951926156882 [Eh]
	-----------------------------------------------------------

  Dipole Moment: [D]
     X:    -0.0141      Y:     0.0037      Z:    -0.0050     Total:     0.0154

*** Psi4 exiting successfully. Buy a developer a beer!
