                               Psi4 1.4a3.dev225

  ==> Input File <==

--------------------------------------------------------------------------
#psi4
#
memory 32 gb

molecule  {
0 1
  C        0.1866420     0.7562470     0.4534190
  C        0.1866490    -0.7562500     0.4534210
  C       -0.7958940    -0.0000060    -0.4032040
  C        1.3017950     1.5715540    -0.1562120
  C        1.3018100    -1.5715430    -0.1562120
  C       -2.2698350    -0.0000050    -0.0828370
  H       -0.2448680     1.2051630     1.3480830
  H       -0.2448540    -1.2051680     1.3480870
  H       -0.5174149    -0.0000084    -1.6634903
  H        0.9553190     2.5847770    -0.3848190
  H        2.1550520     1.6529780     0.5256790
  H        1.6595600     1.1289300    -1.0891140
  H        2.1551040    -1.6528880     0.5256410
  H        0.9553680    -2.5847950    -0.3847400
  H        1.6595080    -1.1289620    -1.0891610
  H       -2.7665390    -0.8865100    -0.4914230
  H       -2.4235610    -0.0000430     1.0010740
  H       -2.7665230     0.8865400    -0.4913590
units angstrom
no_reorient  #important for SAPT in psi4, default
symmetry c1  #important for SAPT in psi4, default
}

set PROPERTIES_ORIGIN ["COM"]
properties('MP2/aug-cc-pvtz', properties = ['dipole'])
--------------------------------------------------------------------------

    Molecular point group: c1
  Charge       = 0
  Multiplicity = 1
  Basis Set: AUG-CC-PVTZ
    Blend: AUG-CC-PVTZ
  Basis Set: (AUG-CC-PVTZ AUX)
    Blend: AUG-CC-PVTZ-JKFIT

    Orbital Energies [Eh]
    ---------------------

    Doubly Occupied:

       1A    -11.242089     2A    -11.223356     3A    -11.222710
       4A    -11.215297     5A    -11.212906     6A    -11.212901
       7A     -1.150853     8A     -0.982923     9A     -0.976236
      10A     -0.909677    11A     -0.747809    12A     -0.747343
      13A     -0.641969    14A     -0.599466    15A     -0.571156
      16A     -0.568998    17A     -0.548237    18A     -0.534696
      19A     -0.530872    20A     -0.527982    21A     -0.474960
      22A     -0.463339    23A     -0.384595    24A     -0.382164

  @DF-RHF Final Energy:  -234.22781147881057

   => Energetics <=

    Nuclear Repulsion Energy =            245.4326107698617818
    One-Electron Energy =                -801.1757770517880317
    Two-Electron Energy =                 321.5153548031157129
    Total Energy =                       -234.2278114788105654
  Basis Set: (AUG-CC-PVTZ AUX)
    Blend: AUG-CC-PVTZ-RI
    Molecular point group: c1

    Geometry (in Angstrom), charge = 0, multiplicity = 1:

       Center              X                  Y                   Z               Mass
    ------------   -----------------  -----------------  -----------------  -----------------
         C            0.192413363878     0.756247265103     0.448087563330    12.000000000000
         C            0.192420363878    -0.756249734897     0.448089563330    12.000000000000
         C           -0.790122636122    -0.000005734897    -0.408535436670    12.000000000000
         C            1.307566363878     1.571554265103    -0.161543436670    12.000000000000
         C            1.307581363878    -1.571542734897    -0.161543436670    12.000000000000
         C           -2.264063636122    -0.000004734897    -0.088168436670    12.000000000000
         H           -0.239096636122     1.205163265103     1.342751563330     1.007825032230
         H           -0.239082636122    -1.205167734897     1.342755563330     1.007825032230
         H           -0.511643536122    -0.000008134897    -1.668821736670     1.007825032230
         H            0.961090363878     2.584777265103    -0.390150436670     1.007825032230
         H            2.160823363878     1.652978265103     0.520347563330     1.007825032230
         H            1.665331363878     1.128930265103    -1.094445436670     1.007825032230
         H            2.160875363878    -1.652887734897     0.520309563330     1.007825032230
         H            0.961139363878    -2.584794734897    -0.390071436670     1.007825032230
         H            1.665279363878    -1.128961734897    -1.094492436670     1.007825032230
         H           -2.760767636122    -0.886509734897    -0.496754436670     1.007825032230
         H           -2.417789636122    -0.000042734897     0.995742563330     1.007825032230
         H           -2.760751636122     0.886540265103    -0.496690436670     1.007825032230

  Basis Set: AUG-CC-PVTZ
    Blend: AUG-CC-PVTZ
  Basis Set: (AUG-CC-PVTZ AUX)
    Blend: AUG-CC-PVTZ-JKFIT
	 Reference Energy          =    -234.2278114788105654 [Eh]
	 Singles Energy            =      -0.0000000000000000 [Eh]
	 Same-Spin Energy          =      -0.2541317196244782 [Eh]
	 Opposite-Spin Energy      =      -0.9216691602289668 [Eh]
	 Correlation Energy        =      -1.1758008798534449 [Eh]
	 Total Energy              =    -235.4036123586640201 [Eh]

	 ================> DF-SCS-MP2 Energies <==================
	-----------------------------------------------------------
	 SCS Same-Spin Scale       =       0.3333333333333333 [-]
	 SCS Opposite-Spin Scale   =       1.2000000000000000 [-]
	 SCS Same-Spin Energy      =      -0.0847105732081594 [Eh]
	 SCS Opposite-Spin Energy  =      -1.1060029922747601 [Eh]
	 SCS Correlation Energy    =      -1.1907135654829195 [Eh]
	 SCS Total Energy          =    -235.4185250442934887 [Eh]
	-----------------------------------------------------------

  Dipole Moment: [D]
     X:    -0.0319      Y:    -0.0000      Z:     0.1372     Total:     0.1409

*** Psi4 exiting successfully. Buy a developer a beer!
