                               Psi4 1.4a3.dev225

  ==> Input File <==

--------------------------------------------------------------------------
#psi4
#
memory 32 gb

molecule  {
0 1
  C        0.1866420     0.7562470     0.4534190
  C        0.1866481    -0.5562500     0.4534207
  C       -0.7958940    -0.0000060    -0.4032040
  C        1.3017950     1.5715540    -0.1562120
  C        1.3018100    -1.5715430    -0.1562120
  C       -2.2698350    -0.0000050    -0.0828370
  H       -0.2448680     1.2051630     1.3480830
  H       -0.2448540    -1.2051680     1.3480870
  H       -0.5605670    -0.0000080    -1.4682010
  H        0.9553190     2.5847770    -0.3848190
  H        2.1550520     1.6529780     0.5256790
  H        1.6595600     1.1289300    -1.0891140
  H        2.1551040    -1.6528880     0.5256410
  H        0.9553680    -2.5847950    -0.3847400
  H        1.6595080    -1.1289620    -1.0891610
  H       -2.7665390    -0.8865100    -0.4914230
  H       -2.4235610    -0.0000430     1.0010740
  H       -2.7665230     0.8865400    -0.4913590
units angstrom
no_reorient  #important for SAPT in psi4, default
symmetry c1  #important for SAPT in psi4, default
}

set PROPERTIES_ORIGIN ["COM"]
properties('MP2/aug-cc-pvtz', properties = ['dipole'])
--------------------------------------------------------------------------

    Molecular point group: c1
  Charge       = 0
  Multiplicity = 1
  Basis Set: AUG-CC-PVTZ
    Blend: AUG-CC-PVTZ
  Basis Set: (AUG-CC-PVTZ AUX)
    Blend: AUG-CC-PVTZ-JKFIT

    Orbital Energies [Eh]
    ---------------------

    Doubly Occupied:

       1A    -11.222280     2A    -11.218563     3A    -11.214541
       4A    -11.212848     5A    -11.212063     6A    -11.209141
       7A     -1.202968     8A     -0.984734     9A     -0.958805
      10A     -0.922024    11A     -0.781839    12A     -0.728903
      13A     -0.656680    14A     -0.618360    15A     -0.568865
      16A     -0.563795    17A     -0.544519    18A     -0.541942
      19A     -0.532961    20A     -0.529345    21A     -0.483698
      22A     -0.439969    23A     -0.423465    24A     -0.365377

  @DF-RHF Final Energy:  -234.20067812072665

   => Energetics <=

    Nuclear Repulsion Energy =            248.6790464777187708
    One-Electron Energy =                -807.4840787084824569
    Two-Electron Energy =                 324.6043541100370362
    Total Energy =                       -234.2006781207266499
  Basis Set: (AUG-CC-PVTZ AUX)
    Blend: AUG-CC-PVTZ-RI
    Molecular point group: c1

    Geometry (in Angstrom), charge = 0, multiplicity = 1:

       Center              X                  Y                   Z               Mass
    ------------   -----------------  -----------------  -----------------  -----------------
         C            0.192930649512     0.727707734982     0.445747157615    12.000000000000
         C            0.192936749512    -0.584789265018     0.445748857615    12.000000000000
         C           -0.789605350488    -0.028545265018    -0.410875842385    12.000000000000
         C            1.308083649512     1.543014734982    -0.163883842385    12.000000000000
         C            1.308098649512    -1.600082265018    -0.163883842385    12.000000000000
         C           -2.263546350488    -0.028544265018    -0.090508842385    12.000000000000
         H           -0.238579350488     1.176623734982     1.340411157615     1.007825032230
         H           -0.238565350488    -1.233707265018     1.340415157615     1.007825032230
         H           -0.554278350488    -0.028547265018    -1.475872842385     1.007825032230
         H            0.961607649512     2.556237734982    -0.392490842385     1.007825032230
         H            2.161340649512     1.624438734982     0.518007157615     1.007825032230
         H            1.665848649512     1.100390734982    -1.096785842385     1.007825032230
         H            2.161392649512    -1.681427265018     0.517969157615     1.007825032230
         H            0.961656649512    -2.613334265018    -0.392411842385     1.007825032230
         H            1.665796649512    -1.157501265018    -1.096832842385     1.007825032230
         H           -2.760250350488    -0.915049265018    -0.499094842385     1.007825032230
         H           -2.417272350488    -0.028582265018     0.993402157615     1.007825032230
         H           -2.760234350488     0.858000734982    -0.499030842385     1.007825032230

  Basis Set: AUG-CC-PVTZ
    Blend: AUG-CC-PVTZ
  Basis Set: (AUG-CC-PVTZ AUX)
    Blend: AUG-CC-PVTZ-JKFIT
	 Reference Energy          =    -234.2006781207266499 [Eh]
	 Singles Energy            =      -0.0000000000000000 [Eh]
	 Same-Spin Energy          =      -0.2552228096778011 [Eh]
	 Opposite-Spin Energy      =      -0.9210926393954909 [Eh]
	 Correlation Energy        =      -1.1763154490732921 [Eh]
	 Total Energy              =    -235.3769935697999358 [Eh]

	 ================> DF-SCS-MP2 Energies <==================
	-----------------------------------------------------------
	 SCS Same-Spin Scale       =       0.3333333333333333 [-]
	 SCS Opposite-Spin Scale   =       1.2000000000000000 [-]
	 SCS Same-Spin Energy      =      -0.0850742698926004 [Eh]
	 SCS Opposite-Spin Energy  =      -1.1053111672745890 [Eh]
	 SCS Correlation Energy    =      -1.1903854371671894 [Eh]
	 SCS Total Energy          =    -235.3910635578938297 [Eh]
	-----------------------------------------------------------

  Dipole Moment: [D]
     X:     0.0725      Y:     0.0442      Z:     0.0414     Total:     0.0944

*** Psi4 exiting successfully. Buy a developer a beer!
