                               Psi4 1.4a3.dev225

  ==> Input File <==

--------------------------------------------------------------------------
#psi4
#
memory 32 gb

molecule  {
0 1
  C        0.1866420     0.7562470     0.4534190
  C        0.1723847    -0.7598358     0.4315541
  C       -0.7958940    -0.0000060    -0.4032040
  C        1.3017950     1.5715540    -0.1562120
  C        1.3018100    -1.5715430    -0.1562120
  C       -2.2698350    -0.0000050    -0.0828370
  H       -0.2448680     1.2051630     1.3480830
  H       -0.2448540    -1.2051680     1.3480870
  H       -0.5605670    -0.0000080    -1.4682010
  H        0.9553190     2.5847770    -0.3848190
  H        2.1550520     1.6529780     0.5256790
  H        1.6595600     1.1289300    -1.0891140
  H        2.1551040    -1.6528880     0.5256410
  H        0.9553680    -2.5847950    -0.3847400
  H        1.6595080    -1.1289620    -1.0891610
  H       -2.7665390    -0.8865100    -0.4914230
  H       -2.4235610    -0.0000430     1.0010740
  H       -2.7665230     0.8865400    -0.4913590
units angstrom
no_reorient  #important for SAPT in psi4, default
symmetry c1  #important for SAPT in psi4, default
}

set PROPERTIES_ORIGIN ["COM"]
properties('MP2/aug-cc-pvtz', properties = ['dipole'])
--------------------------------------------------------------------------

    Molecular point group: c1
  Charge       = 0
  Multiplicity = 1
  Basis Set: AUG-CC-PVTZ
    Blend: AUG-CC-PVTZ
  Basis Set: (AUG-CC-PVTZ AUX)
    Blend: AUG-CC-PVTZ-JKFIT

    Orbital Energies [Eh]
    ---------------------

    Doubly Occupied:

       1A    -11.221023     2A    -11.219681     3A    -11.219188
       4A    -11.212825     5A    -11.212770     6A    -11.212332
       7A     -1.153679     8A     -0.983042     9A     -0.975584
      10A     -0.909012    11A     -0.769488    12A     -0.745095
      13A     -0.640309    14A     -0.611641    15A     -0.570745
      16A     -0.568676    17A     -0.547913    18A     -0.534270
      19A     -0.530371    20A     -0.526630    21A     -0.483497
      22A     -0.471978    23A     -0.388540    24A     -0.378051

  @DF-RHF Final Energy:  -234.24802102173933

   => Energetics <=

    Nuclear Repulsion Energy =            246.4529419025536470
    One-Electron Energy =                -803.2292450149789147
    Two-Electron Energy =                 322.5282820906859342
    Total Energy =                       -234.2480210217393051
  Basis Set: (AUG-CC-PVTZ AUX)
    Blend: AUG-CC-PVTZ-RI
    Molecular point group: c1

    Geometry (in Angstrom), charge = 0, multiplicity = 1:

       Center              X                  Y                   Z               Mass
    ------------   -----------------  -----------------  -----------------  -----------------
         C            0.194966002840     0.756758945459     0.448867469538    12.000000000000
         C            0.180708702840    -0.759323854541     0.427002569538    12.000000000000
         C           -0.787569997160     0.000505945459    -0.407755530462    12.000000000000
         C            1.310119002840     1.572065945459    -0.160763530462    12.000000000000
         C            1.310134002840    -1.571031054541    -0.160763530462    12.000000000000
         C           -2.261510997160     0.000506945459    -0.087388530462    12.000000000000
         H           -0.236543997160     1.205674945459     1.343531469538     1.007825032230
         H           -0.236529997160    -1.204656054541     1.343535469538     1.007825032230
         H           -0.552242997160     0.000503945459    -1.472752530462     1.007825032230
         H            0.963643002840     2.585288945459    -0.389370530462     1.007825032230
         H            2.163376002840     1.653489945459     0.521127469538     1.007825032230
         H            1.667884002840     1.129441945459    -1.093665530462     1.007825032230
         H            2.163428002840    -1.652376054541     0.521089469538     1.007825032230
         H            0.963692002840    -2.584283054541    -0.389291530462     1.007825032230
         H            1.667832002840    -1.128450054541    -1.093712530462     1.007825032230
         H           -2.758214997160    -0.885998054541    -0.495974530462     1.007825032230
         H           -2.415236997160     0.000468945459     0.996522469538     1.007825032230
         H           -2.758198997160     0.887051945459    -0.495910530462     1.007825032230

  Basis Set: AUG-CC-PVTZ
    Blend: AUG-CC-PVTZ
  Basis Set: (AUG-CC-PVTZ AUX)
    Blend: AUG-CC-PVTZ-JKFIT
	 Reference Energy          =    -234.2480210217393335 [Eh]
	 Singles Energy            =      -0.0000000000000000 [Eh]
	 Same-Spin Energy          =      -0.2539741870769381 [Eh]
	 Opposite-Spin Energy      =      -0.9199963326288744 [Eh]
	 Correlation Energy        =      -1.1739705197058126 [Eh]
	 Total Energy              =    -235.4219915414451521 [Eh]

	 ================> DF-SCS-MP2 Energies <==================
	-----------------------------------------------------------
	 SCS Same-Spin Scale       =       0.3333333333333333 [-]
	 SCS Opposite-Spin Scale   =       1.2000000000000000 [-]
	 SCS Same-Spin Energy      =      -0.0846580623589794 [Eh]
	 SCS Opposite-Spin Energy  =      -1.1039955991546493 [Eh]
	 SCS Correlation Energy    =      -1.1886536615136287 [Eh]
	 SCS Total Energy          =    -235.4366746832529600 [Eh]
	-----------------------------------------------------------

  Dipole Moment: [D]
     X:    -0.0094      Y:    -0.0115      Z:    -0.0167     Total:     0.0223

*** Psi4 exiting successfully. Buy a developer a beer!
