                               Psi4 1.4a3.dev225

  ==> Input File <==

--------------------------------------------------------------------------
#psi4
#
memory 32 gb

molecule  {
0 1
  C        0.1866420     0.7562470     0.4534190
  C        0.1584644    -0.7636688     0.4095081
  C       -0.7958940    -0.0000060    -0.4032040
  C        1.3017950     1.5715540    -0.1562120
  C        1.3018100    -1.5715430    -0.1562120
  C       -2.2698350    -0.0000050    -0.0828370
  H       -0.2448680     1.2051630     1.3480830
  H       -0.2448540    -1.2051680     1.3480870
  H       -0.5605670    -0.0000080    -1.4682010
  H        0.9553190     2.5847770    -0.3848190
  H        2.1550520     1.6529780     0.5256790
  H        1.6595600     1.1289300    -1.0891140
  H        2.1551040    -1.6528880     0.5256410
  H        0.9553680    -2.5847950    -0.3847400
  H        1.6595080    -1.1289620    -1.0891610
  H       -2.7665390    -0.8865100    -0.4914230
  H       -2.4235610    -0.0000430     1.0010740
  H       -2.7665230     0.8865400    -0.4913590
units angstrom
no_reorient  #important for SAPT in psi4, default
symmetry c1  #important for SAPT in psi4, default
}

set PROPERTIES_ORIGIN ["COM"]
properties('MP2/aug-cc-pvtz', properties = ['dipole'])
--------------------------------------------------------------------------

    Molecular point group: c1
  Charge       = 0
  Multiplicity = 1
  Basis Set: AUG-CC-PVTZ
    Blend: AUG-CC-PVTZ
  Basis Set: (AUG-CC-PVTZ AUX)
    Blend: AUG-CC-PVTZ-JKFIT

    Orbital Energies [Eh]
    ---------------------

    Doubly Occupied:

       1A    -11.221503     2A    -11.219691     3A    -11.218385
       4A    -11.213156     5A    -11.213033     6A    -11.212077
       7A     -1.156208     8A     -0.983291     9A     -0.975560
      10A     -0.909833    11A     -0.769342    12A     -0.744410
      13A     -0.639851    14A     -0.612588    15A     -0.571629
      16A     -0.568615    17A     -0.548459    18A     -0.534105
      19A     -0.531206    20A     -0.525809    21A     -0.483059
      22A     -0.469681    23A     -0.394920    24A     -0.373688

  @DF-RHF Final Energy:  -234.24652027058318

   => Energetics <=

    Nuclear Repulsion Energy =            246.6072584821850739
    One-Electron Energy =                -803.5273626160362710
    Two-Electron Energy =                 322.6735838632679929
    Total Energy =                       -234.2465202705831757
  Basis Set: (AUG-CC-PVTZ AUX)
    Blend: AUG-CC-PVTZ-RI
    Molecular point group: c1

    Geometry (in Angstrom), charge = 0, multiplicity = 1:

       Center              X                  Y                   Z               Mass
    ------------   -----------------  -----------------  -----------------  -----------------
         C            0.196952396612     0.757305905462     0.452013381414    12.000000000000
         C            0.168774796612    -0.762609894538     0.408102481414    12.000000000000
         C           -0.785583603388     0.001052905462    -0.404609618586    12.000000000000
         C            1.312105396612     1.572612905462    -0.157617618586    12.000000000000
         C            1.312120396612    -1.570484094538    -0.157617618586    12.000000000000
         C           -2.259524603388     0.001053905462    -0.084242618586    12.000000000000
         H           -0.234557603388     1.206221905462     1.346677381414     1.007825032230
         H           -0.234543603388    -1.204109094538     1.346681381414     1.007825032230
         H           -0.550256603388     0.001050905462    -1.469606618586     1.007825032230
         H            0.965629396612     2.585835905462    -0.386224618586     1.007825032230
         H            2.165362396612     1.654036905462     0.524273381414     1.007825032230
         H            1.669870396612     1.129988905462    -1.090519618586     1.007825032230
         H            2.165414396612    -1.651829094538     0.524235381414     1.007825032230
         H            0.965678396612    -2.583736094538    -0.386145618586     1.007825032230
         H            1.669818396612    -1.127903094538    -1.090566618586     1.007825032230
         H           -2.756228603388    -0.885451094538    -0.492828618586     1.007825032230
         H           -2.413250603388     0.001015905462     0.999668381414     1.007825032230
         H           -2.756212603388     0.887598905462    -0.492764618586     1.007825032230

  Basis Set: AUG-CC-PVTZ
    Blend: AUG-CC-PVTZ
  Basis Set: (AUG-CC-PVTZ AUX)
    Blend: AUG-CC-PVTZ-JKFIT
	 Reference Energy          =    -234.2465202705831757 [Eh]
	 Singles Energy            =      -0.0000000000000000 [Eh]
	 Same-Spin Energy          =      -0.2540829102442095 [Eh]
	 Opposite-Spin Energy      =      -0.9201014951712536 [Eh]
	 Correlation Energy        =      -1.1741844054154631 [Eh]
	 Total Energy              =    -235.4207046759986497 [Eh]

	 ================> DF-SCS-MP2 Energies <==================
	-----------------------------------------------------------
	 SCS Same-Spin Scale       =       0.3333333333333333 [-]
	 SCS Opposite-Spin Scale   =       1.2000000000000000 [-]
	 SCS Same-Spin Energy      =      -0.0846943034147365 [Eh]
	 SCS Opposite-Spin Energy  =      -1.1041217942055044 [Eh]
	 SCS Correlation Energy    =      -1.1888160976202409 [Eh]
	 SCS Total Energy          =    -235.4353363682034228 [Eh]
	-----------------------------------------------------------

  Dipole Moment: [D]
     X:    -0.0134      Y:    -0.0232      Z:    -0.0261     Total:     0.0374

*** Psi4 exiting successfully. Buy a developer a beer!
