                               Psi4 1.4a3.dev225

  ==> Input File <==

--------------------------------------------------------------------------
#psi4
#
memory 32 gb

molecule  {
0 1
  C        0.1866420     0.7562470     0.4534190
  C        0.1866499    -0.9562500     0.4534213
  C       -0.7958940    -0.0000060    -0.4032040
  C        1.3017950     1.5715540    -0.1562120
  C        1.3018100    -1.5715430    -0.1562120
  C       -2.2698350    -0.0000050    -0.0828370
  H       -0.2448680     1.2051630     1.3480830
  H       -0.2448540    -1.2051680     1.3480870
  H       -0.5605670    -0.0000080    -1.4682010
  H        0.9553190     2.5847770    -0.3848190
  H        2.1550520     1.6529780     0.5256790
  H        1.6595600     1.1289300    -1.0891140
  H        2.1551040    -1.6528880     0.5256410
  H        0.9553680    -2.5847950    -0.3847400
  H        1.6595080    -1.1289620    -1.0891610
  H       -2.7665390    -0.8865100    -0.4914230
  H       -2.4235610    -0.0000430     1.0010740
  H       -2.7665230     0.8865400    -0.4913590
units angstrom
no_reorient  #important for SAPT in psi4, default
symmetry c1  #important for SAPT in psi4, default
}

set PROPERTIES_ORIGIN ["COM"]
properties('MP2/aug-cc-pvtz', properties = ['dipole'])
--------------------------------------------------------------------------

    Molecular point group: c1
  Charge       = 0
  Multiplicity = 1
  Basis Set: AUG-CC-PVTZ
    Blend: AUG-CC-PVTZ
  Basis Set: (AUG-CC-PVTZ AUX)
    Blend: AUG-CC-PVTZ-JKFIT

    Orbital Energies [Eh]
    ---------------------

    Doubly Occupied:

       1A    -11.232301     2A    -11.225753     3A    -11.222780
       4A    -11.213744     5A    -11.213057     6A    -11.208226
       7A     -1.120701     8A     -0.999859     9A     -0.979703
      10A     -0.893741    11A     -0.773606    12A     -0.751475
      13A     -0.630163    14A     -0.608531    15A     -0.578457
      16A     -0.573196    17A     -0.553458    18A     -0.539801
      19A     -0.534924    20A     -0.512812    21A     -0.505890
      22A     -0.481657    23A     -0.387623    24A     -0.327753

  @DF-RHF Final Energy:  -234.21287278699211

   => Energetics <=

    Nuclear Repulsion Energy =            244.2425568742751238
    One-Electron Energy =                -798.7724426995658860
    Two-Electron Energy =                 320.3170130382986827
    Total Energy =                       -234.2128727869920795
  Basis Set: (AUG-CC-PVTZ AUX)
    Blend: AUG-CC-PVTZ-RI
    Molecular point group: c1

    Geometry (in Angstrom), charge = 0, multiplicity = 1:

       Center              X                  Y                   Z               Mass
    ------------   -----------------  -----------------  -----------------  -----------------
         C            0.192930392656     0.784786785637     0.445747071996    12.000000000000
         C            0.192938292656    -0.927710214363     0.445749371996    12.000000000000
         C           -0.789605607344     0.028533785637    -0.410875928004    12.000000000000
         C            1.308083392656     1.600093785637    -0.163883928004    12.000000000000
         C            1.308098392656    -1.543003214363    -0.163883928004    12.000000000000
         C           -2.263546607344     0.028534785637    -0.090508928004    12.000000000000
         H           -0.238579607344     1.233702785637     1.340411071996     1.007825032230
         H           -0.238565607344    -1.176628214363     1.340415071996     1.007825032230
         H           -0.554278607344     0.028531785637    -1.475872928004     1.007825032230
         H            0.961607392656     2.613316785637    -0.392490928004     1.007825032230
         H            2.161340392656     1.681517785637     0.518007071996     1.007825032230
         H            1.665848392656     1.157469785637    -1.096785928004     1.007825032230
         H            2.161392392656    -1.624348214363     0.517969071996     1.007825032230
         H            0.961656392656    -2.556255214363    -0.392411928004     1.007825032230
         H            1.665796392656    -1.100422214363    -1.096832928004     1.007825032230
         H           -2.760250607344    -0.857970214363    -0.499094928004     1.007825032230
         H           -2.417272607344     0.028496785637     0.993402071996     1.007825032230
         H           -2.760234607344     0.915079785637    -0.499030928004     1.007825032230

  Basis Set: AUG-CC-PVTZ
    Blend: AUG-CC-PVTZ
  Basis Set: (AUG-CC-PVTZ AUX)
    Blend: AUG-CC-PVTZ-JKFIT
	 Reference Energy          =    -234.2128727869921079 [Eh]
	 Singles Energy            =      -0.0000000000000000 [Eh]
	 Same-Spin Energy          =      -0.2556068261634765 [Eh]
	 Opposite-Spin Energy      =      -0.9242555261676664 [Eh]
	 Correlation Energy        =      -1.1798623523311429 [Eh]
	 Total Energy              =    -235.3927351393232641 [Eh]

	 ================> DF-SCS-MP2 Energies <==================
	-----------------------------------------------------------
	 SCS Same-Spin Scale       =       0.3333333333333333 [-]
	 SCS Opposite-Spin Scale   =       1.2000000000000000 [-]
	 SCS Same-Spin Energy      =      -0.0852022753878255 [Eh]
	 SCS Opposite-Spin Energy  =      -1.1091066314011997 [Eh]
	 SCS Correlation Energy    =      -1.1943089067890251 [Eh]
	 SCS Total Energy          =    -235.4071816937811263 [Eh]
	-----------------------------------------------------------

  Dipole Moment: [D]
     X:    -0.0292      Y:     0.0682      Z:    -0.0859     Total:     0.1135

*** Psi4 exiting successfully. Buy a developer a beer!
