                               Psi4 1.4a3.dev225

  ==> Input File <==

--------------------------------------------------------------------------
#psi4
#
memory 32 gb

molecule  {
0 1
  C        0.1866420     0.7562470     0.4534190
  C        0.1866490    -0.7562500     0.4534210
  C       -0.7958940    -0.0000060    -0.4032040
  C        1.3165658     1.5823531    -0.1642869
  C        1.3018100    -1.5715430    -0.1562120
  C       -2.2698350    -0.0000050    -0.0828370
  H       -0.2448680     1.2051630     1.3480830
  H       -0.2448540    -1.2051680     1.3480870
  H       -0.5605670    -0.0000080    -1.4682010
  H        0.9553190     2.5847770    -0.3848190
  H        2.1550520     1.6529780     0.5256790
  H        1.6595600     1.1289300    -1.0891140
  H        2.1551040    -1.6528880     0.5256410
  H        0.9553680    -2.5847950    -0.3847400
  H        1.6595080    -1.1289620    -1.0891610
  H       -2.7665390    -0.8865100    -0.4914230
  H       -2.4235610    -0.0000430     1.0010740
  H       -2.7665230     0.8865400    -0.4913590
units angstrom
no_reorient  #important for SAPT in psi4, default
symmetry c1  #important for SAPT in psi4, default
}

set PROPERTIES_ORIGIN ["COM"]
properties('MP2/aug-cc-pvtz', properties = ['dipole'])
--------------------------------------------------------------------------

    Molecular point group: c1
  Charge       = 0
  Multiplicity = 1
  Basis Set: AUG-CC-PVTZ
    Blend: AUG-CC-PVTZ
  Basis Set: (AUG-CC-PVTZ AUX)
    Blend: AUG-CC-PVTZ-JKFIT

    Orbital Energies [Eh]
    ---------------------

    Doubly Occupied:

       1A    -11.221436     2A    -11.220266     3A    -11.219280
       4A    -11.212564     5A    -11.212415     6A    -11.211846
       7A     -1.150110     8A     -0.982329     9A     -0.974388
      10A     -0.908714    11A     -0.769476    12A     -0.745312
      13A     -0.640186    14A     -0.609307    15A     -0.570654
      16A     -0.569117    17A     -0.547915    18A     -0.536097
      19A     -0.530593    20A     -0.527181    21A     -0.483377
      22A     -0.471867    23A     -0.383084    24A     -0.381820

  @DF-RHF Final Energy:  -234.24837429505175

   => Energetics <=

    Nuclear Repulsion Energy =            246.0069631005819701
    One-Electron Energy =                -802.3520096702724231
    Two-Electron Energy =                 322.0966722746387063
    Total Energy =                       -234.2483742950517467
  Basis Set: (AUG-CC-PVTZ AUX)
    Blend: AUG-CC-PVTZ-RI
    Molecular point group: c1

    Geometry (in Angstrom), charge = 0, multiplicity = 1:

       Center              X                  Y                   Z               Mass
    ------------   -----------------  -----------------  -----------------  -----------------
         C            0.190822762981     0.754706254370     0.446899383871    12.000000000000
         C            0.190829762981    -0.757790745630     0.446901383871    12.000000000000
         C           -0.791713237019    -0.001546745630    -0.409723616129    12.000000000000
         C            1.320746562981     1.580812354370    -0.170806516129    12.000000000000
         C            1.305990762981    -1.573083745630    -0.162731616129    12.000000000000
         C           -2.265654237019    -0.001545745630    -0.089356616129    12.000000000000
         H           -0.240687237019     1.203622254370     1.341563383871     1.007825032230
         H           -0.240673237019    -1.206708745630     1.341567383871     1.007825032230
         H           -0.556386237019    -0.001548745630    -1.474720616129     1.007825032230
         H            0.959499762981     2.583236254370    -0.391338616129     1.007825032230
         H            2.159232762981     1.651437254370     0.519159383871     1.007825032230
         H            1.663740762981     1.127389254370    -1.095633616129     1.007825032230
         H            2.159284762981    -1.654428745630     0.519121383871     1.007825032230
         H            0.959548762981    -2.586335745630    -0.391259616129     1.007825032230
         H            1.663688762981    -1.130502745630    -1.095680616129     1.007825032230
         H           -2.762358237019    -0.888050745630    -0.497942616129     1.007825032230
         H           -2.419380237019    -0.001583745630     0.994554383871     1.007825032230
         H           -2.762342237019     0.884999254370    -0.497878616129     1.007825032230

  Basis Set: AUG-CC-PVTZ
    Blend: AUG-CC-PVTZ
  Basis Set: (AUG-CC-PVTZ AUX)
    Blend: AUG-CC-PVTZ-JKFIT
	 Reference Energy          =    -234.2483742950517467 [Eh]
	 Singles Energy            =      -0.0000000000000000 [Eh]
	 Same-Spin Energy          =      -0.2537730149333243 [Eh]
	 Opposite-Spin Energy      =      -0.9198737241023167 [Eh]
	 Correlation Energy        =      -1.1736467390356411 [Eh]
	 Total Energy              =    -235.4220210340873791 [Eh]

	 ================> DF-SCS-MP2 Energies <==================
	-----------------------------------------------------------
	 SCS Same-Spin Scale       =       0.3333333333333333 [-]
	 SCS Opposite-Spin Scale   =       1.2000000000000000 [-]
	 SCS Same-Spin Energy      =      -0.0845910049777748 [Eh]
	 SCS Opposite-Spin Energy  =      -1.1038484689227801 [Eh]
	 SCS Correlation Energy    =      -1.1884394739005548 [Eh]
	 SCS Total Energy          =    -235.4368137689523053 [Eh]
	-----------------------------------------------------------

  Dipole Moment: [D]
     X:    -0.0008      Y:     0.0046      Z:    -0.0078     Total:     0.0091

*** Psi4 exiting successfully. Buy a developer a beer!
