                               Psi4 1.4a3.dev225

  ==> Input File <==

--------------------------------------------------------------------------
#psi4
#
memory 32 gb

molecule  {
0 1
  C        0.1866420     0.7562470     0.4534190
  C        0.2470582    -0.7444002     0.5389660
  C       -0.7958940    -0.0000060    -0.4032040
  C        1.3017950     1.5715540    -0.1562120
  C        1.3018100    -1.5715430    -0.1562120
  C       -2.2698350    -0.0000050    -0.0828370
  H       -0.2448680     1.2051630     1.3480830
  H       -0.2448540    -1.2051680     1.3480870
  H       -0.5605670    -0.0000080    -1.4682010
  H        0.9553190     2.5847770    -0.3848190
  H        2.1550520     1.6529780     0.5256790
  H        1.6595600     1.1289300    -1.0891140
  H        2.1551040    -1.6528880     0.5256410
  H        0.9553680    -2.5847950    -0.3847400
  H        1.6595080    -1.1289620    -1.0891610
  H       -2.7665390    -0.8865100    -0.4914230
  H       -2.4235610    -0.0000430     1.0010740
  H       -2.7665230     0.8865400    -0.4913590
units angstrom
no_reorient  #important for SAPT in psi4, default
symmetry c1  #important for SAPT in psi4, default
}

set PROPERTIES_ORIGIN ["COM"]
properties('MP2/aug-cc-pvtz', properties = ['dipole'])
--------------------------------------------------------------------------

    Molecular point group: c1
  Charge       = 0
  Multiplicity = 1
  Basis Set: AUG-CC-PVTZ
    Blend: AUG-CC-PVTZ
  Basis Set: (AUG-CC-PVTZ AUX)
    Blend: AUG-CC-PVTZ-JKFIT

    Orbital Energies [Eh]
    ---------------------

    Doubly Occupied:

       1A    -11.225296     2A    -11.221175     3A    -11.219519
       4A    -11.213577     5A    -11.212440     6A    -11.211814
       7A     -1.141675     8A     -0.982280     9A     -0.976361
      10A     -0.905157    11A     -0.772998    12A     -0.746574
      13A     -0.642469    14A     -0.607268    15A     -0.570676
      16A     -0.566006    17A     -0.545487    18A     -0.536098
      19A     -0.531353    20A     -0.525757    21A     -0.488032
      22A     -0.477552    23A     -0.397923    24A     -0.355714

  @DF-RHF Final Energy:  -234.24161867164730

   => Energetics <=

    Nuclear Repulsion Energy =            245.5616406762807458
    One-Electron Energy =                -801.4601162827750613
    Two-Electron Energy =                 321.6568569348470419
    Total Energy =                       -234.2416186716473021
  Basis Set: (AUG-CC-PVTZ AUX)
    Blend: AUG-CC-PVTZ-RI
    Molecular point group: c1

    Geometry (in Angstrom), charge = 0, multiplicity = 1:

       Center              X                  Y                   Z               Mass
    ------------   -----------------  -----------------  -----------------  -----------------
         C            0.184310271617     0.754556321973     0.433540046335    12.000000000000
         C            0.244726471617    -0.746090878027     0.519087046335    12.000000000000
         C           -0.798225728383    -0.001696678027    -0.423082953665    12.000000000000
         C            1.299463271617     1.569863321973    -0.176090953665    12.000000000000
         C            1.299478271617    -1.573233678027    -0.176090953665    12.000000000000
         C           -2.272166728383    -0.001695678027    -0.102715953665    12.000000000000
         H           -0.247199728383     1.203472321973     1.328204046335     1.007825032230
         H           -0.247185728383    -1.206858678027     1.328208046335     1.007825032230
         H           -0.562898728383    -0.001698678027    -1.488079953665     1.007825032230
         H            0.952987271617     2.583086321973    -0.404697953665     1.007825032230
         H            2.152720271617     1.651287321973     0.505800046335     1.007825032230
         H            1.657228271617     1.127239321973    -1.108992953665     1.007825032230
         H            2.152772271617    -1.654578678027     0.505762046335     1.007825032230
         H            0.953036271617    -2.586485678027    -0.404618953665     1.007825032230
         H            1.657176271617    -1.130652678027    -1.109039953665     1.007825032230
         H           -2.768870728383    -0.888200678027    -0.511301953665     1.007825032230
         H           -2.425892728383    -0.001733678027     0.981195046335     1.007825032230
         H           -2.768854728383     0.884849321973    -0.511237953665     1.007825032230

  Basis Set: AUG-CC-PVTZ
    Blend: AUG-CC-PVTZ
  Basis Set: (AUG-CC-PVTZ AUX)
    Blend: AUG-CC-PVTZ-JKFIT
	 Reference Energy          =    -234.2416186716473021 [Eh]
	 Singles Energy            =      -0.0000000000000000 [Eh]
	 Same-Spin Energy          =      -0.2540490899959238 [Eh]
	 Opposite-Spin Energy      =      -0.9208464234558328 [Eh]
	 Correlation Energy        =      -1.1748955134517565 [Eh]
	 Total Energy              =    -235.4165141850990608 [Eh]

	 ================> DF-SCS-MP2 Energies <==================
	-----------------------------------------------------------
	 SCS Same-Spin Scale       =       0.3333333333333333 [-]
	 SCS Opposite-Spin Scale   =       1.2000000000000000 [-]
	 SCS Same-Spin Energy      =      -0.0846830299986413 [Eh]
	 SCS Opposite-Spin Energy  =      -1.1050157081469993 [Eh]
	 SCS Correlation Energy    =      -1.1896987381456405 [Eh]
	 SCS Total Energy          =    -235.4313174097929391 [Eh]
	-----------------------------------------------------------

  Dipole Moment: [D]
     X:     0.0054      Y:     0.0435      Z:     0.0057     Total:     0.0442

*** Psi4 exiting successfully. Buy a developer a beer!
