                               Psi4 1.4a3.dev225

  ==> Input File <==

--------------------------------------------------------------------------
#psi4
#
memory 32 gb

molecule  {
0 1
  C        0.1866420     0.7562470     0.4534190
  C        0.1866490    -0.7562500     0.4534210
  C       -0.7958940    -0.0000060    -0.4032040
  C        1.2648681     1.5445561    -0.1360248
  C        1.3018100    -1.5715430    -0.1562120
  C       -2.2698350    -0.0000050    -0.0828370
  H       -0.2448680     1.2051630     1.3480830
  H       -0.2448540    -1.2051680     1.3480870
  H       -0.5605670    -0.0000080    -1.4682010
  H        0.9553190     2.5847770    -0.3848190
  H        2.1550520     1.6529780     0.5256790
  H        1.6595600     1.1289300    -1.0891140
  H        2.1551040    -1.6528880     0.5256410
  H        0.9553680    -2.5847950    -0.3847400
  H        1.6595080    -1.1289620    -1.0891610
  H       -2.7665390    -0.8865100    -0.4914230
  H       -2.4235610    -0.0000430     1.0010740
  H       -2.7665230     0.8865400    -0.4913590
units angstrom
no_reorient  #important for SAPT in psi4, default
symmetry c1  #important for SAPT in psi4, default
}

set PROPERTIES_ORIGIN ["COM"]
properties('MP2/aug-cc-pvtz', properties = ['dipole'])
--------------------------------------------------------------------------

    Molecular point group: c1
  Charge       = 0
  Multiplicity = 1
  Basis Set: AUG-CC-PVTZ
    Blend: AUG-CC-PVTZ
  Basis Set: (AUG-CC-PVTZ AUX)
    Blend: AUG-CC-PVTZ-JKFIT

    Orbital Energies [Eh]
    ---------------------

    Doubly Occupied:

       1A    -11.221139     2A    -11.219960     3A    -11.218330
       4A    -11.214886     5A    -11.212866     6A    -11.212671
       7A     -1.154325     8A     -0.985108     9A     -0.978502
      10A     -0.907004    11A     -0.770888    12A     -0.746375
      13A     -0.642599    14A     -0.614717    15A     -0.570133
      16A     -0.567098    17A     -0.546960    18A     -0.531941
      19A     -0.531008    20A     -0.522011    21A     -0.486643
      22A     -0.476359    23A     -0.382425    24A     -0.379754

  @DF-RHF Final Energy:  -234.24536763894270

   => Energetics <=

    Nuclear Repulsion Energy =            247.0180835216208663
    One-Electron Energy =                -804.3394974251170879
    Two-Electron Energy =                 323.0760462645535540
    Total Energy =                       -234.2453676389426960
  Basis Set: (AUG-CC-PVTZ AUX)
    Blend: AUG-CC-PVTZ-RI
    Molecular point group: c1

    Geometry (in Angstrom), charge = 0, multiplicity = 1:

       Center              X                  Y                   Z               Mass
    ------------   -----------------  -----------------  -----------------  -----------------
         C            0.198199902073     0.760099796564     0.442866449277    12.000000000000
         C            0.198206902073    -0.752397203436     0.442868449277    12.000000000000
         C           -0.784336097927     0.003846796564    -0.413756550723    12.000000000000
         C            1.276426002073     1.548408896564    -0.146577350723    12.000000000000
         C            1.313367902073    -1.567690203436    -0.166764550723    12.000000000000
         C           -2.258277097927     0.003847796564    -0.093389550723    12.000000000000
         H           -0.233310097927     1.209015796564     1.337530449277     1.007825032230
         H           -0.233296097927    -1.201315203436     1.337534449277     1.007825032230
         H           -0.549009097927     0.003844796564    -1.478753550723     1.007825032230
         H            0.966876902073     2.588629796564    -0.395371550723     1.007825032230
         H            2.166609902073     1.656830796564     0.515126449277     1.007825032230
         H            1.671117902073     1.132782796564    -1.099666550723     1.007825032230
         H            2.166661902073    -1.649035203436     0.515088449277     1.007825032230
         H            0.966925902073    -2.580942203436    -0.395292550723     1.007825032230
         H            1.671065902073    -1.125109203436    -1.099713550723     1.007825032230
         H           -2.754981097927    -0.882657203436    -0.501975550723     1.007825032230
         H           -2.412003097927     0.003809796564     0.990521449277     1.007825032230
         H           -2.754965097927     0.890392796564    -0.501911550723     1.007825032230

  Basis Set: AUG-CC-PVTZ
    Blend: AUG-CC-PVTZ
  Basis Set: (AUG-CC-PVTZ AUX)
    Blend: AUG-CC-PVTZ-JKFIT
	 Reference Energy          =    -234.2453676389426960 [Eh]
	 Singles Energy            =      -0.0000000000000000 [Eh]
	 Same-Spin Energy          =      -0.2543833767688112 [Eh]
	 Opposite-Spin Energy      =      -0.9205045798780966 [Eh]
	 Correlation Energy        =      -1.1748879566469079 [Eh]
	 Total Energy              =    -235.4202555955895946 [Eh]

	 ================> DF-SCS-MP2 Energies <==================
	-----------------------------------------------------------
	 SCS Same-Spin Scale       =       0.3333333333333333 [-]
	 SCS Opposite-Spin Scale   =       1.2000000000000000 [-]
	 SCS Same-Spin Energy      =      -0.0847944589229371 [Eh]
	 SCS Opposite-Spin Energy  =      -1.1046054958537159 [Eh]
	 SCS Correlation Energy    =      -1.1893999547766529 [Eh]
	 SCS Total Energy          =    -235.4347675937193571 [Eh]
	-----------------------------------------------------------

  Dipole Moment: [D]
     X:    -0.0229      Y:    -0.0177      Z:    -0.0102     Total:     0.0307

*** Psi4 exiting successfully. Buy a developer a beer!
