                               Psi4 1.4a3.dev225

  ==> Input File <==

--------------------------------------------------------------------------
#psi4
#
memory 32 gb

molecule  {
0 1
  C        0.1866420     0.7562470     0.4534190
  C        0.1866490    -0.7562500     0.4534210
  C       -0.7958940    -0.0000060    -0.4032040
  C        1.3017950     1.5715540    -0.1562120
  C        1.3018100    -1.5715430    -0.1562120
  C       -2.2698350    -0.0000050    -0.0828370
  H       -0.2448680     1.2051630     1.3480830
  H       -0.2448540    -1.2051680     1.3480870
  H       -0.5605670    -0.0000080    -1.4682010
  H        0.9553190     2.5847770    -0.3848190
  H        2.1550520     1.6529780     0.5256790
  H        1.5940834     1.2099371    -0.9183783
  H        2.1551040    -1.6528880     0.5256410
  H        0.9553680    -2.5847950    -0.3847400
  H        1.6595080    -1.1289620    -1.0891610
  H       -2.7665390    -0.8865100    -0.4914230
  H       -2.4235610    -0.0000430     1.0010740
  H       -2.7665230     0.8865400    -0.4913590
units angstrom
no_reorient  #important for SAPT in psi4, default
symmetry c1  #important for SAPT in psi4, default
}

set PROPERTIES_ORIGIN ["COM"]
properties('MP2/aug-cc-pvtz', properties = ['dipole'])
--------------------------------------------------------------------------

    Molecular point group: c1
  Charge       = 0
  Multiplicity = 1
  Basis Set: AUG-CC-PVTZ
    Blend: AUG-CC-PVTZ
  Basis Set: (AUG-CC-PVTZ AUX)
    Blend: AUG-CC-PVTZ-JKFIT

    Orbital Energies [Eh]
    ---------------------

    Doubly Occupied:

       1A    -11.220421     2A    -11.219331     3A    -11.218641
       4A    -11.213271     5A    -11.212318     6A    -11.187448
       7A     -1.151891     8A     -0.995176     9A     -0.980156
      10A     -0.915377    11A     -0.772082    12A     -0.752633
      13A     -0.643035    14A     -0.616992    15A     -0.578338
      16A     -0.567733    17A     -0.552540    18A     -0.542934
      19A     -0.531149    20A     -0.528141    21A     -0.483787
      22A     -0.478114    23A     -0.382236    24A     -0.381530

  @DF-RHF Final Energy:  -234.21435900989945

   => Energetics <=

    Nuclear Repulsion Energy =            247.1737506488780980
    One-Electron Energy =                -804.5256644642596484
    Two-Electron Energy =                 323.1375548054820683
    Total Energy =                       -234.2143590098994537
  Basis Set: (AUG-CC-PVTZ AUX)
    Blend: AUG-CC-PVTZ-RI
    Molecular point group: c1

    Geometry (in Angstrom), charge = 0, multiplicity = 1:

       Center              X                  Y                   Z               Mass
    ------------   -----------------  -----------------  -----------------  -----------------
         C            0.193715226707     0.755276429098     0.443700929392    12.000000000000
         C            0.193722226707    -0.757220570902     0.443702929392    12.000000000000
         C           -0.788820773293    -0.000976570902    -0.412922070608    12.000000000000
         C            1.308868226707     1.570583429098    -0.165930070608    12.000000000000
         C            1.308883226707    -1.572513570902    -0.165930070608    12.000000000000
         C           -2.262761773293    -0.000975570902    -0.092555070608    12.000000000000
         H           -0.237794773293     1.204192429098     1.338364929392     1.007825032230
         H           -0.237780773293    -1.206138570902     1.338368929392     1.007825032230
         H           -0.553493773293    -0.000978570902    -1.477919070608     1.007825032230
         H            0.962392226707     2.583806429098    -0.394537070608     1.007825032230
         H            2.162125226707     1.652007429098     0.515960929392     1.007825032230
         H            1.601156626707     1.208966529098    -0.928096370608     1.007825032230
         H            2.162177226707    -1.653858570902     0.515922929392     1.007825032230
         H            0.962441226707    -2.585765570902    -0.394458070608     1.007825032230
         H            1.666581226707    -1.129932570902    -1.098879070608     1.007825032230
         H           -2.759465773293    -0.887480570902    -0.501141070608     1.007825032230
         H           -2.416487773293    -0.001013570902     0.991355929392     1.007825032230
         H           -2.759449773293     0.885569429098    -0.501077070608     1.007825032230

  Basis Set: AUG-CC-PVTZ
    Blend: AUG-CC-PVTZ
  Basis Set: (AUG-CC-PVTZ AUX)
    Blend: AUG-CC-PVTZ-JKFIT
	 Reference Energy          =    -234.2143590098994537 [Eh]
	 Singles Energy            =      -0.0000000000000000 [Eh]
	 Same-Spin Energy          =      -0.2539045653842942 [Eh]
	 Opposite-Spin Energy      =      -0.9192814623159721 [Eh]
	 Correlation Energy        =      -1.1731860277002664 [Eh]
	 Total Energy              =    -235.3875450375997218 [Eh]

	 ================> DF-SCS-MP2 Energies <==================
	-----------------------------------------------------------
	 SCS Same-Spin Scale       =       0.3333333333333333 [-]
	 SCS Opposite-Spin Scale   =       1.2000000000000000 [-]
	 SCS Same-Spin Energy      =      -0.0846348551280981 [Eh]
	 SCS Opposite-Spin Energy  =      -1.1031377547791665 [Eh]
	 SCS Correlation Energy    =      -1.1877726099072645 [Eh]
	 SCS Total Energy          =    -235.4021316198067098 [Eh]
	-----------------------------------------------------------

  Dipole Moment: [D]
     X:     0.0399      Y:    -0.0195      Z:    -0.0808     Total:     0.0922

*** Psi4 exiting successfully. Buy a developer a beer!
