                               Psi4 1.4a3.dev225

  ==> Input File <==

--------------------------------------------------------------------------
#psi4
#
memory 32 gb

molecule  {
0 1
  C        0.1866420     0.7562470     0.4534190
  C        0.1866490    -0.7562500     0.4534210
  C       -0.7958940    -0.0000060    -0.4032040
  C        1.3017950     1.5715540    -0.1562120
  C        1.3018100    -1.5715430    -0.1562120
  C       -2.2698350    -0.0000050    -0.0828370
  H       -0.2448680     1.2051630     1.3480830
  H       -0.2448540    -1.2051680     1.3480870
  H       -0.5605670    -0.0000080    -1.4682010
  H        0.9553190     2.5847770    -0.3848190
  H        2.1550520     1.6529780     0.5256790
  H        1.6922983     1.0884264    -1.1744818
  H        2.1551040    -1.6528880     0.5256410
  H        0.9553680    -2.5847950    -0.3847400
  H        1.6595080    -1.1289620    -1.0891610
  H       -2.7665390    -0.8865100    -0.4914230
  H       -2.4235610    -0.0000430     1.0010740
  H       -2.7665230     0.8865400    -0.4913590
units angstrom
no_reorient  #important for SAPT in psi4, default
symmetry c1  #important for SAPT in psi4, default
}

set PROPERTIES_ORIGIN ["COM"]
properties('MP2/aug-cc-pvtz', properties = ['dipole'])
--------------------------------------------------------------------------

    Molecular point group: c1
  Charge       = 0
  Multiplicity = 1
  Basis Set: AUG-CC-PVTZ
    Blend: AUG-CC-PVTZ
  Basis Set: (AUG-CC-PVTZ AUX)
    Blend: AUG-CC-PVTZ-JKFIT

    Orbital Energies [Eh]
    ---------------------

    Doubly Occupied:

       1A    -11.224733     2A    -11.221837     3A    -11.220697
       4A    -11.219645     5A    -11.212729     6A    -11.212141
       7A     -1.151266     8A     -0.982032     9A     -0.972525
      10A     -0.905609    11A     -0.769443    12A     -0.743301
      13A     -0.640412    14A     -0.609317    15A     -0.569797
      16A     -0.567953    17A     -0.547113    18A     -0.533121
      19A     -0.529453    20A     -0.519157    21A     -0.484377
      22A     -0.469357    23A     -0.382966    24A     -0.381935

  @DF-RHF Final Energy:  -234.24192143650265

   => Energetics <=

    Nuclear Repulsion Energy =            245.9308434054148336
    One-Electron Energy =                -802.2036913681580472
    Two-Electron Energy =                 322.0309265262405347
    Total Energy =                       -234.2419214365026505
  Basis Set: (AUG-CC-PVTZ AUX)
    Blend: AUG-CC-PVTZ-RI
    Molecular point group: c1

    Geometry (in Angstrom), charge = 0, multiplicity = 1:

       Center              X                  Y                   Z               Mass
    ------------   -----------------  -----------------  -----------------  -----------------
         C            0.192538168273     0.756732676514     0.446770206913    12.000000000000
         C            0.192545168273    -0.755764323486     0.446772206913    12.000000000000
         C           -0.789997831727     0.000479676514    -0.409852793087    12.000000000000
         C            1.307691168273     1.572039676514    -0.162860793087    12.000000000000
         C            1.307706168273    -1.571057323486    -0.162860793087    12.000000000000
         C           -2.263938831727     0.000480676514    -0.089485793087    12.000000000000
         H           -0.238971831727     1.205648676514     1.341434206913     1.007825032230
         H           -0.238957831727    -1.204682323486     1.341438206913     1.007825032230
         H           -0.554670831727     0.000477676514    -1.474849793087     1.007825032230
         H            0.961215168273     2.585262676514    -0.391467793087     1.007825032230
         H            2.160948168273     1.653463676514     0.519030206913     1.007825032230
         H            1.698194468273     1.088912076514    -1.181130593087     1.007825032230
         H            2.161000168273    -1.652402323486     0.518992206913     1.007825032230
         H            0.961264168273    -2.584309323486    -0.391388793087     1.007825032230
         H            1.665404168273    -1.128476323486    -1.095809793087     1.007825032230
         H           -2.760642831727    -0.886024323486    -0.498071793087     1.007825032230
         H           -2.417664831727     0.000442676514     0.994425206913     1.007825032230
         H           -2.760626831727     0.887025676514    -0.498007793087     1.007825032230

  Basis Set: AUG-CC-PVTZ
    Blend: AUG-CC-PVTZ
  Basis Set: (AUG-CC-PVTZ AUX)
    Blend: AUG-CC-PVTZ-JKFIT
	 Reference Energy          =    -234.2419214365026505 [Eh]
	 Singles Energy            =      -0.0000000000000000 [Eh]
	 Same-Spin Energy          =      -0.2539684780914561 [Eh]
	 Opposite-Spin Energy      =      -0.9207764287742854 [Eh]
	 Correlation Energy        =      -1.1747449068657416 [Eh]
	 Total Energy              =    -235.4166663433684050 [Eh]

	 ================> DF-SCS-MP2 Energies <==================
	-----------------------------------------------------------
	 SCS Same-Spin Scale       =       0.3333333333333333 [-]
	 SCS Opposite-Spin Scale   =       1.2000000000000000 [-]
	 SCS Same-Spin Energy      =      -0.0846561593638187 [Eh]
	 SCS Opposite-Spin Energy  =      -1.1049317145291424 [Eh]
	 SCS Correlation Energy    =      -1.1895878738929611 [Eh]
	 SCS Total Energy          =    -235.4315093103955974 [Eh]
	-----------------------------------------------------------

  Dipole Moment: [D]
     X:    -0.0391      Y:     0.0144      Z:     0.0457     Total:     0.0618

*** Psi4 exiting successfully. Buy a developer a beer!
