                               Psi4 1.4a3.dev225

  ==> Input File <==

--------------------------------------------------------------------------
#psi4
#
memory 32 gb

molecule  {
0 1
  C        0.1866420     0.7562470     0.4534190
  C        0.1866490    -0.7562500     0.4534210
  C       -0.7958940    -0.0000060    -0.4032040
  C        1.3017950     1.5715540    -0.1562120
  C        1.3018100    -1.5715430    -0.1562120
  C       -2.2698350    -0.0000050    -0.0828370
  H       -0.2448680     1.2051630     1.3480830
  H       -0.2448540    -1.2051680     1.3480870
  H       -0.5389910    -0.0000082    -1.5658456
  H        0.9553190     2.5847770    -0.3848190
  H        2.1550520     1.6529780     0.5256790
  H        1.6595600     1.1289300    -1.0891140
  H        2.1551040    -1.6528880     0.5256410
  H        0.9553680    -2.5847950    -0.3847400
  H        1.6595080    -1.1289620    -1.0891610
  H       -2.7665390    -0.8865100    -0.4914230
  H       -2.4235610    -0.0000430     1.0010740
  H       -2.7665230     0.8865400    -0.4913590
units angstrom
no_reorient  #important for SAPT in psi4, default
symmetry c1  #important for SAPT in psi4, default
}

set PROPERTIES_ORIGIN ["COM"]
properties('MP2/aug-cc-pvtz', properties = ['dipole'])
--------------------------------------------------------------------------

    Molecular point group: c1
  Charge       = 0
  Multiplicity = 1
  Basis Set: AUG-CC-PVTZ
    Blend: AUG-CC-PVTZ
  Basis Set: (AUG-CC-PVTZ AUX)
    Blend: AUG-CC-PVTZ-JKFIT

    Orbital Energies [Eh]
    ---------------------

    Doubly Occupied:

       1A    -11.231263     2A    -11.221901     3A    -11.221266
       4A    -11.213792     5A    -11.212698     6A    -11.212693
       7A     -1.150633     8A     -0.982610     9A     -0.975881
      10A     -0.908853    11A     -0.756958    12A     -0.746383
      13A     -0.641187    14A     -0.604689    15A     -0.570516
      16A     -0.568734    17A     -0.547747    18A     -0.534551
      19A     -0.530099    20A     -0.527640    21A     -0.474390
      22A     -0.474327    23A     -0.383098    24A     -0.382336

  @DF-RHF Final Energy:  -234.24166715118463

   => Energetics <=

    Nuclear Repulsion Energy =            245.8400253960252826
    One-Electron Energy =                -802.0148943430034478
    Two-Electron Energy =                 321.9332017957935932
    Total Energy =                       -234.2416671511846289
  Basis Set: (AUG-CC-PVTZ AUX)
    Blend: AUG-CC-PVTZ-RI
    Molecular point group: c1

    Geometry (in Angstrom), charge = 0, multiplicity = 1:

       Center              X                  Y                   Z               Mass
    ------------   -----------------  -----------------  -----------------  -----------------
         C            0.192671943081     0.756247262707     0.446917338469    12.000000000000
         C            0.192678943081    -0.756249737293     0.446919338469    12.000000000000
         C           -0.789864056919    -0.000005737293    -0.409705661531    12.000000000000
         C            1.307824943081     1.571554262707    -0.162713661531    12.000000000000
         C            1.307839943081    -1.571542737293    -0.162713661531    12.000000000000
         C           -2.263805056919    -0.000004737293    -0.089338661531    12.000000000000
         H           -0.238838056919     1.205163262707     1.341581338469     1.007825032230
         H           -0.238824056919    -1.205167737293     1.341585338469     1.007825032230
         H           -0.532961056919    -0.000007937293    -1.572347261531     1.007825032230
         H            0.961348943081     2.584777262707    -0.391320661531     1.007825032230
         H            2.161081943081     1.652978262707     0.519177338469     1.007825032230
         H            1.665589943081     1.128930262707    -1.095615661531     1.007825032230
         H            2.161133943081    -1.652887737293     0.519139338469     1.007825032230
         H            0.961397943081    -2.584794737293    -0.391241661531     1.007825032230
         H            1.665537943081    -1.128961737293    -1.095662661531     1.007825032230
         H           -2.760509056919    -0.886509737293    -0.497924661531     1.007825032230
         H           -2.417531056919    -0.000042737293     0.994572338469     1.007825032230
         H           -2.760493056919     0.886540262707    -0.497860661531     1.007825032230

  Basis Set: AUG-CC-PVTZ
    Blend: AUG-CC-PVTZ
  Basis Set: (AUG-CC-PVTZ AUX)
    Blend: AUG-CC-PVTZ-JKFIT
	 Reference Energy          =    -234.2416671511846289 [Eh]
	 Singles Energy            =      -0.0000000000000000 [Eh]
	 Same-Spin Energy          =      -0.2540161350232947 [Eh]
	 Opposite-Spin Energy      =      -0.9207143593935483 [Eh]
	 Correlation Energy        =      -1.1747304944168431 [Eh]
	 Total Energy              =    -235.4163976456014780 [Eh]

	 ================> DF-SCS-MP2 Energies <==================
	-----------------------------------------------------------
	 SCS Same-Spin Scale       =       0.3333333333333333 [-]
	 SCS Opposite-Spin Scale   =       1.2000000000000000 [-]
	 SCS Same-Spin Energy      =      -0.0846720450077649 [Eh]
	 SCS Opposite-Spin Energy  =      -1.1048572312722580 [Eh]
	 SCS Correlation Energy    =      -1.1895292762800229 [Eh]
	 SCS Total Energy          =    -235.4311964274646414 [Eh]
	-----------------------------------------------------------

  Dipole Moment: [D]
     X:    -0.0184      Y:    -0.0000      Z:     0.0547     Total:     0.0578

*** Psi4 exiting successfully. Buy a developer a beer!
