                               Psi4 1.4a3.dev225

  ==> Input File <==

--------------------------------------------------------------------------
#psi4
#
memory 32 gb

molecule  {
0 1
  C        0.1866420     0.7562470     0.4534190
  C        0.1866490    -0.7562500     0.4534210
  C       -0.7444655    -0.0360752    -0.4875764
  C        1.3017950     1.5715540    -0.1562120
  C        1.3018100    -1.5715430    -0.1562120
  C       -2.2698350    -0.0000050    -0.0828370
  H       -0.2448680     1.2051630     1.3480830
  H       -0.2448540    -1.2051680     1.3480870
  H       -0.5605670    -0.0000080    -1.4682010
  H        0.9553190     2.5847770    -0.3848190
  H        2.1550520     1.6529780     0.5256790
  H        1.6595600     1.1289300    -1.0891140
  H        2.1551040    -1.6528880     0.5256410
  H        0.9553680    -2.5847950    -0.3847400
  H        1.6595080    -1.1289620    -1.0891610
  H       -2.7665390    -0.8865100    -0.4914230
  H       -2.4235610    -0.0000430     1.0010740
  H       -2.7665230     0.8865400    -0.4913590
units angstrom
no_reorient  #important for SAPT in psi4, default
symmetry c1  #important for SAPT in psi4, default
}

set PROPERTIES_ORIGIN ["COM"]
properties('MP2/aug-cc-pvtz', properties = ['dipole'])
--------------------------------------------------------------------------

    Molecular point group: c1
  Charge       = 0
  Multiplicity = 1
  Basis Set: AUG-CC-PVTZ
    Blend: AUG-CC-PVTZ
  Basis Set: (AUG-CC-PVTZ AUX)
    Blend: AUG-CC-PVTZ-JKFIT

    Orbital Energies [Eh]
    ---------------------

    Doubly Occupied:

       1A    -11.223272     2A    -11.221476     3A    -11.217038
       4A    -11.214076     5A    -11.211790     6A    -11.211372
       7A     -1.145636     8A     -0.975558     9A     -0.972546
      10A     -0.901573    11A     -0.791468    12A     -0.743122
      13A     -0.639711    14A     -0.612380    15A     -0.567953
      16A     -0.566312    17A     -0.544255    18A     -0.534416
      19A     -0.528424    20A     -0.527417    21A     -0.487016
      22A     -0.473941    23A     -0.386812    24A     -0.371526

  @DF-RHF Final Energy:  -234.23661205341182

   => Energetics <=

    Nuclear Repulsion Energy =            245.7675390191117799
    One-Electron Energy =                -801.8701235544731389
    Two-Electron Energy =                 321.8659724819494841
    Total Energy =                       -234.2366120534118181
  Basis Set: (AUG-CC-PVTZ AUX)
    Blend: AUG-CC-PVTZ-RI
    Molecular point group: c1

    Geometry (in Angstrom), charge = 0, multiplicity = 1:

       Center              X                  Y                   Z               Mass
    ------------   -----------------  -----------------  -----------------  -----------------
         C            0.185591796193     0.761394249544     0.457786856039    12.000000000000
         C            0.185598796193    -0.751102750456     0.457788856039    12.000000000000
         C           -0.745515703807    -0.030927950456    -0.483208543961    12.000000000000
         C            1.300744796193     1.576701249544    -0.151844143961    12.000000000000
         C            1.300759796193    -1.566395750456    -0.151844143961    12.000000000000
         C           -2.270885203807     0.005142249544    -0.078469143961    12.000000000000
         H           -0.245918203807     1.210310249544     1.352450856039     1.007825032230
         H           -0.245904203807    -1.200020750456     1.352454856039     1.007825032230
         H           -0.561617203807     0.005139249544    -1.463833143961     1.007825032230
         H            0.954268796193     2.589924249544    -0.380451143961     1.007825032230
         H            2.154001796193     1.658125249544     0.530046856039     1.007825032230
         H            1.658509796193     1.134077249544    -1.084746143961     1.007825032230
         H            2.154053796193    -1.647740750456     0.530008856039     1.007825032230
         H            0.954317796193    -2.579647750456    -0.380372143961     1.007825032230
         H            1.658457796193    -1.123814750456    -1.084793143961     1.007825032230
         H           -2.767589203807    -0.881362750456    -0.487055143961     1.007825032230
         H           -2.424611203807     0.005104249544     1.005441856039     1.007825032230
         H           -2.767573203807     0.891687249544    -0.486991143961     1.007825032230

  Basis Set: AUG-CC-PVTZ
    Blend: AUG-CC-PVTZ
  Basis Set: (AUG-CC-PVTZ AUX)
    Blend: AUG-CC-PVTZ-JKFIT
	 Reference Energy          =    -234.2366120534118181 [Eh]
	 Singles Energy            =      -0.0000000000000000 [Eh]
	 Same-Spin Energy          =      -0.2535313954039198 [Eh]
	 Opposite-Spin Energy      =      -0.9203340172099816 [Eh]
	 Correlation Energy        =      -1.1738654126139014 [Eh]
	 Total Energy              =    -235.4104774660257249 [Eh]

	 ================> DF-SCS-MP2 Energies <==================
	-----------------------------------------------------------
	 SCS Same-Spin Scale       =       0.3333333333333333 [-]
	 SCS Opposite-Spin Scale   =       1.2000000000000000 [-]
	 SCS Same-Spin Energy      =      -0.0845104651346399 [Eh]
	 SCS Opposite-Spin Energy  =      -1.1044008206519780 [Eh]
	 SCS Correlation Energy    =      -1.1889112857866180 [Eh]
	 SCS Total Energy          =    -235.4255233391984348 [Eh]
	-----------------------------------------------------------

  Dipole Moment: [D]
     X:     0.0364      Y:    -0.0120      Z:    -0.0002     Total:     0.0383

*** Psi4 exiting successfully. Buy a developer a beer!
