                               Psi4 1.4a3.dev225

  ==> Input File <==

--------------------------------------------------------------------------
#psi4
#
memory 32 gb

molecule  {
0 1
  C        0.1866420     0.7562470     0.4534190
  C        0.1866489    -0.7362500     0.4534210
  C       -0.7958940    -0.0000060    -0.4032040
  C        1.3017950     1.5715540    -0.1562120
  C        1.3018100    -1.5715430    -0.1562120
  C       -2.2698350    -0.0000050    -0.0828370
  H       -0.2448680     1.2051630     1.3480830
  H       -0.2448540    -1.2051680     1.3480870
  H       -0.5605670    -0.0000080    -1.4682010
  H        0.9553190     2.5847770    -0.3848190
  H        2.1550520     1.6529780     0.5256790
  H        1.6595600     1.1289300    -1.0891140
  H        2.1551040    -1.6528880     0.5256410
  H        0.9553680    -2.5847950    -0.3847400
  H        1.6595080    -1.1289620    -1.0891610
  H       -2.7665390    -0.8865100    -0.4914230
  H       -2.4235610    -0.0000430     1.0010740
  H       -2.7665230     0.8865400    -0.4913590
units angstrom
no_reorient  #important for SAPT in psi4, default
symmetry c1  #important for SAPT in psi4, default
}

set PROPERTIES_ORIGIN ["COM"]
properties('MP2/aug-cc-pvtz', properties = ['dipole'])
--------------------------------------------------------------------------

    Molecular point group: c1
  Charge       = 0
  Multiplicity = 1
  Basis Set: AUG-CC-PVTZ
    Blend: AUG-CC-PVTZ
  Basis Set: (AUG-CC-PVTZ AUX)
    Blend: AUG-CC-PVTZ-JKFIT

    Orbital Energies [Eh]
    ---------------------

    Doubly Occupied:

       1A    -11.220732     2A    -11.219650     3A    -11.218287
       4A    -11.213154     5A    -11.212634     6A    -11.212444
       7A     -1.155386     8A     -0.982566     9A     -0.974042
      10A     -0.909710    11A     -0.770367    12A     -0.744294
      13A     -0.642083    14A     -0.611282    15A     -0.569480
      16A     -0.568344    17A     -0.546977    18A     -0.534326
      19A     -0.530932    20A     -0.527280    21A     -0.483499
      22A     -0.469949    23A     -0.388148    24A     -0.380786

  @DF-RHF Final Energy:  -234.24824089165918

   => Energetics <=

    Nuclear Repulsion Energy =            246.5103616769020505
    One-Electron Energy =                -803.3444944291625234
    Two-Electron Energy =                 322.5858918606013503
    Total Energy =                       -234.2482408916591794
  Basis Set: (AUG-CC-PVTZ AUX)
    Blend: AUG-CC-PVTZ-RI
    Molecular point group: c1

    Geometry (in Angstrom), charge = 0, multiplicity = 1:

       Center              X                  Y                   Z               Mass
    ------------   -----------------  -----------------  -----------------  -----------------
         C            0.192930535354     0.753393307777     0.445747114806    12.000000000000
         C            0.192937435354    -0.739103692223     0.445749114806    12.000000000000
         C           -0.789605464646    -0.002859692223    -0.410875885194    12.000000000000
         C            1.308083535354     1.568700307777    -0.163883885194    12.000000000000
         C            1.308098535354    -1.574396692223    -0.163883885194    12.000000000000
         C           -2.263546464646    -0.002858692223    -0.090508885194    12.000000000000
         H           -0.238579464646     1.202309307777     1.340411114806     1.007825032230
         H           -0.238565464646    -1.208021692223     1.340415114806     1.007825032230
         H           -0.554278464646    -0.002861692223    -1.475872885194     1.007825032230
         H            0.961607535354     2.581923307777    -0.392490885194     1.007825032230
         H            2.161340535354     1.650124307777     0.518007114806     1.007825032230
         H            1.665848535354     1.126076307777    -1.096785885194     1.007825032230
         H            2.161392535354    -1.655741692223     0.517969114806     1.007825032230
         H            0.961656535354    -2.587648692223    -0.392411885194     1.007825032230
         H            1.665796535354    -1.131815692223    -1.096832885194     1.007825032230
         H           -2.760250464646    -0.889363692223    -0.499094885194     1.007825032230
         H           -2.417272464646    -0.002896692223     0.993402114806     1.007825032230
         H           -2.760234464646     0.883686307777    -0.499030885194     1.007825032230

  Basis Set: AUG-CC-PVTZ
    Blend: AUG-CC-PVTZ
  Basis Set: (AUG-CC-PVTZ AUX)
    Blend: AUG-CC-PVTZ-JKFIT
	 Reference Energy          =    -234.2482408916591794 [Eh]
	 Singles Energy            =      -0.0000000000000000 [Eh]
	 Same-Spin Energy          =      -0.2538944026352831 [Eh]
	 Opposite-Spin Energy      =      -0.9198371583236492 [Eh]
	 Correlation Energy        =      -1.1737315609589323 [Eh]
	 Total Energy              =    -235.4219724526181210 [Eh]

	 ================> DF-SCS-MP2 Energies <==================
	-----------------------------------------------------------
	 SCS Same-Spin Scale       =       0.3333333333333333 [-]
	 SCS Opposite-Spin Scale   =       1.2000000000000000 [-]
	 SCS Same-Spin Energy      =      -0.0846314675450943 [Eh]
	 SCS Opposite-Spin Energy  =      -1.1038045899883790 [Eh]
	 SCS Correlation Energy    =      -1.1884360575334734 [Eh]
	 SCS Total Energy          =    -235.4366769491926448 [Eh]
	-----------------------------------------------------------

  Dipole Moment: [D]
     X:     0.0005      Y:    -0.0025      Z:    -0.0022     Total:     0.0034

*** Psi4 exiting successfully. Buy a developer a beer!
