                               Psi4 1.4a3.dev225

  ==> Input File <==

--------------------------------------------------------------------------
#psi4
#
memory 32 gb

molecule  {
0 1
  C        0.1866420     0.7562470     0.4534190
  C        0.1866490    -0.7562500     0.4534210
  C       -0.8639894     0.0471396    -0.2689543
  C        1.3017950     1.5715540    -0.1562120
  C        1.3018100    -1.5715430    -0.1562120
  C       -2.2698350    -0.0000050    -0.0828370
  H       -0.2448680     1.2051630     1.3480830
  H       -0.2448540    -1.2051680     1.3480870
  H       -0.5605670    -0.0000080    -1.4682010
  H        0.9553190     2.5847770    -0.3848190
  H        2.1550520     1.6529780     0.5256790
  H        1.6595600     1.1289300    -1.0891140
  H        2.1551040    -1.6528880     0.5256410
  H        0.9553680    -2.5847950    -0.3847400
  H        1.6595080    -1.1289620    -1.0891610
  H       -2.7665390    -0.8865100    -0.4914230
  H       -2.4235610    -0.0000430     1.0010740
  H       -2.7665230     0.8865400    -0.4913590
units angstrom
no_reorient  #important for SAPT in psi4, default
symmetry c1  #important for SAPT in psi4, default
}

set PROPERTIES_ORIGIN ["COM"]
properties('MP2/aug-cc-pvtz', properties = ['dipole'])
--------------------------------------------------------------------------

    Molecular point group: c1
  Charge       = 0
  Multiplicity = 1
  Basis Set: AUG-CC-PVTZ
    Blend: AUG-CC-PVTZ
  Basis Set: (AUG-CC-PVTZ AUX)
    Blend: AUG-CC-PVTZ-JKFIT

    Orbital Energies [Eh]
    ---------------------

    Doubly Occupied:

       1A    -11.227734     2A    -11.221956     3A    -11.219561
       4A    -11.215368     5A    -11.214516     6A    -11.211740
       7A     -1.162164     8A     -1.001422     9A     -0.976853
      10A     -0.919463    11A     -0.752304    12A     -0.745359
      13A     -0.651925    14A     -0.608174    15A     -0.576881
      16A     -0.573774    17A     -0.551355    18A     -0.546029
      19A     -0.535336    20A     -0.527287    21A     -0.476543
      22A     -0.454631    23A     -0.392349    24A     -0.371485

  @DF-RHF Final Energy:  -234.22106429493425

   => Energetics <=

    Nuclear Repulsion Energy =            247.0884253782600695
    One-Electron Energy =                -804.3505605428370018
    Two-Electron Energy =                 323.0410708696426241
    Total Energy =                       -234.2210642949342514
  Basis Set: (AUG-CC-PVTZ AUX)
    Blend: AUG-CC-PVTZ-RI
    Molecular point group: c1

    Geometry (in Angstrom), charge = 0, multiplicity = 1:

       Center              X                  Y                   Z               Mass
    ------------   -----------------  -----------------  -----------------  -----------------
         C            0.202647573049     0.749519695083     0.426590001239    12.000000000000
         C            0.202654573049    -0.762977304917     0.426592001239    12.000000000000
         C           -0.847983826951     0.040412295083    -0.295783298761    12.000000000000
         C            1.317800573049     1.564826695083    -0.183040998761    12.000000000000
         C            1.317815573049    -1.578270304917    -0.183040998761    12.000000000000
         C           -2.253829426951    -0.006732304917    -0.109665998761    12.000000000000
         H           -0.228862426951     1.198435695083     1.321254001239     1.007825032230
         H           -0.228848426951    -1.211895304917     1.321258001239     1.007825032230
         H           -0.544561426951    -0.006735304917    -1.495029998761     1.007825032230
         H            0.971324573049     2.578049695083    -0.411647998761     1.007825032230
         H            2.171057573049     1.646250695083     0.498850001239     1.007825032230
         H            1.675565573049     1.122202695083    -1.115942998761     1.007825032230
         H            2.171109573049    -1.659615304917     0.498812001239     1.007825032230
         H            0.971373573049    -2.591522304917    -0.411568998761     1.007825032230
         H            1.675513573049    -1.135689304917    -1.115989998761     1.007825032230
         H           -2.750533426951    -0.893237304917    -0.518251998761     1.007825032230
         H           -2.407555426951    -0.006770304917     0.974245001239     1.007825032230
         H           -2.750517426951     0.879812695083    -0.518187998761     1.007825032230

  Basis Set: AUG-CC-PVTZ
    Blend: AUG-CC-PVTZ
  Basis Set: (AUG-CC-PVTZ AUX)
    Blend: AUG-CC-PVTZ-JKFIT
	 Reference Energy          =    -234.2210642949342514 [Eh]
	 Singles Energy            =      -0.0000000000000000 [Eh]
	 Same-Spin Energy          =      -0.2554719764658695 [Eh]
	 Opposite-Spin Energy      =      -0.9221622400778922 [Eh]
	 Correlation Energy        =      -1.1776342165437617 [Eh]
	 Total Energy              =    -235.3986985114780168 [Eh]

	 ================> DF-SCS-MP2 Energies <==================
	-----------------------------------------------------------
	 SCS Same-Spin Scale       =       0.3333333333333333 [-]
	 SCS Opposite-Spin Scale   =       1.2000000000000000 [-]
	 SCS Same-Spin Energy      =      -0.0851573254886232 [Eh]
	 SCS Opposite-Spin Energy  =      -1.1065946880934705 [Eh]
	 SCS Correlation Energy    =      -1.1917520135820936 [Eh]
	 SCS Total Energy          =    -235.4128163085163408 [Eh]
	-----------------------------------------------------------

  Dipole Moment: [D]
     X:    -0.0552      Y:     0.0270      Z:     0.0571     Total:     0.0839

*** Psi4 exiting successfully. Buy a developer a beer!
