                               Psi4 1.4a3.dev225

  ==> Input File <==

--------------------------------------------------------------------------
#psi4
#
memory 32 gb

molecule  {
0 1
  O        1.7312310    -0.2769730     0.0000590
  O       -1.7312320     0.2769720     0.0000220
  O        0.5576720     1.6786530    -0.0001670
  O       -0.5576690    -1.6786520    -0.0003240
  C        2.9581590     0.5011960     0.0001010
  C       -2.9581610    -0.5011970    -0.0000370
  C        4.0961590    -0.4920900     0.0002650
  C       -4.0961600     0.4920910     0.0001910
  C        0.6121100     0.4612570    -0.0000760
  C       -0.6121090    -0.4612570    -0.0001440
  H        2.9624380     1.1440920    -0.8842080
  H        2.9622950     1.1442210     0.8843180
  H       -2.9624180    -1.1440100    -0.8844060
  H       -2.9623190    -1.1443030     0.8841200
  H        5.0512870     0.0405180     0.0003010
  H        4.0503980    -1.1272370     0.8870460
  H        4.0505370    -1.1273680    -0.8864290
  H       -5.0687568    -0.0502565     0.0001533
  H       -4.0504200     1.1271560     0.8870320
  H       -4.0505160     1.1274510    -0.8864430
units angstrom
no_reorient  #important for SAPT in psi4, default
symmetry c1  #important for SAPT in psi4, default
}

set PROPERTIES_ORIGIN ["COM"]
properties('MP2/aug-cc-pvtz', properties = ['dipole'])
--------------------------------------------------------------------------

    Molecular point group: c1
  Charge       = 0
  Multiplicity = 1
  Basis Set: AUG-CC-PVTZ
    Blend: AUG-CC-PVTZ
  Basis Set: (AUG-CC-PVTZ AUX)
    Blend: AUG-CC-PVTZ-JKFIT

    Orbital Energies [Eh]
    ---------------------

    Doubly Occupied:

       1A    -20.619628     2A    -20.619541     3A    -20.572150
       4A    -20.572121     5A    -11.408100     6A    -11.407530
       7A    -11.299719     8A    -11.299584     9A    -11.232314
      10A    -11.229906    11A     -1.487514    12A     -1.459337
      13A     -1.382604    14A     -1.366859    15A     -1.061649
      16A     -1.047366    17A     -0.945559    18A     -0.874729
      19A     -0.831213    20A     -0.787322    21A     -0.744985
      22A     -0.703811    23A     -0.702522    24A     -0.684142
      25A     -0.680147    26A     -0.611410    27A     -0.609510
      28A     -0.578001    29A     -0.575844    30A     -0.558292
      31A     -0.546266    32A     -0.524236    33A     -0.523572
      34A     -0.522791    35A     -0.520413    36A     -0.511431
      37A     -0.475938    38A     -0.466239    39A     -0.448208

  @DF-RHF Final Energy:  -532.69521894558329

   => Energetics <=

    Nuclear Repulsion Energy =            540.4193644284305265
    One-Electron Energy =               -1801.2441638998454891
    Two-Electron Energy =                 728.1295805258316705
    Total Energy =                       -532.6952189455832922
  Basis Set: (AUG-CC-PVTZ AUX)
    Blend: AUG-CC-PVTZ-RI
    Molecular point group: c1

    Geometry (in Angstrom), charge = 0, multiplicity = 1:

       Center              X                  Y                   Z               Mass
    ------------   -----------------  -----------------  -----------------  -----------------
         O            1.731351524463    -0.276905816453     0.000069009730    15.994914619570
         O           -1.731111475537     0.277039183547     0.000032009730    15.994914619570
         O            0.557792524463     1.678720183547    -0.000156990270    15.994914619570
         O           -0.557548475537    -1.678584816453    -0.000313990270    15.994914619570
         C            2.958279524463     0.501263183547     0.000111009730    12.000000000000
         C           -2.958040475537    -0.501129816453    -0.000026990270    12.000000000000
         C            4.096279524463    -0.492022816453     0.000275009730    12.000000000000
         C           -4.096039475537     0.492158183547     0.000201009730    12.000000000000
         C            0.612230524463     0.461324183547    -0.000065990270    12.000000000000
         C           -0.611988475537    -0.461189816453    -0.000133990270    12.000000000000
         H            2.962558524463     1.144159183547    -0.884197990270     1.007825032230
         H            2.962415524463     1.144288183547     0.884328009730     1.007825032230
         H           -2.962297475537    -1.143942816453    -0.884395990270     1.007825032230
         H           -2.962198475537    -1.144235816453     0.884130009730     1.007825032230
         H            5.051407524463     0.040585183547     0.000311009730     1.007825032230
         H            4.050518524463    -1.127169816453     0.887056009730     1.007825032230
         H            4.050657524463    -1.127300816453    -0.886418990270     1.007825032230
         H           -5.068636275537    -0.050189316453     0.000163309730     1.007825032230
         H           -4.050299475537     1.127223183547     0.887042009730     1.007825032230
         H           -4.050395475537     1.127518183547    -0.886432990270     1.007825032230

  Basis Set: AUG-CC-PVTZ
    Blend: AUG-CC-PVTZ
  Basis Set: (AUG-CC-PVTZ AUX)
    Blend: AUG-CC-PVTZ-JKFIT
	 Reference Energy          =    -532.6952189455832922 [Eh]
	 Singles Energy            =      -0.0000000000000000 [Eh]
	 Same-Spin Energy          =      -0.5156239088821636 [Eh]
	 Opposite-Spin Energy      =      -1.6267869612339618 [Eh]
	 Correlation Energy        =      -2.1424108701161253 [Eh]
	 Total Energy              =    -534.8376298156994153 [Eh]

	 ================> DF-SCS-MP2 Energies <==================
	-----------------------------------------------------------
	 SCS Same-Spin Scale       =       0.3333333333333333 [-]
	 SCS Opposite-Spin Scale   =       1.2000000000000000 [-]
	 SCS Same-Spin Energy      =      -0.1718746362940545 [Eh]
	 SCS Opposite-Spin Energy  =      -1.9521443534807541 [Eh]
	 SCS Correlation Energy    =      -2.1240189897748087 [Eh]
	 SCS Total Energy          =    -534.8192379353580463 [Eh]
	-----------------------------------------------------------

  Dipole Moment: [D]
     X:     0.0111      Y:     0.0030      Z:     0.0005     Total:     0.0115

*** Psi4 exiting successfully. Buy a developer a beer!
