                               Psi4 1.4a3.dev225

  ==> Input File <==

--------------------------------------------------------------------------
#psi4
#
memory 32 gb

molecule  {
0 1
  O        1.7312310    -0.2769730     0.0000590
  O       -1.7312320     0.2769720     0.0000220
  O        0.5576720     1.6786530    -0.0001670
  O       -0.5576690    -1.6786520    -0.0003240
  C        2.9581590     0.5011960     0.0001010
  C       -2.9581610    -0.5011970    -0.0000370
  C        4.0961590    -0.4920900     0.0002650
  C       -4.0961600     0.4920910     0.0001910
  C        0.6121100     0.4612570    -0.0000760
  C       -0.6121090    -0.4612570    -0.0001440
  H        2.9624380     1.1440920    -0.8842080
  H        2.9622950     1.1442210     0.8843180
  H       -2.9624180    -1.1440100    -0.8844060
  H       -2.9623190    -1.1443030     0.8841200
  H        5.0512870     0.0405180     0.0003010
  H        4.0503980    -1.1272370     0.8870460
  H        4.0505370    -1.1273680    -0.8864290
  H       -5.0298380    -0.0735100    -0.0652506
  H       -4.0504200     1.1271560     0.8870320
  H       -4.0505160     1.1274510    -0.8864430
units angstrom
no_reorient  #important for SAPT in psi4, default
symmetry c1  #important for SAPT in psi4, default
}

set PROPERTIES_ORIGIN ["COM"]
properties('MP2/aug-cc-pvtz', properties = ['dipole'])
--------------------------------------------------------------------------

    Molecular point group: c1
  Charge       = 0
  Multiplicity = 1
  Basis Set: AUG-CC-PVTZ
    Blend: AUG-CC-PVTZ
  Basis Set: (AUG-CC-PVTZ AUX)
    Blend: AUG-CC-PVTZ-JKFIT

    Orbital Energies [Eh]
    ---------------------

    Doubly Occupied:

       1A    -20.619413     2A    -20.619115     3A    -20.571974
       4A    -20.571916     5A    -11.407849     6A    -11.407272
       7A    -11.299495     8A    -11.299157     9A    -11.230062
      10A    -11.229841    11A     -1.487277    12A     -1.459090
      13A     -1.382399    14A     -1.366642    15A     -1.061996
      16A     -1.047951    17A     -0.945994    18A     -0.875064
      19A     -0.831064    20A     -0.787244    21A     -0.744875
      22A     -0.703693    23A     -0.702333    24A     -0.684004
      25A     -0.680136    26A     -0.611413    27A     -0.609570
      28A     -0.579381    29A     -0.576274    30A     -0.559670
      31A     -0.546375    32A     -0.524502    33A     -0.523789
      34A     -0.522418    35A     -0.520250    36A     -0.511163
      37A     -0.475764    38A     -0.466056    39A     -0.447982

  @DF-RHF Final Energy:  -532.69515823556492

   => Energetics <=

    Nuclear Repulsion Energy =            540.5532589670722246
    One-Electron Energy =               -1801.5159009444869298
    Two-Electron Energy =                 728.2674837418497873
    Total Energy =                       -532.6951582355649180
  Basis Set: (AUG-CC-PVTZ AUX)
    Blend: AUG-CC-PVTZ-RI
    Molecular point group: c1

    Geometry (in Angstrom), charge = 0, multiplicity = 1:

       Center              X                  Y                   Z               Mass
    ------------   -----------------  -----------------  -----------------  -----------------
         O            1.731082977959    -0.276745363249     0.000520308042    15.994914619570
         O           -1.731380022041     0.277199636751     0.000483308042    15.994914619570
         O            0.557523977959     1.678880636751     0.000294308042    15.994914619570
         O           -0.557817022041    -1.678424363249     0.000137308042    15.994914619570
         C            2.958010977959     0.501423636751     0.000562308042    12.000000000000
         C           -2.958309022041    -0.500969363249     0.000424308042    12.000000000000
         C            4.096010977959    -0.491862363249     0.000726308042    12.000000000000
         C           -4.096308022041     0.492318636751     0.000652308042    12.000000000000
         C            0.611961977959     0.461484636751     0.000385308042    12.000000000000
         C           -0.612257022041    -0.461029363249     0.000317308042    12.000000000000
         H            2.962289977959     1.144319636751    -0.883746691958     1.007825032230
         H            2.962146977959     1.144448636751     0.884779308042     1.007825032230
         H           -2.962566022041    -1.143782363249    -0.883944691958     1.007825032230
         H           -2.962467022041    -1.144075363249     0.884581308042     1.007825032230
         H            5.051138977959     0.040745636751     0.000762308042     1.007825032230
         H            4.050249977959    -1.127009363249     0.887507308042     1.007825032230
         H            4.050388977959    -1.127140363249    -0.885967691958     1.007825032230
         H           -5.029986022041    -0.073282363249    -0.064789291958     1.007825032230
         H           -4.050568022041     1.127383636751     0.887493308042     1.007825032230
         H           -4.050664022041     1.127678636751    -0.885981691958     1.007825032230

  Basis Set: AUG-CC-PVTZ
    Blend: AUG-CC-PVTZ
  Basis Set: (AUG-CC-PVTZ AUX)
    Blend: AUG-CC-PVTZ-JKFIT
	 Reference Energy          =    -532.6951582355649180 [Eh]
	 Singles Energy            =      -0.0000000000000000 [Eh]
	 Same-Spin Energy          =      -0.5156762814749828 [Eh]
	 Opposite-Spin Energy      =      -1.6267381339802576 [Eh]
	 Correlation Energy        =      -2.1424144154552405 [Eh]
	 Total Energy              =    -534.8375726510201957 [Eh]

	 ================> DF-SCS-MP2 Energies <==================
	-----------------------------------------------------------
	 SCS Same-Spin Scale       =       0.3333333333333333 [-]
	 SCS Opposite-Spin Scale   =       1.2000000000000000 [-]
	 SCS Same-Spin Energy      =      -0.1718920938249943 [Eh]
	 SCS Opposite-Spin Energy  =      -1.9520857607763089 [Eh]
	 SCS Correlation Energy    =      -2.1239778546013031 [Eh]
	 SCS Total Energy          =    -534.8191360901662392 [Eh]
	-----------------------------------------------------------

  Dipole Moment: [D]
     X:     0.0032      Y:    -0.0040      Z:    -0.0235     Total:     0.0241

*** Psi4 exiting successfully. Buy a developer a beer!
