                               Psi4 1.4a3.dev225

  ==> Input File <==

--------------------------------------------------------------------------
#psi4
#
memory 32 gb

molecule  {
0 1
  O        1.7312310    -0.2769730     0.0000590
  O       -1.7312320     0.2769720     0.0000220
  O        0.5576720     1.6786530    -0.0001670
  O       -0.5576690    -1.6786520    -0.0003240
  C        2.9581590     0.5011960     0.0001010
  C       -2.9581610    -0.5011970    -0.0000370
  C        4.0961590    -0.4920900     0.0002650
  C       -4.0961600     0.4920910     0.0001910
  C        0.6121100     0.4612570    -0.0000760
  C       -0.4523818    -0.3408941    -0.0001351
  H        2.9624380     1.1440920    -0.8842080
  H        2.9622950     1.1442210     0.8843180
  H       -2.9624180    -1.1440100    -0.8844060
  H       -2.9623190    -1.1443030     0.8841200
  H        5.0512870     0.0405180     0.0003010
  H        4.0503980    -1.1272370     0.8870460
  H        4.0505370    -1.1273680    -0.8864290
  H       -5.0512890    -0.0405160     0.0001540
  H       -4.0504200     1.1271560     0.8870320
  H       -4.0505160     1.1274510    -0.8864430
units angstrom
no_reorient  #important for SAPT in psi4, default
symmetry c1  #important for SAPT in psi4, default
}

set PROPERTIES_ORIGIN ["COM"]
properties('MP2/aug-cc-pvtz', properties = ['dipole'])
--------------------------------------------------------------------------

    Molecular point group: c1
  Charge       = 0
  Multiplicity = 1
  Basis Set: AUG-CC-PVTZ
    Blend: AUG-CC-PVTZ
  Basis Set: (AUG-CC-PVTZ AUX)
    Blend: AUG-CC-PVTZ-JKFIT

    Orbital Energies [Eh]
    ---------------------

    Doubly Occupied:

       1A    -20.629872     2A    -20.606911     3A    -20.592563
       4A    -20.579193     5A    -11.421852     6A    -11.413076
       7A    -11.306868     8A    -11.293669     9A    -11.234673
      10A    -11.225271    11A     -1.497724    12A     -1.422011
      13A     -1.391649    14A     -1.310456    15A     -1.090657
      16A     -1.044136    17A     -0.998058    18A     -0.876010
      19A     -0.843418    20A     -0.788625    21A     -0.739060
      22A     -0.716376    23A     -0.710474    24A     -0.670686
      25A     -0.654610    26A     -0.617566    27A     -0.607285
      28A     -0.580540    29A     -0.563703    30A     -0.562576
      31A     -0.547915    32A     -0.532127    33A     -0.527470
      34A     -0.514458    35A     -0.506991    36A     -0.493849
      37A     -0.480777    38A     -0.462513    39A     -0.444965

  @DF-RHF Final Energy:  -532.61458301086873

   => Energetics <=

    Nuclear Repulsion Energy =            540.6691364991653472
    One-Electron Energy =               -1801.5661782592349027
    Two-Electron Energy =                 728.2824587492007140
    Total Energy =                       -532.6145830108687278
  Basis Set: (AUG-CC-PVTZ AUX)
    Blend: AUG-CC-PVTZ-RI
    Molecular point group: c1

    Geometry (in Angstrom), charge = 0, multiplicity = 1:

       Center              X                  Y                   Z               Mass
    ------------   -----------------  -----------------  -----------------  -----------------
         O            1.718107935657    -0.286861946399     0.000068273684    15.994914619570
         O           -1.744355064343     0.267083053601     0.000031273684    15.994914619570
         O            0.544548935657     1.668764053601    -0.000157726316    15.994914619570
         O           -0.570792064343    -1.688540946399    -0.000314726316    15.994914619570
         C            2.945035935657     0.491307053601     0.000110273684    12.000000000000
         C           -2.971284064343    -0.511085946399    -0.000027726316    12.000000000000
         C            4.083035935657    -0.501978946399     0.000274273684    12.000000000000
         C           -4.109283064343     0.482202053601     0.000200273684    12.000000000000
         C            0.598986935657     0.451368053601    -0.000066726316    12.000000000000
         C           -0.465504864343    -0.350783046399    -0.000125826316    12.000000000000
         H            2.949314935657     1.134203053601    -0.884198726316     1.007825032230
         H            2.949171935657     1.134332053601     0.884327273684     1.007825032230
         H           -2.975541064343    -1.153898946399    -0.884396726316     1.007825032230
         H           -2.975442064343    -1.154191946399     0.884129273684     1.007825032230
         H            5.038163935657     0.030629053601     0.000310273684     1.007825032230
         H            4.037274935657    -1.137125946399     0.887055273684     1.007825032230
         H            4.037413935657    -1.137256946399    -0.886419726316     1.007825032230
         H           -5.064412064343    -0.050404946399     0.000163273684     1.007825032230
         H           -4.063543064343     1.117267053601     0.887041273684     1.007825032230
         H           -4.063639064343     1.117562053601    -0.886433726316     1.007825032230

  Basis Set: AUG-CC-PVTZ
    Blend: AUG-CC-PVTZ
  Basis Set: (AUG-CC-PVTZ AUX)
    Blend: AUG-CC-PVTZ-JKFIT
	 Reference Energy          =    -532.6145830108687278 [Eh]
	 Singles Energy            =      -0.0000000000000000 [Eh]
	 Same-Spin Energy          =      -0.5229739689477058 [Eh]
	 Opposite-Spin Energy      =      -1.6432611600720017 [Eh]
	 Correlation Energy        =      -2.1662351290197073 [Eh]
	 Total Energy              =    -534.7808181398884244 [Eh]

	 ================> DF-SCS-MP2 Energies <==================
	-----------------------------------------------------------
	 SCS Same-Spin Scale       =       0.3333333333333333 [-]
	 SCS Opposite-Spin Scale   =       1.2000000000000000 [-]
	 SCS Same-Spin Energy      =      -0.1743246563159019 [Eh]
	 SCS Opposite-Spin Energy  =      -1.9719133920864020 [Eh]
	 SCS Correlation Energy    =      -2.1462380484023038 [Eh]
	 SCS Total Energy          =    -534.7608210592710520 [Eh]
	-----------------------------------------------------------

  Dipole Moment: [D]
     X:     0.7232      Y:     0.2339      Z:     0.0005     Total:     0.7600

*** Psi4 exiting successfully. Buy a developer a beer!
