                               Psi4 1.4a3.dev225

  ==> Input File <==

--------------------------------------------------------------------------
#psi4
#
memory 32 gb

molecule  {
0 1
  O        1.7047854    -0.3155801     0.0000584
  O       -1.7312320     0.2769720     0.0000220
  O        0.5576720     1.6786530    -0.0001670
  O       -0.5576690    -1.6786520    -0.0003240
  C        2.9581590     0.5011960     0.0001010
  C       -2.9581610    -0.5011970    -0.0000370
  C        4.0961590    -0.4920900     0.0002650
  C       -4.0961600     0.4920910     0.0001910
  C        0.6121100     0.4612570    -0.0000760
  C       -0.6121090    -0.4612570    -0.0001440
  H        2.9624380     1.1440920    -0.8842080
  H        2.9622950     1.1442210     0.8843180
  H       -2.9624180    -1.1440100    -0.8844060
  H       -2.9623190    -1.1443030     0.8841200
  H        5.0512870     0.0405180     0.0003010
  H        4.0503980    -1.1272370     0.8870460
  H        4.0505370    -1.1273680    -0.8864290
  H       -5.0512890    -0.0405160     0.0001540
  H       -4.0504200     1.1271560     0.8870320
  H       -4.0505160     1.1274510    -0.8864430
units angstrom
no_reorient  #important for SAPT in psi4, default
symmetry c1  #important for SAPT in psi4, default
}

set PROPERTIES_ORIGIN ["COM"]
properties('MP2/aug-cc-pvtz', properties = ['dipole'])
--------------------------------------------------------------------------

    Molecular point group: c1
  Charge       = 0
  Multiplicity = 1
  Basis Set: AUG-CC-PVTZ
    Blend: AUG-CC-PVTZ
  Basis Set: (AUG-CC-PVTZ AUX)
    Blend: AUG-CC-PVTZ-JKFIT

    Orbital Energies [Eh]
    ---------------------

    Doubly Occupied:

       1A    -20.620988     2A    -20.617341     3A    -20.572075
       4A    -20.569468     5A    -11.406434     6A    -11.404074
       7A    -11.304589     8A    -11.298078     9A    -11.231715
      10A    -11.228884    11A     -1.484110    12A     -1.454057
      13A     -1.381042    14A     -1.363699    15A     -1.060558
      16A     -1.047129    17A     -0.943383    18A     -0.872276
      19A     -0.832264    20A     -0.784844    21A     -0.740159
      22A     -0.702553    23A     -0.699528    24A     -0.680764
      25A     -0.678235    26A     -0.609951    27A     -0.608046
      28A     -0.577535    29A     -0.575972    30A     -0.559386
      31A     -0.544019    32A     -0.529422    33A     -0.522352
      34A     -0.521923    35A     -0.519552    36A     -0.510961
      37A     -0.478062    38A     -0.466188    39A     -0.445686

  @DF-RHF Final Energy:  -532.69202990892120

   => Energetics <=

    Nuclear Repulsion Energy =            540.1266409864085745
    One-Electron Energy =               -1800.7427445868675022
    Two-Electron Energy =                 727.9240736915377283
    Total Energy =                       -532.6920299089211994
  Basis Set: (AUG-CC-PVTZ AUX)
    Blend: AUG-CC-PVTZ-RI
    Molecular point group: c1

    Geometry (in Angstrom), charge = 0, multiplicity = 1:

       Center              X                  Y                   Z               Mass
    ------------   -----------------  -----------------  -----------------  -----------------
         O            1.707681471719    -0.311352234204     0.000068470607    15.994914619570
         O           -1.728335928281     0.281199865796     0.000032070607    15.994914619570
         O            0.560568071719     1.682880865796    -0.000156929393    15.994914619570
         O           -0.554772928281    -1.674424134204    -0.000313929393    15.994914619570
         C            2.961055071719     0.505423865796     0.000111070607    12.000000000000
         C           -2.955264928281    -0.496969134204    -0.000026929393    12.000000000000
         C            4.099055071719    -0.487862134204     0.000275070607    12.000000000000
         C           -4.093263928281     0.496318865796     0.000201070607    12.000000000000
         C            0.615006071719     0.465484865796    -0.000065929393    12.000000000000
         C           -0.609212928281    -0.457029134204    -0.000133929393    12.000000000000
         H            2.965334071719     1.148319865796    -0.884197929393     1.007825032230
         H            2.965191071719     1.148448865796     0.884328070607     1.007825032230
         H           -2.959521928281    -1.139782134204    -0.884395929393     1.007825032230
         H           -2.959422928281    -1.140075134204     0.884130070607     1.007825032230
         H            5.054183071719     0.044745865796     0.000311070607     1.007825032230
         H            4.053294071719    -1.123009134204     0.887056070607     1.007825032230
         H            4.053433071719    -1.123140134204    -0.886418929393     1.007825032230
         H           -5.048392928281    -0.036288134204     0.000164070607     1.007825032230
         H           -4.047523928281     1.131383865796     0.887042070607     1.007825032230
         H           -4.047619928281     1.131678865796    -0.886432929393     1.007825032230

  Basis Set: AUG-CC-PVTZ
    Blend: AUG-CC-PVTZ
  Basis Set: (AUG-CC-PVTZ AUX)
    Blend: AUG-CC-PVTZ-JKFIT
	 Reference Energy          =    -532.6920299089211994 [Eh]
	 Singles Energy            =      -0.0000000000000000 [Eh]
	 Same-Spin Energy          =      -0.5160839467539143 [Eh]
	 Opposite-Spin Energy      =      -1.6280715789856837 [Eh]
	 Correlation Energy        =      -2.1441555257395981 [Eh]
	 Total Energy              =    -534.8361854346608197 [Eh]

	 ================> DF-SCS-MP2 Energies <==================
	-----------------------------------------------------------
	 SCS Same-Spin Scale       =       0.3333333333333333 [-]
	 SCS Opposite-Spin Scale   =       1.2000000000000000 [-]
	 SCS Same-Spin Energy      =      -0.1720279822513048 [Eh]
	 SCS Opposite-Spin Energy  =      -1.9536858947828204 [Eh]
	 SCS Correlation Energy    =      -2.1257138770341251 [Eh]
	 SCS Total Energy          =    -534.8177437859553720 [Eh]
	-----------------------------------------------------------

  Dipole Moment: [D]
     X:     0.1923      Y:     0.0775      Z:     0.0005     Total:     0.2073

*** Psi4 exiting successfully. Buy a developer a beer!
