                               Psi4 1.4a3.dev225

  ==> Input File <==

--------------------------------------------------------------------------
#psi4
#
memory 32 gb

molecule  {
0 1
  O        1.7312310    -0.2769730     0.0000590
  O       -1.7312320     0.2769720     0.0000220
  O        0.5576720     1.6786530    -0.0001670
  O       -0.5576690    -1.6786520    -0.0003240
  C        2.9581590     0.5011960     0.0001010
  C       -2.9581610    -0.5011970    -0.0000370
  C        4.0961590    -0.4920900     0.0002650
  C       -4.0961600     0.4920910     0.0001910
  C        0.6121100     0.4612570    -0.0000760
  C       -0.6121090    -0.4612570    -0.0001440
  H        2.9624380     1.1440920    -0.8842080
  H        2.9622950     1.1442210     0.8843180
  H       -2.9624180    -1.1440100    -0.8844060
  H       -2.9623190    -1.1443030     0.8841200
  H        5.0512870     0.0405180     0.0003010
  H        4.0503980    -1.1272370     0.8870460
  H        4.0505370    -1.1273680    -0.8864290
  H       -5.0411391    -0.0573477    -0.0325682
  H       -4.0504200     1.1271560     0.8870320
  H       -4.0505160     1.1274510    -0.8864430
units angstrom
no_reorient  #important for SAPT in psi4, default
symmetry c1  #important for SAPT in psi4, default
}

set PROPERTIES_ORIGIN ["COM"]
properties('MP2/aug-cc-pvtz', properties = ['dipole'])
--------------------------------------------------------------------------

    Molecular point group: c1
  Charge       = 0
  Multiplicity = 1
  Basis Set: AUG-CC-PVTZ
    Blend: AUG-CC-PVTZ
  Basis Set: (AUG-CC-PVTZ AUX)
    Blend: AUG-CC-PVTZ-JKFIT

    Orbital Energies [Eh]
    ---------------------

    Doubly Occupied:

       1A    -20.619449     2A    -20.619304     3A    -20.572013
       4A    -20.571985     5A    -11.407927     6A    -11.407356
       7A    -11.299518     8A    -11.299342     9A    -11.229963
      10A    -11.229857    11A     -1.487349    12A     -1.459166
      13A     -1.382458    14A     -1.366706    15A     -1.061908
      16A     -1.047821    17A     -0.945999    18A     -0.875237
      19A     -0.831221    20A     -0.787250    21A     -0.744991
      22A     -0.703716    23A     -0.702376    24A     -0.684011
      25A     -0.680130    26A     -0.611332    27A     -0.609436
      28A     -0.578321    29A     -0.576500    30A     -0.559984
      31A     -0.547089    32A     -0.524265    33A     -0.523727
      34A     -0.522579    35A     -0.520415    36A     -0.511277
      37A     -0.475809    38A     -0.466105    39A     -0.448081

  @DF-RHF Final Energy:  -532.69557680811567

   => Energetics <=

    Nuclear Repulsion Energy =            540.5301368259440551
    One-Electron Energy =               -1801.4674795509070009
    Two-Electron Energy =                 728.2417659168472710
    Total Energy =                       -532.6955768081156748
  Basis Set: (AUG-CC-PVTZ AUX)
    Blend: AUG-CC-PVTZ-RI
    Molecular point group: c1

    Geometry (in Angstrom), charge = 0, multiplicity = 1:

       Center              X                  Y                   Z               Mass
    ------------   -----------------  -----------------  -----------------  -----------------
         O            1.731160957519    -0.276856885937     0.000294793785    15.994914619570
         O           -1.731302042481     0.277088114063     0.000257793785    15.994914619570
         O            0.557601957519     1.678769114063     0.000068793785    15.994914619570
         O           -0.557739042481    -1.678535885937    -0.000088206215    15.994914619570
         C            2.958088957519     0.501312114063     0.000336793785    12.000000000000
         C           -2.958231042481    -0.501080885937     0.000198793785    12.000000000000
         C            4.096088957519    -0.491973885937     0.000500793785    12.000000000000
         C           -4.096230042481     0.492207114063     0.000426793785    12.000000000000
         C            0.612039957519     0.461373114063     0.000159793785    12.000000000000
         C           -0.612179042481    -0.461140885937     0.000091793785    12.000000000000
         H            2.962367957519     1.144208114063    -0.883972206215     1.007825032230
         H            2.962224957519     1.144337114063     0.884553793785     1.007825032230
         H           -2.962488042481    -1.143893885937    -0.884170206215     1.007825032230
         H           -2.962389042481    -1.144186885937     0.884355793785     1.007825032230
         H            5.051216957519     0.040634114063     0.000536793785     1.007825032230
         H            4.050327957519    -1.127120885937     0.887281793785     1.007825032230
         H            4.050466957519    -1.127251885937    -0.886193206215     1.007825032230
         H           -5.041209142481    -0.057231585937    -0.032332406215     1.007825032230
         H           -4.050490042481     1.127272114063     0.887267793785     1.007825032230
         H           -4.050586042481     1.127567114063    -0.886207206215     1.007825032230

  Basis Set: AUG-CC-PVTZ
    Blend: AUG-CC-PVTZ
  Basis Set: (AUG-CC-PVTZ AUX)
    Blend: AUG-CC-PVTZ-JKFIT
	 Reference Energy          =    -532.6955768081156748 [Eh]
	 Singles Energy            =      -0.0000000000000000 [Eh]
	 Same-Spin Energy          =      -0.5156501671862852 [Eh]
	 Opposite-Spin Energy      =      -1.6266969342852362 [Eh]
	 Correlation Energy        =      -2.1423471014715214 [Eh]
	 Total Energy              =    -534.8379239095871753 [Eh]

	 ================> DF-SCS-MP2 Energies <==================
	-----------------------------------------------------------
	 SCS Same-Spin Scale       =       0.3333333333333333 [-]
	 SCS Opposite-Spin Scale   =       1.2000000000000000 [-]
	 SCS Same-Spin Energy      =      -0.1718833890620950 [Eh]
	 SCS Opposite-Spin Energy  =      -1.9520363211422833 [Eh]
	 SCS Correlation Energy    =      -2.1239197102043783 [Eh]
	 SCS Total Energy          =    -534.8194965183200793 [Eh]
	-----------------------------------------------------------

  Dipole Moment: [D]
     X:     0.0015      Y:    -0.0023      Z:    -0.0117     Total:     0.0121

*** Psi4 exiting successfully. Buy a developer a beer!
