                               Psi4 1.4a3.dev225

  ==> Input File <==

--------------------------------------------------------------------------
#psi4
#
memory 32 gb

molecule  {
0 1
  O        1.7312310    -0.2769730     0.0000590
  O       -1.7312320     0.2769720     0.0000220
  O        0.5576720     1.6786530    -0.0001670
  O       -0.5576690    -1.6786520    -0.0003240
  C        2.9581590     0.5011960     0.0001010
  C       -2.9581610    -0.5011970    -0.0000370
  C        4.0961590    -0.4920900     0.0002650
  C       -4.0961600     0.4920910     0.0001910
  C        0.6121100     0.4612570    -0.0000760
  C       -0.6031742    -0.6610573    -0.0001735
  H        2.9624380     1.1440920    -0.8842080
  H        2.9622950     1.1442210     0.8843180
  H       -2.9624180    -1.1440100    -0.8844060
  H       -2.9623190    -1.1443030     0.8841200
  H        5.0512870     0.0405180     0.0003010
  H        4.0503980    -1.1272370     0.8870460
  H        4.0505370    -1.1273680    -0.8864290
  H       -5.0512890    -0.0405160     0.0001540
  H       -4.0504200     1.1271560     0.8870320
  H       -4.0505160     1.1274510    -0.8864430
units angstrom
no_reorient  #important for SAPT in psi4, default
symmetry c1  #important for SAPT in psi4, default
}

set PROPERTIES_ORIGIN ["COM"]
properties('MP2/aug-cc-pvtz', properties = ['dipole'])
--------------------------------------------------------------------------

    Molecular point group: c1
  Charge       = 0
  Multiplicity = 1
  Basis Set: AUG-CC-PVTZ
    Blend: AUG-CC-PVTZ
  Basis Set: (AUG-CC-PVTZ AUX)
    Blend: AUG-CC-PVTZ-JKFIT

    Orbital Energies [Eh]
    ---------------------

    Doubly Occupied:

       1A    -20.614785     2A    -20.607645     3A    -20.584564
       4A    -20.563142     5A    -11.398132     6A    -11.392819
       7A    -11.296303     8A    -11.284026     9A    -11.229446
      10A    -11.219977    11A     -1.593358    12A     -1.465344
      13A     -1.376697    14A     -1.360053    15A     -1.052329
      16A     -1.027347    17A     -0.918795    18A     -0.858520
      19A     -0.818794    20A     -0.784119    21A     -0.752361
      22A     -0.748507    23A     -0.714644    24A     -0.682906
      25A     -0.681185    26A     -0.639118    27A     -0.612374
      28A     -0.586566    29A     -0.575228    30A     -0.560883
      31A     -0.553385    32A     -0.531255    33A     -0.523994
      34A     -0.515211    35A     -0.514691    36A     -0.512433
      37A     -0.469518    38A     -0.458571    39A     -0.415975

  @DF-RHF Final Energy:  -532.61444480940634

   => Energetics <=

    Nuclear Repulsion Energy =            541.0626501751432897
    One-Electron Energy =               -1802.3641958177363449
    Two-Electron Energy =                 728.6871008331867188
    Total Energy =                       -532.6144448094063364
  Basis Set: (AUG-CC-PVTZ AUX)
    Blend: AUG-CC-PVTZ-RI
    Molecular point group: c1

    Geometry (in Angstrom), charge = 0, multiplicity = 1:

       Center              X                  Y                   Z               Mass
    ------------   -----------------  -----------------  -----------------  -----------------
         O            1.730496917635    -0.260557596080     0.000071428597    15.994914619570
         O           -1.731966082365     0.293387403920     0.000034428597    15.994914619570
         O            0.556937917635     1.695068403920    -0.000154571403    15.994914619570
         O           -0.558403082365    -1.662236596080    -0.000311571403    15.994914619570
         C            2.957424917635     0.517611403920     0.000113428597    12.000000000000
         C           -2.958895082365    -0.484781596080    -0.000024571403    12.000000000000
         C            4.095424917635    -0.475674596080     0.000277428597    12.000000000000
         C           -4.096894082365     0.508506403920     0.000203428597    12.000000000000
         C            0.611375917635     0.477672403920    -0.000063571403    12.000000000000
         C           -0.603908282365    -0.644641896080    -0.000161071403    12.000000000000
         H            2.961703917635     1.160507403920    -0.884195571403     1.007825032230
         H            2.961560917635     1.160636403920     0.884330428597     1.007825032230
         H           -2.963152082365    -1.127594596080    -0.884393571403     1.007825032230
         H           -2.963053082365    -1.127887596080     0.884132428597     1.007825032230
         H            5.050552917635     0.056933403920     0.000313428597     1.007825032230
         H            4.049663917635    -1.110821596080     0.887058428597     1.007825032230
         H            4.049802917635    -1.110952596080    -0.886416571403     1.007825032230
         H           -5.052023082365    -0.024100596080     0.000166428597     1.007825032230
         H           -4.051154082365     1.143571403920     0.887044428597     1.007825032230
         H           -4.051250082365     1.143866403920    -0.886430571403     1.007825032230

  Basis Set: AUG-CC-PVTZ
    Blend: AUG-CC-PVTZ
  Basis Set: (AUG-CC-PVTZ AUX)
    Blend: AUG-CC-PVTZ-JKFIT
	 Reference Energy          =    -532.6144448094063364 [Eh]
	 Singles Energy            =      -0.0000000000000000 [Eh]
	 Same-Spin Energy          =      -0.5131909847551347 [Eh]
	 Opposite-Spin Energy      =      -1.6216691722482215 [Eh]
	 Correlation Energy        =      -2.1348601570033563 [Eh]
	 Total Energy              =    -534.7493049664096816 [Eh]

	 ================> DF-SCS-MP2 Energies <==================
	-----------------------------------------------------------
	 SCS Same-Spin Scale       =       0.3333333333333333 [-]
	 SCS Opposite-Spin Scale   =       1.2000000000000000 [-]
	 SCS Same-Spin Energy      =      -0.1710636615850449 [Eh]
	 SCS Opposite-Spin Energy  =      -1.9460030066978657 [Eh]
	 SCS Correlation Energy    =      -2.1170666682829107 [Eh]
	 SCS Total Energy          =    -534.7315114776891960 [Eh]
	-----------------------------------------------------------

  Dipole Moment: [D]
     X:     0.7229      Y:    -1.2761      Z:     0.0002     Total:     1.4667

*** Psi4 exiting successfully. Buy a developer a beer!
