                               Psi4 1.4a3.dev225

  ==> Input File <==

--------------------------------------------------------------------------
#psi4
#
memory 32 gb

molecule  {
0 1
  O        1.7312310    -0.2769730     0.0000590
  O       -1.7312320     0.2769720     0.0000220
  O        0.5576720     1.6786530    -0.0001670
  O       -0.5576690    -1.6786520    -0.0003240
  C        2.9581590     0.5011960     0.0001010
  C       -2.9581610    -0.5011970    -0.0000370
  C        4.0961590    -0.4920900     0.0002650
  C       -4.0961600     0.4920910     0.0001910
  C        0.6121100     0.4612570    -0.0000760
  C       -0.6121090    -0.4612570    -0.0001440
  H        2.9624380     1.1440920    -0.8842080
  H        2.9622950     1.1442210     0.8843180
  H       -2.9624180    -1.1440100    -0.8844060
  H       -2.9623190    -1.1443030     0.8841200
  H        5.0512870     0.0405180     0.0003010
  H        4.0503980    -1.1272370     0.8870460
  H        4.0505370    -1.1273680    -0.8864290
  H       -5.0680867    -0.0049272     0.0655588
  H       -4.0504200     1.1271560     0.8870320
  H       -4.0505160     1.1274510    -0.8864430
units angstrom
no_reorient  #important for SAPT in psi4, default
symmetry c1  #important for SAPT in psi4, default
}

set PROPERTIES_ORIGIN ["COM"]
properties('MP2/aug-cc-pvtz', properties = ['dipole'])
--------------------------------------------------------------------------

    Molecular point group: c1
  Charge       = 0
  Multiplicity = 1
  Basis Set: AUG-CC-PVTZ
    Blend: AUG-CC-PVTZ
  Basis Set: (AUG-CC-PVTZ AUX)
    Blend: AUG-CC-PVTZ-JKFIT

    Orbital Energies [Eh]
    ---------------------

    Doubly Occupied:

       1A    -20.619803     2A    -20.619542     3A    -20.572166
       4A    -20.572114     5A    -11.408144     6A    -11.407568
       7A    -11.299969     8A    -11.299578     9A    -11.229899
      10A    -11.229710    11A     -1.487542    12A     -1.459368
      13A     -1.382615    14A     -1.366874    15A     -1.061726
      16A     -1.047520    17A     -0.946078    18A     -0.875855
      19A     -0.831744    20A     -0.787268    21A     -0.745332
      22A     -0.703785    23A     -0.702532    24A     -0.684153
      25A     -0.680082    26A     -0.611332    27A     -0.609613
      28A     -0.578746    29A     -0.574945    30A     -0.559914
      31A     -0.548907    32A     -0.524049    33A     -0.523371
      34A     -0.522204    35A     -0.520068    36A     -0.511167
      37A     -0.475920    38A     -0.466234    39A     -0.448301

  @DF-RHF Final Energy:  -532.69517833966506

   => Energetics <=

    Nuclear Repulsion Energy =            540.4713506189450527
    One-Electron Energy =               -1801.3415809613775309
    Two-Electron Energy =                 728.1750520027674156
    Total Energy =                       -532.6951783396650626
  Basis Set: (AUG-CC-PVTZ AUX)
    Blend: AUG-CC-PVTZ-RI
    Molecular point group: c1

    Geometry (in Angstrom), charge = 0, multiplicity = 1:

       Center              X                  Y                   Z               Mass
    ------------   -----------------  -----------------  -----------------  -----------------
         O            1.731346900656    -0.277218596525    -0.000382299621    15.994914619570
         O           -1.731116099344     0.276726403475    -0.000419299621    15.994914619570
         O            0.557787900656     1.678407403475    -0.000608299621    15.994914619570
         O           -0.557553099344    -1.678897596525    -0.000765299621    15.994914619570
         C            2.958274900656     0.500950403475    -0.000340299621    12.000000000000
         C           -2.958045099344    -0.501442596525    -0.000478299621    12.000000000000
         C            4.096274900656    -0.492335596525    -0.000176299621    12.000000000000
         C           -4.096044099344     0.491845403475    -0.000250299621    12.000000000000
         C            0.612225900656     0.461011403475    -0.000517299621    12.000000000000
         C           -0.611993099344    -0.461502596525    -0.000585299621    12.000000000000
         H            2.962553900656     1.143846403475    -0.884649299621     1.007825032230
         H            2.962410900656     1.143975403475     0.883876700379     1.007825032230
         H           -2.962302099344    -1.144255596525    -0.884847299621     1.007825032230
         H           -2.962203099344    -1.144548596525     0.883678700379     1.007825032230
         H            5.051402900656     0.040272403475    -0.000140299621     1.007825032230
         H            4.050513900656    -1.127482596525     0.886604700379     1.007825032230
         H            4.050652900656    -1.127613596525    -0.886870299621     1.007825032230
         H           -5.067970799344    -0.005172796525     0.065117500379     1.007825032230
         H           -4.050304099344     1.126910403475     0.886590700379     1.007825032230
         H           -4.050400099344     1.127205403475    -0.886884299621     1.007825032230

  Basis Set: AUG-CC-PVTZ
    Blend: AUG-CC-PVTZ
  Basis Set: (AUG-CC-PVTZ AUX)
    Blend: AUG-CC-PVTZ-JKFIT
	 Reference Energy          =    -532.6951783396650626 [Eh]
	 Singles Energy            =      -0.0000000000000000 [Eh]
	 Same-Spin Energy          =      -0.5156526752592396 [Eh]
	 Opposite-Spin Energy      =      -1.6266776530958595 [Eh]
	 Correlation Energy        =      -2.1423303283550990 [Eh]
	 Total Energy              =    -534.8375086680201775 [Eh]

	 ================> DF-SCS-MP2 Energies <==================
	-----------------------------------------------------------
	 SCS Same-Spin Scale       =       0.3333333333333333 [-]
	 SCS Opposite-Spin Scale   =       1.2000000000000000 [-]
	 SCS Same-Spin Energy      =      -0.1718842250864132 [Eh]
	 SCS Opposite-Spin Energy  =      -1.9520131837150314 [Eh]
	 SCS Correlation Energy    =      -2.1238974088014446 [Eh]
	 SCS Total Energy          =    -534.8190757484665028 [Eh]
	-----------------------------------------------------------

  Dipole Moment: [D]
     X:    -0.0024      Y:     0.0068      Z:     0.0265     Total:     0.0275

*** Psi4 exiting successfully. Buy a developer a beer!
