                               Psi4 1.4a3.dev225

  ==> Input File <==

--------------------------------------------------------------------------
#psi4
#
memory 32 gb

molecule  {
0 1
  O        1.7312310    -0.2769730     0.0000590
  O       -1.7312320     0.2769720     0.0000220
  O        0.5576720     1.6786530    -0.0001670
  O       -0.5576690    -1.6786520    -0.0003240
  C        2.9581590     0.5011960     0.0001010
  C       -2.9581610    -0.5011970    -0.0000370
  C        4.0961590    -0.4920900     0.0002650
  C       -4.0961600     0.4920910     0.0001910
  C        0.6121100     0.4612570    -0.0000760
  C       -0.6121090    -0.4612570    -0.0001440
  H        2.9624380     1.1440920    -0.8842080
  H        2.9622950     1.1442210     0.8843180
  H       -2.9624180    -1.1440100    -0.8844060
  H       -2.9623190    -1.1443030     0.8841200
  H        5.0512870     0.0405180     0.0003010
  H        4.0420148    -1.2435925     1.0494995
  H        4.0505370    -1.1273680    -0.8864290
  H       -5.0512890    -0.0405160     0.0001540
  H       -4.0504200     1.1271560     0.8870320
  H       -4.0505160     1.1274510    -0.8864430
units angstrom
no_reorient  #important for SAPT in psi4, default
symmetry c1  #important for SAPT in psi4, default
}

set PROPERTIES_ORIGIN ["COM"]
properties('MP2/aug-cc-pvtz', properties = ['dipole'])
--------------------------------------------------------------------------

    Molecular point group: c1
  Charge       = 0
  Multiplicity = 1
  Basis Set: AUG-CC-PVTZ
    Blend: AUG-CC-PVTZ
  Basis Set: (AUG-CC-PVTZ AUX)
    Blend: AUG-CC-PVTZ-JKFIT

    Orbital Energies [Eh]
    ---------------------

    Doubly Occupied:

       1A    -20.620134     2A    -20.619652     3A    -20.572536
       4A    -20.572220     5A    -11.408381     6A    -11.407753
       7A    -11.302265     8A    -11.299657     9A    -11.252493
      10A    -11.229975    11A     -1.487804    12A     -1.459636
      13A     -1.382861    14A     -1.367121    15A     -1.060850
      16A     -1.045621    17A     -0.943506    18A     -0.870946
      19A     -0.828586    20A     -0.787540    21A     -0.745259
      22A     -0.704055    23A     -0.702207    24A     -0.683435
      25A     -0.680196    26A     -0.611758    27A     -0.605519
      28A     -0.578199    29A     -0.569486    30A     -0.559377
      31A     -0.549136    32A     -0.525728    33A     -0.523921
      34A     -0.520979    35A     -0.516024    36A     -0.495093
      37A     -0.474354    38A     -0.465358    39A     -0.448441

  @DF-RHF Final Energy:  -532.67564689962626

   => Energetics <=

    Nuclear Repulsion Energy =            539.7822205932129691
    One-Electron Energy =               -1799.9596104289637424
    Two-Electron Energy =                 727.5017429361245149
    Total Energy =                       -532.6756468996262583
  Basis Set: (AUG-CC-PVTZ AUX)
    Blend: AUG-CC-PVTZ-RI
    Molecular point group: c1

    Geometry (in Angstrom), charge = 0, multiplicity = 1:

       Center              X                  Y                   Z               Mass
    ------------   -----------------  -----------------  -----------------  -----------------
         O            1.731288839139    -0.276170154367    -0.001051952569    15.994914619570
         O           -1.731174160861     0.277774845633    -0.001088952569    15.994914619570
         O            0.557729839139     1.679455845633    -0.001277952569    15.994914619570
         O           -0.557611160861    -1.677849154367    -0.001434952569    15.994914619570
         C            2.958216839139     0.501998845633    -0.001009952569    12.000000000000
         C           -2.958103160861    -0.500394154367    -0.001147952569    12.000000000000
         C            4.096216839139    -0.491287154367    -0.000845952569    12.000000000000
         C           -4.096102160861     0.492893845633    -0.000919952569    12.000000000000
         C            0.612167839139     0.462059845633    -0.001186952569    12.000000000000
         C           -0.612051160861    -0.460454154367    -0.001254952569    12.000000000000
         H            2.962495839139     1.144894845633    -0.885318952569     1.007825032230
         H            2.962352839139     1.145023845633     0.883207047431     1.007825032230
         H           -2.962360160861    -1.143207154367    -0.885516952569     1.007825032230
         H           -2.962261160861    -1.143500154367     0.883009047431     1.007825032230
         H            5.051344839139     0.041320845633    -0.000809952569     1.007825032230
         H            4.042072639139    -1.242789654367     1.048388547431     1.007825032230
         H            4.050594839139    -1.126565154367    -0.887539952569     1.007825032230
         H           -5.051231160861    -0.039713154367    -0.000956952569     1.007825032230
         H           -4.050362160861     1.127958845633     0.885921047431     1.007825032230
         H           -4.050458160861     1.128253845633    -0.887553952569     1.007825032230

  Basis Set: AUG-CC-PVTZ
    Blend: AUG-CC-PVTZ
  Basis Set: (AUG-CC-PVTZ AUX)
    Blend: AUG-CC-PVTZ-JKFIT
	 Reference Energy          =    -532.6756468996262583 [Eh]
	 Singles Energy            =      -0.0000000000000000 [Eh]
	 Same-Spin Energy          =      -0.5155494790448661 [Eh]
	 Opposite-Spin Energy      =      -1.6281566247241561 [Eh]
	 Correlation Energy        =      -2.1437061037690222 [Eh]
	 Total Energy              =    -534.8193530033952356 [Eh]

	 ================> DF-SCS-MP2 Energies <==================
	-----------------------------------------------------------
	 SCS Same-Spin Scale       =       0.3333333333333333 [-]
	 SCS Opposite-Spin Scale   =       1.2000000000000000 [-]
	 SCS Same-Spin Energy      =      -0.1718498263482887 [Eh]
	 SCS Opposite-Spin Energy  =      -1.9537879496689872 [Eh]
	 SCS Correlation Energy    =      -2.1256377760172760 [Eh]
	 SCS Total Energy          =    -534.8012846756435010 [Eh]
	-----------------------------------------------------------

  Dipole Moment: [D]
     X:    -0.0352      Y:     0.0720      Z:    -0.0834     Total:     0.1157

*** Psi4 exiting successfully. Buy a developer a beer!
