                               Psi4 1.4a3.dev225

  ==> Input File <==

--------------------------------------------------------------------------
#psi4
#
memory 32 gb

molecule  {
0 1
  O        1.7312310    -0.2769730     0.0000590
  O       -1.7312320     0.2769720     0.0000220
  O        0.5576720     1.6786530    -0.0001670
  O       -0.5576690    -1.6786520    -0.0003240
  C        2.9581590     0.5011960     0.0001010
  C       -2.9581610    -0.5011970    -0.0000370
  C        4.0961590    -0.4920900     0.0002650
  C       -4.0961600     0.4920910     0.0001910
  C        0.6121100     0.4612570    -0.0000760
  C       -0.6130025    -0.4412770    -0.0001410
  H        2.9624380     1.1440920    -0.8842080
  H        2.9622950     1.1442210     0.8843180
  H       -2.9624180    -1.1440100    -0.8844060
  H       -2.9623190    -1.1443030     0.8841200
  H        5.0512870     0.0405180     0.0003010
  H        4.0503980    -1.1272370     0.8870460
  H        4.0505370    -1.1273680    -0.8864290
  H       -5.0512890    -0.0405160     0.0001540
  H       -4.0504200     1.1271560     0.8870320
  H       -4.0505160     1.1274510    -0.8864430
units angstrom
no_reorient  #important for SAPT in psi4, default
symmetry c1  #important for SAPT in psi4, default
}

set PROPERTIES_ORIGIN ["COM"]
properties('MP2/aug-cc-pvtz', properties = ['dipole'])
--------------------------------------------------------------------------

    Molecular point group: c1
  Charge       = 0
  Multiplicity = 1
  Basis Set: AUG-CC-PVTZ
    Blend: AUG-CC-PVTZ
  Basis Set: (AUG-CC-PVTZ AUX)
    Blend: AUG-CC-PVTZ-JKFIT

    Orbital Energies [Eh]
    ---------------------

    Doubly Occupied:

       1A    -20.622627     2A    -20.619845     3A    -20.572766
       4A    -20.568588     5A    -11.408888     6A    -11.408111
       7A    -11.301144     8A    -11.299773     9A    -11.230830
      10A    -11.229873    11A     -1.488141    12A     -1.460497
      13A     -1.379065    14A     -1.360703    15A     -1.063659
      16A     -1.048949    17A     -0.948960    18A     -0.877026
      19A     -0.832728    20A     -0.788470    21A     -0.747176
      22A     -0.703443    23A     -0.702142    24A     -0.684940
      25A     -0.677944    26A     -0.611399    27A     -0.609217
      28A     -0.577816    29A     -0.575762    30A     -0.560567
      31A     -0.548595    32A     -0.524788    33A     -0.523678
      34A     -0.522306    35A     -0.517476    36A     -0.509222
      37A     -0.474996    38A     -0.465146    39A     -0.449339

  @DF-RHF Final Energy:  -532.69358591555749

   => Energetics <=

    Nuclear Repulsion Energy =            540.5235260164557758
    One-Electron Energy =               -1801.4410268305434784
    Two-Electron Energy =                 728.2239148985303245
    Total Energy =                       -532.6935859155574917
  Basis Set: (AUG-CC-PVTZ AUX)
    Blend: AUG-CC-PVTZ-RI
    Molecular point group: c1

    Geometry (in Angstrom), charge = 0, multiplicity = 1:

       Center              X                  Y                   Z               Mass
    ------------   -----------------  -----------------  -----------------  -----------------
         O            1.731304402838    -0.278614568288     0.000068758423    15.994914619570
         O           -1.731158597162     0.275330431712     0.000031758423    15.994914619570
         O            0.557745402838     1.677011431712    -0.000157241577    15.994914619570
         O           -0.557595597162    -1.680293568288    -0.000314241577    15.994914619570
         C            2.958232402838     0.499554431712     0.000110758423    12.000000000000
         C           -2.958087597162    -0.502838568288    -0.000027241577    12.000000000000
         C            4.096232402838    -0.493731568288     0.000274758423    12.000000000000
         C           -4.096086597162     0.490449431712     0.000200758423    12.000000000000
         C            0.612183402838     0.459615431712    -0.000066241577    12.000000000000
         C           -0.612929097162    -0.442918568288    -0.000131241577    12.000000000000
         H            2.962511402838     1.142450431712    -0.884198241577     1.007825032230
         H            2.962368402838     1.142579431712     0.884327758423     1.007825032230
         H           -2.962344597162    -1.145651568288    -0.884396241577     1.007825032230
         H           -2.962245597162    -1.145944568288     0.884129758423     1.007825032230
         H            5.051360402838     0.038876431712     0.000310758423     1.007825032230
         H            4.050471402838    -1.128878568288     0.887055758423     1.007825032230
         H            4.050610402838    -1.129009568288    -0.886419241577     1.007825032230
         H           -5.051215597162    -0.042157568288     0.000163758423     1.007825032230
         H           -4.050346597162     1.125514431712     0.887041758423     1.007825032230
         H           -4.050442597162     1.125809431712    -0.886433241577     1.007825032230

  Basis Set: AUG-CC-PVTZ
    Blend: AUG-CC-PVTZ
  Basis Set: (AUG-CC-PVTZ AUX)
    Blend: AUG-CC-PVTZ-JKFIT
	 Reference Energy          =    -532.6935859155574917 [Eh]
	 Singles Energy            =      -0.0000000000000000 [Eh]
	 Same-Spin Energy          =      -0.5159974236112050 [Eh]
	 Opposite-Spin Energy      =      -1.6274180032838916 [Eh]
	 Correlation Energy        =      -2.1434154268950967 [Eh]
	 Total Energy              =    -534.8370013424525951 [Eh]

	 ================> DF-SCS-MP2 Energies <==================
	-----------------------------------------------------------
	 SCS Same-Spin Scale       =       0.3333333333333333 [-]
	 SCS Opposite-Spin Scale   =       1.2000000000000000 [-]
	 SCS Same-Spin Energy      =      -0.1719991412037350 [Eh]
	 SCS Opposite-Spin Energy  =      -1.9529016039406699 [Eh]
	 SCS Correlation Energy    =      -2.1249007451444051 [Eh]
	 SCS Total Energy          =    -534.8184866607018648 [Eh]
	-----------------------------------------------------------

  Dipole Moment: [D]
     X:    -0.0730      Y:     0.1029      Z:     0.0005     Total:     0.1261

*** Psi4 exiting successfully. Buy a developer a beer!
