                               Psi4 1.4a3.dev225

  ==> Input File <==

--------------------------------------------------------------------------
#psi4
#
memory 32 gb

molecule  {
0 1
  O        1.7312310    -0.2769730     0.0000590
  O       -1.7312320     0.2769720     0.0000220
  O        0.5576720     1.6786530    -0.0001670
  O       -0.5576690    -1.6786520    -0.0003240
  C        2.9581590     0.5011960     0.0001010
  C       -2.9581610    -0.5011970    -0.0000370
  C        4.0961590    -0.4920900     0.0002650
  C       -4.0961600     0.4920910     0.0001910
  C        0.6121100     0.4612570    -0.0000760
  C       -0.6121090    -0.4612570    -0.0001440
  H        2.9624380     1.1440920    -0.8842080
  H        2.9622950     1.1442210     0.8843180
  H       -2.9624180    -1.1440100    -0.8844060
  H       -2.9623190    -1.1443030     0.8841200
  H        5.0512870     0.0405180     0.0003010
  H        4.0503980    -1.1272370     0.8870460
  H        4.0505370    -1.1273680    -0.8864290
  H       -5.0512890    -0.0405160     0.0001540
  H       -4.0504200     1.1271560     0.8870320
  H       -4.0588777     1.0110565    -0.7240164
units angstrom
no_reorient  #important for SAPT in psi4, default
symmetry c1  #important for SAPT in psi4, default
}

set PROPERTIES_ORIGIN ["COM"]
properties('MP2/aug-cc-pvtz', properties = ['dipole'])
--------------------------------------------------------------------------

    Molecular point group: c1
  Charge       = 0
  Multiplicity = 1
  Basis Set: AUG-CC-PVTZ
    Blend: AUG-CC-PVTZ
  Basis Set: (AUG-CC-PVTZ AUX)
    Blend: AUG-CC-PVTZ-JKFIT

    Orbital Energies [Eh]
    ---------------------

    Doubly Occupied:

       1A    -20.619421     2A    -20.619250     3A    -20.571997
       4A    -20.571865     5A    -11.407882     6A    -11.407303
       7A    -11.299497     8A    -11.297934     9A    -11.229832
      10A    -11.205480    11A     -1.487277    12A     -1.459094
      13A     -1.382393    14A     -1.366647    15A     -1.067973
      16A     -1.052031    17A     -0.952601    18A     -0.884863
      19A     -0.835603    20A     -0.787359    21A     -0.745559
      22A     -0.704283    23A     -0.703036    24A     -0.686224
      25A     -0.680197    26A     -0.623739    27A     -0.610214
      28A     -0.588331    29A     -0.576230    30A     -0.560715
      31A     -0.547205    32A     -0.533654    33A     -0.523791
      34A     -0.522330    35A     -0.520370    36A     -0.512985
      37A     -0.476114    38A     -0.466257    39A     -0.448055

  @DF-RHF Final Energy:  -532.66093363487573

   => Energetics <=

    Nuclear Repulsion Energy =            541.4442095485594564
    One-Electron Energy =               -1803.1391097286521017
    Two-Electron Energy =                 729.0339665452169129
    Total Energy =                       -532.6609336348757324
  Basis Set: (AUG-CC-PVTZ AUX)
    Blend: AUG-CC-PVTZ-RI
    Molecular point group: c1

    Geometry (in Angstrom), charge = 0, multiplicity = 1:

       Center              X                  Y                   Z               Mass
    ------------   -----------------  -----------------  -----------------  -----------------
         O            1.731288690786    -0.276169885260    -0.001051766955    15.994914619570
         O           -1.731174309214     0.277775114740    -0.001088766955    15.994914619570
         O            0.557729690786     1.679456114740    -0.001277766955    15.994914619570
         O           -0.557611309214    -1.677848885260    -0.001434766955    15.994914619570
         C            2.958216690786     0.501999114740    -0.001009766955    12.000000000000
         C           -2.958103309214    -0.500393885260    -0.001147766955    12.000000000000
         C            4.096216690786    -0.491286885260    -0.000845766955    12.000000000000
         C           -4.096102309214     0.492894114740    -0.000919766955    12.000000000000
         C            0.612167690786     0.462060114740    -0.001186766955    12.000000000000
         C           -0.612051309214    -0.460453885260    -0.001254766955    12.000000000000
         H            2.962495690786     1.144895114740    -0.885318766955     1.007825032230
         H            2.962352690786     1.145024114740     0.883207233045     1.007825032230
         H           -2.962360309214    -1.143206885260    -0.885516766955     1.007825032230
         H           -2.962261309214    -1.143499885260     0.883009233045     1.007825032230
         H            5.051344690786     0.041321114740    -0.000809766955     1.007825032230
         H            4.050455690786    -1.126433885260     0.885935233045     1.007825032230
         H            4.050594690786    -1.126564885260    -0.887539766955     1.007825032230
         H           -5.051231309214    -0.039712885260    -0.000956766955     1.007825032230
         H           -4.050362309214     1.127959114740     0.885921233045     1.007825032230
         H           -4.058820009214     1.011859614740    -0.725127166955     1.007825032230

  Basis Set: AUG-CC-PVTZ
    Blend: AUG-CC-PVTZ
  Basis Set: (AUG-CC-PVTZ AUX)
    Blend: AUG-CC-PVTZ-JKFIT
	 Reference Energy          =    -532.6609336348757324 [Eh]
	 Singles Energy            =      -0.0000000000000000 [Eh]
	 Same-Spin Energy          =      -0.5158422983689627 [Eh]
	 Opposite-Spin Energy      =      -1.6261827721590971 [Eh]
	 Correlation Energy        =      -2.1420250705280597 [Eh]
	 Total Energy              =    -534.8029587054037393 [Eh]

	 ================> DF-SCS-MP2 Energies <==================
	-----------------------------------------------------------
	 SCS Same-Spin Scale       =       0.3333333333333333 [-]
	 SCS Opposite-Spin Scale   =       1.2000000000000000 [-]
	 SCS Same-Spin Energy      =      -0.1719474327896542 [Eh]
	 SCS Opposite-Spin Energy  =      -1.9514193265909165 [Eh]
	 SCS Correlation Energy    =      -2.1233667593805707 [Eh]
	 SCS Total Energy          =    -534.7843003942563200 [Eh]
	-----------------------------------------------------------

  Dipole Moment: [D]
     X:    -0.0215      Y:     0.0377      Z:    -0.0433     Total:     0.0613

*** Psi4 exiting successfully. Buy a developer a beer!
