                               Psi4 1.4a3.dev225

  ==> Input File <==

--------------------------------------------------------------------------
#psi4
#
memory 32 gb

molecule  {
0 1
  O        1.7312310    -0.2769730     0.0000590
  O       -1.6566124     0.1444601    -0.0000041
  O        0.5576720     1.6786530    -0.0001670
  O       -0.5576690    -1.6786520    -0.0003240
  C        2.9581590     0.5011960     0.0001010
  C       -2.9581610    -0.5011970    -0.0000370
  C        4.0961590    -0.4920900     0.0002650
  C       -4.0961600     0.4920910     0.0001910
  C        0.6121100     0.4612570    -0.0000760
  C       -0.6121090    -0.4612570    -0.0001440
  H        2.9624380     1.1440920    -0.8842080
  H        2.9622950     1.1442210     0.8843180
  H       -2.9624180    -1.1440100    -0.8844060
  H       -2.9623190    -1.1443030     0.8841200
  H        5.0512870     0.0405180     0.0003010
  H        4.0503980    -1.1272370     0.8870460
  H        4.0505370    -1.1273680    -0.8864290
  H       -5.0512890    -0.0405160     0.0001540
  H       -4.0504200     1.1271560     0.8870320
  H       -4.0505160     1.1274510    -0.8864430
units angstrom
no_reorient  #important for SAPT in psi4, default
symmetry c1  #important for SAPT in psi4, default
}

set PROPERTIES_ORIGIN ["COM"]
properties('MP2/aug-cc-pvtz', properties = ['dipole'])
--------------------------------------------------------------------------

    Molecular point group: c1
  Charge       = 0
  Multiplicity = 1
  Basis Set: AUG-CC-PVTZ
    Blend: AUG-CC-PVTZ
  Basis Set: (AUG-CC-PVTZ AUX)
    Blend: AUG-CC-PVTZ-JKFIT

    Orbital Energies [Eh]
    ---------------------

    Doubly Occupied:

       1A    -20.621389     2A    -20.614939     3A    -20.568380
       4A    -20.537717     5A    -11.401749     6A    -11.386586
       7A    -11.312788     8A    -11.296283     9A    -11.240950
      10A    -11.227086    11A     -1.531052    12A     -1.466656
      13A     -1.374047    14A     -1.355097    15A     -1.079116
      16A     -1.049715    17A     -0.952609    18A     -0.889905
      19A     -0.827332    20A     -0.794029    21A     -0.758138
      22A     -0.721001    23A     -0.696347    24A     -0.685892
      25A     -0.676489    26A     -0.617152    27A     -0.614412
      28A     -0.583703    29A     -0.574359    30A     -0.569981
      31A     -0.551517    32A     -0.523341    33A     -0.522517
      34A     -0.518317    35A     -0.510938    36A     -0.504895
      37A     -0.470034    38A     -0.457466    39A     -0.438970

  @DF-RHF Final Energy:  -532.68609671027673

   => Energetics <=

    Nuclear Repulsion Energy =            543.8900053056469233
    One-Electron Energy =               -1808.1064183525188582
    Two-Electron Energy =                 731.5303163365950923
    Total Energy =                       -532.6860967102767290
  Basis Set: (AUG-CC-PVTZ AUX)
    Blend: AUG-CC-PVTZ-RI
    Molecular point group: c1

    Geometry (in Angstrom), charge = 0, multiplicity = 1:

       Center              X                  Y                   Z               Mass
    ------------   -----------------  -----------------  -----------------  -----------------
         O            1.723059343458    -0.262461546887     0.000071863132    15.994914619570
         O           -1.664784056542     0.158971553113     0.000008763132    15.994914619570
         O            0.549500343458     1.693164453113    -0.000154136868    15.994914619570
         O           -0.565840656542    -1.664140546887    -0.000311136868    15.994914619570
         C            2.949987343458     0.515707453113     0.000113863132    12.000000000000
         C           -2.966332656542    -0.486685546887    -0.000024136868    12.000000000000
         C            4.087987343458    -0.477578546887     0.000277863132    12.000000000000
         C           -4.104331656542     0.506602453113     0.000203863132    12.000000000000
         C            0.603938343458     0.475768453113    -0.000063136868    12.000000000000
         C           -0.620280656542    -0.446745546887    -0.000131136868    12.000000000000
         H            2.954266343458     1.158603453113    -0.884195136868     1.007825032230
         H            2.954123343458     1.158732453113     0.884330863132     1.007825032230
         H           -2.970589656542    -1.129498546887    -0.884393136868     1.007825032230
         H           -2.970490656542    -1.129791546887     0.884132863132     1.007825032230
         H            5.043115343458     0.055029453113     0.000313863132     1.007825032230
         H            4.042226343458    -1.112725546887     0.887058863132     1.007825032230
         H            4.042365343458    -1.112856546887    -0.886416136868     1.007825032230
         H           -5.059460656542    -0.026004546887     0.000166863132     1.007825032230
         H           -4.058591656542     1.141667453113     0.887044863132     1.007825032230
         H           -4.058687656542     1.141962453113    -0.886430136868     1.007825032230

  Basis Set: AUG-CC-PVTZ
    Blend: AUG-CC-PVTZ
  Basis Set: (AUG-CC-PVTZ AUX)
    Blend: AUG-CC-PVTZ-JKFIT
	 Reference Energy          =    -532.6860967102767290 [Eh]
	 Singles Energy            =      -0.0000000000000000 [Eh]
	 Same-Spin Energy          =      -0.5135608605146147 [Eh]
	 Opposite-Spin Energy      =      -1.6203599923363459 [Eh]
	 Correlation Energy        =      -2.1339208528509603 [Eh]
	 Total Energy              =    -534.8200175631276352 [Eh]

	 ================> DF-SCS-MP2 Energies <==================
	-----------------------------------------------------------
	 SCS Same-Spin Scale       =       0.3333333333333333 [-]
	 SCS Opposite-Spin Scale   =       1.2000000000000000 [-]
	 SCS Same-Spin Energy      =      -0.1711869535048716 [Eh]
	 SCS Opposite-Spin Energy  =      -1.9444319908036150 [Eh]
	 SCS Correlation Energy    =      -2.1156189443084865 [Eh]
	 SCS Total Energy          =    -534.8017156545852231 [Eh]
	-----------------------------------------------------------

  Dipole Moment: [D]
     X:    -0.8572      Y:     0.5224      Z:     0.0006     Total:     1.0039

*** Psi4 exiting successfully. Buy a developer a beer!
