                               Psi4 1.4a3.dev225

  ==> Input File <==

--------------------------------------------------------------------------
#psi4
#
memory 32 gb

molecule  {
0 1
  O        1.7803964    -0.3396243    -0.1294981
  O       -1.7312320     0.2769720     0.0000220
  O        0.5576720     1.6786530    -0.0001670
  O       -0.5576690    -1.6786520    -0.0003240
  C        2.9581590     0.5011960     0.0001010
  C       -2.9581610    -0.5011970    -0.0000370
  C        4.0961590    -0.4920900     0.0002650
  C       -4.0961600     0.4920910     0.0001910
  C        0.6121100     0.4612570    -0.0000760
  C       -0.6121090    -0.4612570    -0.0001440
  H        2.9624380     1.1440920    -0.8842080
  H        2.9622950     1.1442210     0.8843180
  H       -2.9624180    -1.1440100    -0.8844060
  H       -2.9623190    -1.1443030     0.8841200
  H        5.0512870     0.0405180     0.0003010
  H        4.0503980    -1.1272370     0.8870460
  H        4.0505370    -1.1273680    -0.8864290
  H       -5.0512890    -0.0405160     0.0001540
  H       -4.0504200     1.1271560     0.8870320
  H       -4.0505160     1.1274510    -0.8864430
units angstrom
no_reorient  #important for SAPT in psi4, default
symmetry c1  #important for SAPT in psi4, default
}

set PROPERTIES_ORIGIN ["COM"]
properties('MP2/aug-cc-pvtz', properties = ['dipole'])
--------------------------------------------------------------------------

    Molecular point group: c1
  Charge       = 0
  Multiplicity = 1
  Basis Set: AUG-CC-PVTZ
    Blend: AUG-CC-PVTZ
  Basis Set: (AUG-CC-PVTZ AUX)
    Blend: AUG-CC-PVTZ-JKFIT

    Orbital Energies [Eh]
    ---------------------

    Doubly Occupied:

       1A    -20.622269     2A    -20.616402     3A    -20.588920
       4A    -20.574757     5A    -11.418088     6A    -11.411504
       7A    -11.301493     8A    -11.293102     9A    -11.231489
      10A    -11.224037    11A     -1.483351    12A     -1.446974
      13A     -1.384541    14A     -1.367567    15A     -1.059851
      16A     -1.039552    17A     -0.945456    18A     -0.868213
      19A     -0.833951    20A     -0.786178    21A     -0.735316
      22A     -0.708266    23A     -0.699750    24A     -0.682663
      25A     -0.677571    26A     -0.610752    27A     -0.606644
      28A     -0.580180    29A     -0.572796    30A     -0.558975
      31A     -0.544109    32A     -0.526158    33A     -0.524948
      34A     -0.523448    35A     -0.520201    36A     -0.512840
      37A     -0.476332    38A     -0.467288    39A     -0.450485

  @DF-RHF Final Energy:  -532.68072011279708

   => Energetics <=

    Nuclear Repulsion Energy =            538.6144873041697565
    One-Electron Energy =               -1797.6375796988502316
    Two-Electron Energy =                 726.3423722818835131
    Total Energy =                       -532.6807201127970757
  Basis Set: (AUG-CC-PVTZ AUX)
    Blend: AUG-CC-PVTZ-RI
    Molecular point group: c1

    Geometry (in Angstrom), charge = 0, multiplicity = 1:

       Center              X                  Y                   Z               Mass
    ------------   -----------------  -----------------  -----------------  -----------------
         O            1.775012252597    -0.332763335255    -0.115300196821    15.994914619570
         O           -1.736616147403     0.283832964745     0.014219903179    15.994914619570
         O            0.552287852597     1.685513964745     0.014030903179    15.994914619570
         O           -0.563053147403    -1.671791035255     0.013873903179    15.994914619570
         C            2.952774852597     0.508056964745     0.014298903179    12.000000000000
         C           -2.963545147403    -0.494336035255     0.014160903179    12.000000000000
         C            4.090774852597    -0.485229035255     0.014462903179    12.000000000000
         C           -4.101544147403     0.498951964745     0.014388903179    12.000000000000
         C            0.606725852597     0.468117964745     0.014121903179    12.000000000000
         C           -0.617493147403    -0.454396035255     0.014053903179    12.000000000000
         H            2.957053852597     1.150952964745    -0.870010096821     1.007825032230
         H            2.956910852597     1.151081964745     0.898515903179     1.007825032230
         H           -2.967802147403    -1.137149035255    -0.870208096821     1.007825032230
         H           -2.967703147403    -1.137442035255     0.898317903179     1.007825032230
         H            5.045902852597     0.047378964745     0.014498903179     1.007825032230
         H            4.045013852597    -1.120376035255     0.901243903179     1.007825032230
         H            4.045152852597    -1.120507035255    -0.872231096821     1.007825032230
         H           -5.056673147403    -0.033655035255     0.014351903179     1.007825032230
         H           -4.055804147403     1.134016964745     0.901229903179     1.007825032230
         H           -4.055900147403     1.134311964745    -0.872245096821     1.007825032230

  Basis Set: AUG-CC-PVTZ
    Blend: AUG-CC-PVTZ
  Basis Set: (AUG-CC-PVTZ AUX)
    Blend: AUG-CC-PVTZ-JKFIT
	 Reference Energy          =    -532.6807201127970757 [Eh]
	 Singles Energy            =      -0.0000000000000000 [Eh]
	 Same-Spin Energy          =      -0.5171723414617313 [Eh]
	 Opposite-Spin Energy      =      -1.6310300216821321 [Eh]
	 Correlation Energy        =      -2.1482023631438634 [Eh]
	 Total Energy              =    -534.8289224759408853 [Eh]

	 ================> DF-SCS-MP2 Energies <==================
	-----------------------------------------------------------
	 SCS Same-Spin Scale       =       0.3333333333333333 [-]
	 SCS Opposite-Spin Scale   =       1.2000000000000000 [-]
	 SCS Same-Spin Energy      =      -0.1723907804872438 [Eh]
	 SCS Opposite-Spin Energy  =      -1.9572360260185584 [Eh]
	 SCS Correlation Energy    =      -2.1296268065058022 [Eh]
	 SCS Total Energy          =    -534.8103469193029014 [Eh]
	-----------------------------------------------------------

  Dipole Moment: [D]
     X:    -0.5204      Y:     0.2582      Z:     0.1574     Total:     0.6019

*** Psi4 exiting successfully. Buy a developer a beer!
