                               Psi4 1.4a3.dev225

  ==> Input File <==

--------------------------------------------------------------------------
#psi4
#
memory 32 gb

molecule  {
0 1
  O        1.8022664    -0.1559489     0.0000598
  O       -1.7312320     0.2769720     0.0000220
  O        0.5576720     1.6786530    -0.0001670
  O       -0.5576690    -1.6786520    -0.0003240
  C        2.9581590     0.5011960     0.0001010
  C       -2.9581610    -0.5011970    -0.0000370
  C        4.0961590    -0.4920900     0.0002650
  C       -4.0961600     0.4920910     0.0001910
  C        0.6121100     0.4612570    -0.0000760
  C       -0.6121090    -0.4612570    -0.0001440
  H        2.9624380     1.1440920    -0.8842080
  H        2.9622950     1.1442210     0.8843180
  H       -2.9624180    -1.1440100    -0.8844060
  H       -2.9623190    -1.1443030     0.8841200
  H        5.0512870     0.0405180     0.0003010
  H        4.0503980    -1.1272370     0.8870460
  H        4.0505370    -1.1273680    -0.8864290
  H       -5.0512890    -0.0405160     0.0001540
  H       -4.0504200     1.1271560     0.8870320
  H       -4.0505160     1.1274510    -0.8864430
units angstrom
no_reorient  #important for SAPT in psi4, default
symmetry c1  #important for SAPT in psi4, default
}

set PROPERTIES_ORIGIN ["COM"]
properties('MP2/aug-cc-pvtz', properties = ['dipole'])
--------------------------------------------------------------------------

    Molecular point group: c1
  Charge       = 0
  Multiplicity = 1
  Basis Set: AUG-CC-PVTZ
    Blend: AUG-CC-PVTZ
  Basis Set: (AUG-CC-PVTZ AUX)
    Blend: AUG-CC-PVTZ-JKFIT

    Orbital Energies [Eh]
    ---------------------

    Doubly Occupied:

       1A    -20.625761     2A    -20.612261     3A    -20.579418
       4A    -20.571780     5A    -11.418467     6A    -11.412923
       7A    -11.303806     8A    -11.285880     9A    -11.232756
      10A    -11.224602    11A     -1.502702    12A     -1.474351
      13A     -1.387791    14A     -1.375970    15A     -1.066715
      16A     -1.050798    17A     -0.953802    18A     -0.888120
      19A     -0.831887    20A     -0.791393    21A     -0.759643
      22A     -0.715094    23A     -0.707294    24A     -0.693745
      25A     -0.684403    26A     -0.623343    27A     -0.609731
      28A     -0.583261    29A     -0.577039    30A     -0.560288
      31A     -0.554607    32A     -0.528035    33A     -0.526276
      34A     -0.523535    35A     -0.512920    36A     -0.500926
      37A     -0.476953    38A     -0.454069    39A     -0.453223

  @DF-RHF Final Energy:  -532.68627186602396

   => Energetics <=

    Nuclear Repulsion Energy =            541.8799240778639614
    One-Electron Energy =               -1803.8612597670341984
    Two-Electron Energy =                 729.2950638231462790
    Total Energy =                       -532.6862718660239580
  Basis Set: (AUG-CC-PVTZ AUX)
    Blend: AUG-CC-PVTZ-RI
    Molecular point group: c1

    Geometry (in Angstrom), charge = 0, multiplicity = 1:

       Center              X                  Y                   Z               Mass
    ------------   -----------------  -----------------  -----------------  -----------------
         O            1.794487251973    -0.169202370446     0.000069717292    15.994914619570
         O           -1.739011148027     0.263718529554     0.000031917292    15.994914619570
         O            0.549892851973     1.665399529554    -0.000157082708    15.994914619570
         O           -0.565448148027    -1.691905470446    -0.000314082708    15.994914619570
         C            2.950379851973     0.487942529554     0.000110917292    12.000000000000
         C           -2.965940148027    -0.514450470446    -0.000027082708    12.000000000000
         C            4.088379851973    -0.505343470446     0.000274917292    12.000000000000
         C           -4.103939148027     0.478837529554     0.000200917292    12.000000000000
         C            0.604330851973     0.448003529554    -0.000066082708    12.000000000000
         C           -0.619888148027    -0.474510470446    -0.000134082708    12.000000000000
         H            2.954658851973     1.130838529554    -0.884198082708     1.007825032230
         H            2.954515851973     1.130967529554     0.884327917292     1.007825032230
         H           -2.970197148027    -1.157263470446    -0.884396082708     1.007825032230
         H           -2.970098148027    -1.157556470446     0.884129917292     1.007825032230
         H            5.043507851973     0.027264529554     0.000310917292     1.007825032230
         H            4.042618851973    -1.140490470446     0.887055917292     1.007825032230
         H            4.042757851973    -1.140621470446    -0.886419082708     1.007825032230
         H           -5.059068148027    -0.053769470446     0.000163917292     1.007825032230
         H           -4.058199148027     1.113902529554     0.887041917292     1.007825032230
         H           -4.058295148027     1.114197529554    -0.886433082708     1.007825032230

  Basis Set: AUG-CC-PVTZ
    Blend: AUG-CC-PVTZ
  Basis Set: (AUG-CC-PVTZ AUX)
    Blend: AUG-CC-PVTZ-JKFIT
	 Reference Energy          =    -532.6862718660239580 [Eh]
	 Singles Energy            =      -0.0000000000000000 [Eh]
	 Same-Spin Energy          =      -0.5150456153388362 [Eh]
	 Opposite-Spin Energy      =      -1.6238573481904797 [Eh]
	 Correlation Energy        =      -2.1389029635293157 [Eh]
	 Total Energy              =    -534.8251748295532479 [Eh]

	 ================> DF-SCS-MP2 Energies <==================
	-----------------------------------------------------------
	 SCS Same-Spin Scale       =       0.3333333333333333 [-]
	 SCS Opposite-Spin Scale   =       1.2000000000000000 [-]
	 SCS Same-Spin Energy      =      -0.1716818717796121 [Eh]
	 SCS Opposite-Spin Energy  =      -1.9486288178285756 [Eh]
	 SCS Correlation Energy    =      -2.1203106896081878 [Eh]
	 SCS Total Energy          =    -534.8065825556321897 [Eh]
	-----------------------------------------------------------

  Dipole Moment: [D]
     X:    -0.5916      Y:    -0.2727      Z:     0.0005     Total:     0.6515

*** Psi4 exiting successfully. Buy a developer a beer!
