                               Psi4 1.4a3.dev225

  ==> Input File <==

--------------------------------------------------------------------------
#psi4
#
memory 32 gb

molecule  {
0 1
  O        1.7312310    -0.2769730     0.0000590
  O       -1.7312320     0.2769720     0.0000220
  O        0.5576720     1.6786530    -0.0001670
  O       -0.5576690    -1.6786520    -0.0003240
  C        2.9581590     0.5011960     0.0001010
  C       -2.9581610    -0.5011970    -0.0000370
  C        4.0961590    -0.4920900     0.0002650
  C       -4.0961600     0.4920910     0.0001910
  C        0.6121100     0.4612570    -0.0000760
  C       -0.6121090    -0.4612570    -0.0001440
  H        2.9624380     1.1440920    -0.8842080
  H        2.9622950     1.1442210     0.8843180
  H       -2.9624180    -1.1440100    -0.8844060
  H       -2.9623190    -1.1443030     0.8841200
  H        5.0512870     0.0405180     0.0003010
  H        4.0492955    -1.1425769     0.8757974
  H        4.0505370    -1.1273680    -0.8864290
  H       -5.0512890    -0.0405160     0.0001540
  H       -4.0504200     1.1271560     0.8870320
  H       -4.0505160     1.1274510    -0.8864430
units angstrom
no_reorient  #important for SAPT in psi4, default
symmetry c1  #important for SAPT in psi4, default
}

set PROPERTIES_ORIGIN ["COM"]
properties('MP2/aug-cc-pvtz', properties = ['dipole'])
--------------------------------------------------------------------------

    Molecular point group: c1
  Charge       = 0
  Multiplicity = 1
  Basis Set: AUG-CC-PVTZ
    Blend: AUG-CC-PVTZ
  Basis Set: (AUG-CC-PVTZ AUX)
    Blend: AUG-CC-PVTZ-JKFIT

    Orbital Energies [Eh]
    ---------------------

    Doubly Occupied:

       1A    -20.619517     2A    -20.619496     3A    -20.572075
       4A    -20.572068     5A    -11.408024     6A    -11.407455
       7A    -11.299678     8A    -11.299550     9A    -11.229880
      10A    -11.229813    11A     -1.487440    12A     -1.459260
      13A     -1.382536    14A     -1.366787    15A     -1.061806
      16A     -1.047659    17A     -0.946016    18A     -0.875519
      19A     -0.831528    20A     -0.787313    21A     -0.745129
      22A     -0.703776    23A     -0.702372    24A     -0.683922
      25A     -0.680171    26A     -0.611539    27A     -0.609036
      28A     -0.577398    29A     -0.576720    30A     -0.560368
      31A     -0.547772    32A     -0.524714    33A     -0.523752
      34A     -0.522125    35A     -0.520529    36A     -0.511004
      37A     -0.475826    38A     -0.466146    39A     -0.448192

  @DF-RHF Final Energy:  -532.69569370230420

   => Energetics <=

    Nuclear Repulsion Energy =            540.5029965143910431
    One-Electron Energy =               -1801.4095614971263331
    Two-Electron Energy =                 728.2108712804310926
    Total Energy =                       -532.6956937023041974
  Basis Set: (AUG-CC-PVTZ AUX)
    Blend: AUG-CC-PVTZ-RI
    Molecular point group: c1

    Geometry (in Angstrom), charge = 0, multiplicity = 1:

       Center              X                  Y                   Z               Mass
    ------------   -----------------  -----------------  -----------------  -----------------
         O            1.731238601040    -0.276867179617     0.000146622201    15.994914619570
         O           -1.731224398960     0.277077820383     0.000109622201    15.994914619570
         O            0.557679601040     1.678758820383    -0.000079377799    15.994914619570
         O           -0.557661398960    -1.678546179617    -0.000236377799    15.994914619570
         C            2.958166601040     0.501301820383     0.000188622201    12.000000000000
         C           -2.958153398960    -0.501091179617     0.000050622201    12.000000000000
         C            4.096166601040    -0.491984179617     0.000352622201    12.000000000000
         C           -4.096152398960     0.492196820383     0.000278622201    12.000000000000
         C            0.612117601040     0.461362820383     0.000011622201    12.000000000000
         C           -0.612101398960    -0.461151179617    -0.000056377799    12.000000000000
         H            2.962445601040     1.144197820383    -0.884120377799     1.007825032230
         H            2.962302601040     1.144326820383     0.884405622201     1.007825032230
         H           -2.962410398960    -1.143904179617    -0.884318377799     1.007825032230
         H           -2.962311398960    -1.144197179617     0.884207622201     1.007825032230
         H            5.051294601040     0.040623820383     0.000388622201     1.007825032230
         H            4.049303101040    -1.142471079617     0.875885022201     1.007825032230
         H            4.050544601040    -1.127262179617    -0.886341377799     1.007825032230
         H           -5.051281398960    -0.040410179617     0.000241622201     1.007825032230
         H           -4.050412398960     1.127261820383     0.887119622201     1.007825032230
         H           -4.050508398960     1.127556820383    -0.886355377799     1.007825032230

  Basis Set: AUG-CC-PVTZ
    Blend: AUG-CC-PVTZ
  Basis Set: (AUG-CC-PVTZ AUX)
    Blend: AUG-CC-PVTZ-JKFIT
	 Reference Energy          =    -532.6956937023041974 [Eh]
	 Singles Energy            =      -0.0000000000000000 [Eh]
	 Same-Spin Energy          =      -0.5156344913418212 [Eh]
	 Opposite-Spin Energy      =      -1.6266628928948603 [Eh]
	 Correlation Energy        =      -2.1422973842366817 [Eh]
	 Total Energy              =    -534.8379910865409101 [Eh]

	 ================> DF-SCS-MP2 Energies <==================
	-----------------------------------------------------------
	 SCS Same-Spin Scale       =       0.3333333333333333 [-]
	 SCS Opposite-Spin Scale   =       1.2000000000000000 [-]
	 SCS Same-Spin Energy      =      -0.1718781637806071 [Eh]
	 SCS Opposite-Spin Energy  =      -1.9519954714738323 [Eh]
	 SCS Correlation Energy    =      -2.1238736352544394 [Eh]
	 SCS Total Energy          =    -534.8195673375586239 [Eh]
	-----------------------------------------------------------

  Dipole Moment: [D]
     X:    -0.0036      Y:    -0.0045      Z:    -0.0020     Total:     0.0060

*** Psi4 exiting successfully. Buy a developer a beer!
