                               Psi4 1.4a3.dev225

  ==> Input File <==

--------------------------------------------------------------------------
#psi4
#
memory 32 gb

molecule  {
0 1
  O        1.7312310    -0.2769730     0.0000590
  O       -1.7312320     0.2769720     0.0000220
  O        0.5576720     1.6786530    -0.0001670
  O       -0.5576690    -1.6786520    -0.0003240
  C        2.9008879     0.5848866     0.0000910
  C       -2.9581610    -0.5011970    -0.0000370
  C        4.0961590    -0.4920900     0.0002650
  C       -4.0961600     0.4920910     0.0001910
  C        0.6121100     0.4612570    -0.0000760
  C       -0.6121090    -0.4612570    -0.0001440
  H        2.9624380     1.1440920    -0.8842080
  H        2.9622950     1.1442210     0.8843180
  H       -2.9624180    -1.1440100    -0.8844060
  H       -2.9623190    -1.1443030     0.8841200
  H        5.0512870     0.0405180     0.0003010
  H        4.0503980    -1.1272370     0.8870460
  H        4.0505370    -1.1273680    -0.8864290
  H       -5.0512890    -0.0405160     0.0001540
  H       -4.0504200     1.1271560     0.8870320
  H       -4.0505160     1.1274510    -0.8864430
units angstrom
no_reorient  #important for SAPT in psi4, default
symmetry c1  #important for SAPT in psi4, default
}

set PROPERTIES_ORIGIN ["COM"]
properties('MP2/aug-cc-pvtz', properties = ['dipole'])
--------------------------------------------------------------------------

    Molecular point group: c1
  Charge       = 0
  Multiplicity = 1
  Basis Set: AUG-CC-PVTZ
    Blend: AUG-CC-PVTZ
  Basis Set: (AUG-CC-PVTZ AUX)
    Blend: AUG-CC-PVTZ-JKFIT

    Orbital Energies [Eh]
    ---------------------

    Doubly Occupied:

       1A    -20.623490     2A    -20.619831     3A    -20.573505
       4A    -20.572769     5A    -11.408244     6A    -11.407670
       7A    -11.299824     8A    -11.296245     9A    -11.230877
      10A    -11.230155    11A     -1.489684    12A     -1.461470
      13A     -1.383701    14A     -1.367889    15A     -1.058567
      16A     -1.036131    17A     -0.942348    18A     -0.876849
      19A     -0.837617    20A     -0.789272    21A     -0.744570
      22A     -0.707715    23A     -0.705386    24A     -0.688417
      25A     -0.681509    26A     -0.611696    27A     -0.610667
      28A     -0.576912    29A     -0.575195    30A     -0.557124
      31A     -0.544333    32A     -0.529747    33A     -0.524221
      34A     -0.521541    35A     -0.515298    36A     -0.499174
      37A     -0.482861    38A     -0.469310    39A     -0.448614

  @DF-RHF Final Energy:  -532.68552040404052

   => Energetics <=

    Nuclear Repulsion Energy =            540.5023316293213611
    One-Electron Energy =               -1801.3748431413230264
    Two-Electron Energy =                 728.1869911079611484
    Total Energy =                       -532.6855204040405170
  Basis Set: (AUG-CC-PVTZ AUX)
    Blend: AUG-CC-PVTZ-RI
    Molecular point group: c1

    Geometry (in Angstrom), charge = 0, multiplicity = 1:

       Center              X                  Y                   Z               Mass
    ------------   -----------------  -----------------  -----------------  -----------------
         O            1.735936340988    -0.283848979805     0.000069826492    15.994914619570
         O           -1.726526659012     0.270096020195     0.000032826492    15.994914619570
         O            0.562377340988     1.671777020195    -0.000156173508    15.994914619570
         O           -0.552963659012    -1.685527979805    -0.000313173508    15.994914619570
         C            2.905593240988     0.578010620195     0.000101826492    12.000000000000
         C           -2.953455659012    -0.508072979805    -0.000026173508    12.000000000000
         C            4.100864340988    -0.498965979805     0.000275826492    12.000000000000
         C           -4.091454659012     0.485215020195     0.000201826492    12.000000000000
         C            0.616815340988     0.454381020195    -0.000065173508    12.000000000000
         C           -0.607403659012    -0.468132979805    -0.000133173508    12.000000000000
         H            2.967143340988     1.137216020195    -0.884197173508     1.007825032230
         H            2.967000340988     1.137345020195     0.884328826492     1.007825032230
         H           -2.957712659012    -1.150885979805    -0.884395173508     1.007825032230
         H           -2.957613659012    -1.151178979805     0.884130826492     1.007825032230
         H            5.055992340988     0.033642020195     0.000311826492     1.007825032230
         H            4.055103340988    -1.134112979805     0.887056826492     1.007825032230
         H            4.055242340988    -1.134243979805    -0.886418173508     1.007825032230
         H           -5.046583659012    -0.047391979805     0.000164826492     1.007825032230
         H           -4.045714659012     1.120280020195     0.887042826492     1.007825032230
         H           -4.045810659012     1.120575020195    -0.886432173508     1.007825032230

  Basis Set: AUG-CC-PVTZ
    Blend: AUG-CC-PVTZ
  Basis Set: (AUG-CC-PVTZ AUX)
    Blend: AUG-CC-PVTZ-JKFIT
	 Reference Energy          =    -532.6855204040405170 [Eh]
	 Singles Energy            =      -0.0000000000000000 [Eh]
	 Same-Spin Energy          =      -0.5155495075177847 [Eh]
	 Opposite-Spin Energy      =      -1.6273719534260456 [Eh]
	 Correlation Energy        =      -2.1429214609438301 [Eh]
	 Total Energy              =    -534.8284418649843701 [Eh]

	 ================> DF-SCS-MP2 Energies <==================
	-----------------------------------------------------------
	 SCS Same-Spin Scale       =       0.3333333333333333 [-]
	 SCS Opposite-Spin Scale   =       1.2000000000000000 [-]
	 SCS Same-Spin Energy      =      -0.1718498358392616 [Eh]
	 SCS Opposite-Spin Energy  =      -1.9528463441112547 [Eh]
	 SCS Correlation Energy    =      -2.1246961799505164 [Eh]
	 SCS Total Energy          =    -534.8102165839910640 [Eh]
	-----------------------------------------------------------

  Dipole Moment: [D]
     X:    -0.1802      Y:     0.1125      Z:     0.0005     Total:     0.2124

*** Psi4 exiting successfully. Buy a developer a beer!
