                               Psi4 1.4a3.dev225

  ==> Input File <==

--------------------------------------------------------------------------
#psi4
#
memory 32 gb

molecule  {
0 1
  O        1.7800012    -0.1971088     0.0000597
  O       -1.7312320     0.2769720     0.0000220
  O        0.5576720     1.6786530    -0.0001670
  O       -0.5576690    -1.6786520    -0.0003240
  C        2.9581590     0.5011960     0.0001010
  C       -2.9581610    -0.5011970    -0.0000370
  C        4.0961590    -0.4920900     0.0002650
  C       -4.0961600     0.4920910     0.0001910
  C        0.6121100     0.4612570    -0.0000760
  C       -0.6121090    -0.4612570    -0.0001440
  H        2.9624380     1.1440920    -0.8842080
  H        2.9622950     1.1442210     0.8843180
  H       -2.9624180    -1.1440100    -0.8844060
  H       -2.9623190    -1.1443030     0.8841200
  H        5.0512870     0.0405180     0.0003010
  H        4.0503980    -1.1272370     0.8870460
  H        4.0505370    -1.1273680    -0.8864290
  H       -5.0512890    -0.0405160     0.0001540
  H       -4.0504200     1.1271560     0.8870320
  H       -4.0505160     1.1274510    -0.8864430
units angstrom
no_reorient  #important for SAPT in psi4, default
symmetry c1  #important for SAPT in psi4, default
}

set PROPERTIES_ORIGIN ["COM"]
properties('MP2/aug-cc-pvtz', properties = ['dipole'])
--------------------------------------------------------------------------

    Molecular point group: c1
  Charge       = 0
  Multiplicity = 1
  Basis Set: AUG-CC-PVTZ
    Blend: AUG-CC-PVTZ
  Basis Set: (AUG-CC-PVTZ AUX)
    Blend: AUG-CC-PVTZ-JKFIT

    Orbital Energies [Eh]
    ---------------------

    Doubly Occupied:

       1A    -20.623683     2A    -20.615053     3A    -20.577009
       4A    -20.571890     5A    -11.414905     6A    -11.410926
       7A    -11.302398     8A    -11.290125     9A    -11.231803
      10A    -11.226349    11A     -1.496389    12A     -1.469628
      13A     -1.385879    14A     -1.372894    15A     -1.064945
      16A     -1.049521    17A     -0.951228    18A     -0.883396
      19A     -0.831046    20A     -0.790644    21A     -0.754952
      22A     -0.710031    23A     -0.706075    24A     -0.690684
      25A     -0.683201    26A     -0.618948    27A     -0.609288
      28A     -0.580266    29A     -0.577575    30A     -0.560325
      31A     -0.553245    32A     -0.526656    33A     -0.524937
      34A     -0.522734    35A     -0.512255    36A     -0.508989
      37A     -0.475716    38A     -0.459178    39A     -0.452439

  @DF-RHF Final Energy:  -532.69328318065220

   => Energetics <=

    Nuclear Repulsion Energy =            541.3885169856679340
    One-Electron Energy =               -1802.9891918582834478
    Two-Electron Energy =                 728.9073916919631984
    Total Energy =                       -532.6932831806522017
  Basis Set: (AUG-CC-PVTZ AUX)
    Blend: AUG-CC-PVTZ-RI
    Molecular point group: c1

    Geometry (in Angstrom), charge = 0, multiplicity = 1:

       Center              X                  Y                   Z               Mass
    ------------   -----------------  -----------------  -----------------  -----------------
         O            1.774660331255    -0.205854817946     0.000069628243    15.994914619570
         O           -1.736572868745     0.268225982054     0.000031928243    15.994914619570
         O            0.552331131255     1.669906982054    -0.000157071757    15.994914619570
         O           -0.563009868745    -1.687398017946    -0.000314071757    15.994914619570
         C            2.952818131255     0.492449982054     0.000110928243    12.000000000000
         C           -2.963501868745    -0.509943017946    -0.000027071757    12.000000000000
         C            4.090818131255    -0.500836017946     0.000274928243    12.000000000000
         C           -4.101500868745     0.483344982054     0.000200928243    12.000000000000
         C            0.606769131255     0.452510982054    -0.000066071757    12.000000000000
         C           -0.617449868745    -0.470003017946    -0.000134071757    12.000000000000
         H            2.957097131255     1.135345982054    -0.884198071757     1.007825032230
         H            2.956954131255     1.135474982054     0.884327928243     1.007825032230
         H           -2.967758868745    -1.152756017946    -0.884396071757     1.007825032230
         H           -2.967659868745    -1.153049017946     0.884129928243     1.007825032230
         H            5.045946131255     0.031771982054     0.000310928243     1.007825032230
         H            4.045057131255    -1.135983017946     0.887055928243     1.007825032230
         H            4.045196131255    -1.136114017946    -0.886419071757     1.007825032230
         H           -5.056629868745    -0.049262017946     0.000163928243     1.007825032230
         H           -4.055760868745     1.118409982054     0.887041928243     1.007825032230
         H           -4.055856868745     1.118704982054    -0.886433071757     1.007825032230

  Basis Set: AUG-CC-PVTZ
    Blend: AUG-CC-PVTZ
  Basis Set: (AUG-CC-PVTZ AUX)
    Blend: AUG-CC-PVTZ-JKFIT
	 Reference Energy          =    -532.6932831806522017 [Eh]
	 Singles Energy            =      -0.0000000000000000 [Eh]
	 Same-Spin Energy          =      -0.5151110972568231 [Eh]
	 Opposite-Spin Energy      =      -1.6245458470300238 [Eh]
	 Correlation Energy        =      -2.1396569442868469 [Eh]
	 Total Energy              =    -534.8329401249390003 [Eh]

	 ================> DF-SCS-MP2 Energies <==================
	-----------------------------------------------------------
	 SCS Same-Spin Scale       =       0.3333333333333333 [-]
	 SCS Opposite-Spin Scale   =       1.2000000000000000 [-]
	 SCS Same-Spin Energy      =      -0.1717036990856077 [Eh]
	 SCS Opposite-Spin Energy  =      -1.9494550164360285 [Eh]
	 SCS Correlation Energy    =      -2.1211587155216360 [Eh]
	 SCS Total Energy          =    -534.8144418961738893 [Eh]
	-----------------------------------------------------------

  Dipole Moment: [D]
     X:    -0.3916      Y:    -0.1752      Z:     0.0005     Total:     0.4290

*** Psi4 exiting successfully. Buy a developer a beer!
