                               Psi4 1.4a3.dev225

  ==> Input File <==

--------------------------------------------------------------------------
#psi4
#
memory 32 gb

molecule  {
0 1
  O        1.7312310    -0.2769730     0.0000590
  O       -1.7312320     0.2769720     0.0000220
  O        0.5576720     1.6786530    -0.0001670
  O       -0.5576690    -1.6786520    -0.0003240
  C        2.9581590     0.5011960     0.0001010
  C       -2.9581610    -0.5011970    -0.0000370
  C        4.0961590    -0.4920900     0.0002650
  C       -4.0961600     0.4920910     0.0001910
  C        0.6121100     0.4612570    -0.0000760
  C       -0.6520408    -0.4913477    -0.0001462
  H        2.9624380     1.1440920    -0.8842080
  H        2.9622950     1.1442210     0.8843180
  H       -2.9624180    -1.1440100    -0.8844060
  H       -2.9623190    -1.1443030     0.8841200
  H        5.0512870     0.0405180     0.0003010
  H        4.0503980    -1.1272370     0.8870460
  H        4.0505370    -1.1273680    -0.8864290
  H       -5.0512890    -0.0405160     0.0001540
  H       -4.0504200     1.1271560     0.8870320
  H       -4.0505160     1.1274510    -0.8864430
units angstrom
no_reorient  #important for SAPT in psi4, default
symmetry c1  #important for SAPT in psi4, default
}

set PROPERTIES_ORIGIN ["COM"]
properties('MP2/aug-cc-pvtz', properties = ['dipole'])
--------------------------------------------------------------------------

    Molecular point group: c1
  Charge       = 0
  Multiplicity = 1
  Basis Set: AUG-CC-PVTZ
    Blend: AUG-CC-PVTZ
  Basis Set: (AUG-CC-PVTZ AUX)
    Blend: AUG-CC-PVTZ-JKFIT

    Orbital Energies [Eh]
    ---------------------

    Doubly Occupied:

       1A    -20.623005     2A    -20.616066     3A    -20.572602
       4A    -20.566547     5A    -11.405051     6A    -11.402745
       7A    -11.301492     8A    -11.297227     9A    -11.231262
      10A    -11.228374    11A     -1.492584    12A     -1.461090
      13A     -1.394730    14A     -1.367387    15A     -1.059933
      16A     -1.047235    17A     -0.934478    18A     -0.875015
      19A     -0.827565    20A     -0.788595    21A     -0.743525
      22A     -0.705169    23A     -0.704341    24A     -0.684564
      25A     -0.681581    26A     -0.613525    27A     -0.609976
      28A     -0.579730    29A     -0.574722    30A     -0.560029
      31A     -0.546781    32A     -0.528409    33A     -0.524418
      34A     -0.523378    35A     -0.520646    36A     -0.512603
      37A     -0.479227    38A     -0.465906    39A     -0.439195

  @DF-RHF Final Energy:  -532.69685817087793

   => Energetics <=

    Nuclear Repulsion Energy =            540.5576028915950246
    One-Electron Energy =               -1801.5275077765154492
    Two-Electron Energy =                 728.2730467140424935
    Total Energy =                       -532.6968581708779311
  Basis Set: (AUG-CC-PVTZ AUX)
    Blend: AUG-CC-PVTZ-RI
    Molecular point group: c1

    Geometry (in Angstrom), charge = 0, multiplicity = 1:

       Center              X                  Y                   Z               Mass
    ------------   -----------------  -----------------  -----------------  -----------------
         O            1.734511758083    -0.274500799955     0.000069185651    15.994914619570
         O           -1.727951241917     0.279444200045     0.000032185651    15.994914619570
         O            0.560952758083     1.681125200045    -0.000156814349    15.994914619570
         O           -0.554388241917    -1.676179799955    -0.000313814349    15.994914619570
         C            2.961439758083     0.503668200045     0.000111185651    12.000000000000
         C           -2.954880241917    -0.498724799955    -0.000026814349    12.000000000000
         C            4.099439758083    -0.489617799955     0.000275185651    12.000000000000
         C           -4.092879241917     0.494563200045     0.000201185651    12.000000000000
         C            0.615390758083     0.463729200045    -0.000065814349    12.000000000000
         C           -0.648760041917    -0.488875499955    -0.000136014349    12.000000000000
         H            2.965718758083     1.146564200045    -0.884197814349     1.007825032230
         H            2.965575758083     1.146693200045     0.884328185651     1.007825032230
         H           -2.959137241917    -1.141537799955    -0.884395814349     1.007825032230
         H           -2.959038241917    -1.141830799955     0.884130185651     1.007825032230
         H            5.054567758083     0.042990200045     0.000311185651     1.007825032230
         H            4.053678758083    -1.124764799955     0.887056185651     1.007825032230
         H            4.053817758083    -1.124895799955    -0.886418814349     1.007825032230
         H           -5.048008241917    -0.038043799955     0.000164185651     1.007825032230
         H           -4.047139241917     1.129628200045     0.887042185651     1.007825032230
         H           -4.047235241917     1.129923200045    -0.886432814349     1.007825032230

  Basis Set: AUG-CC-PVTZ
    Blend: AUG-CC-PVTZ
  Basis Set: (AUG-CC-PVTZ AUX)
    Blend: AUG-CC-PVTZ-JKFIT
	 Reference Energy          =    -532.6968581708779311 [Eh]
	 Singles Energy            =      -0.0000000000000000 [Eh]
	 Same-Spin Energy          =      -0.5147660600907038 [Eh]
	 Opposite-Spin Energy      =      -1.6245905048081224 [Eh]
	 Correlation Energy        =      -2.1393565648988262 [Eh]
	 Total Energy              =    -534.8362147357767071 [Eh]

	 ================> DF-SCS-MP2 Energies <==================
	-----------------------------------------------------------
	 SCS Same-Spin Scale       =       0.3333333333333333 [-]
	 SCS Opposite-Spin Scale   =       1.2000000000000000 [-]
	 SCS Same-Spin Energy      =      -0.1715886866969012 [Eh]
	 SCS Opposite-Spin Energy  =      -1.9495086057697468 [Eh]
	 SCS Correlation Energy    =      -2.1210972924666480 [Eh]
	 SCS Total Energy          =    -534.8179554633445605 [Eh]
	-----------------------------------------------------------

  Dipole Moment: [D]
     X:    -0.2419      Y:    -0.1286      Z:     0.0005     Total:     0.2739

*** Psi4 exiting successfully. Buy a developer a beer!
