                               Psi4 1.4a3.dev225

  ==> Input File <==

--------------------------------------------------------------------------
#psi4
#
memory 32 gb

molecule  {
0 1
  O        1.7312310    -0.2769730     0.0000590
  O       -1.7312320     0.2769720     0.0000220
  O        0.5576720     1.6786530    -0.0001670
  O       -0.5576690    -1.6786520    -0.0003240
  C        2.9581590     0.5011960     0.0001010
  C       -2.9581610    -0.5011970    -0.0000370
  C        4.0961590    -0.4920900     0.0002650
  C       -4.0961600     0.4920910     0.0001910
  C        0.6121100     0.4612570    -0.0000760
  C       -0.6121090    -0.4612570    -0.0001440
  H        2.9624380     1.1440920    -0.8842080
  H        2.9622950     1.1442210     0.8843180
  H       -2.9624180    -1.1440100    -0.8844060
  H       -2.9623190    -1.1443030     0.8841200
  H        5.0512870     0.0405180     0.0003010
  H        4.0462064    -1.1854147     0.9682727
  H        4.0505370    -1.1273680    -0.8864290
  H       -5.0512890    -0.0405160     0.0001540
  H       -4.0504200     1.1271560     0.8870320
  H       -4.0505160     1.1274510    -0.8864430
units angstrom
no_reorient  #important for SAPT in psi4, default
symmetry c1  #important for SAPT in psi4, default
}

set PROPERTIES_ORIGIN ["COM"]
properties('MP2/aug-cc-pvtz', properties = ['dipole'])
--------------------------------------------------------------------------

    Molecular point group: c1
  Charge       = 0
  Multiplicity = 1
  Basis Set: AUG-CC-PVTZ
    Blend: AUG-CC-PVTZ
  Basis Set: (AUG-CC-PVTZ AUX)
    Blend: AUG-CC-PVTZ-JKFIT

    Orbital Energies [Eh]
    ---------------------

    Doubly Occupied:

       1A    -20.619748     2A    -20.619551     3A    -20.572250
       4A    -20.572117     5A    -11.408151     6A    -11.407571
       7A    -11.300767     8A    -11.299588     9A    -11.241564
      10A    -11.229915    11A     -1.487575    12A     -1.459401
      13A     -1.382655    14A     -1.366910    15A     -1.061064
      16A     -1.046289    17A     -0.944390    18A     -0.872645
      19A     -0.829724    20A     -0.787340    21A     -0.745110
      22A     -0.703845    23A     -0.702235    24A     -0.683566
      25A     -0.680127    26A     -0.611277    27A     -0.606916
      28A     -0.577501    29A     -0.572251    30A     -0.559775
      31A     -0.548364    32A     -0.524561    33A     -0.523775
      34A     -0.520772    35A     -0.517563    36A     -0.505894
      37A     -0.475467    38A     -0.465985    39A     -0.448290

  @DF-RHF Final Energy:  -532.68925828286717

   => Energetics <=

    Nuclear Repulsion Energy =            540.1255977852150636
    One-Electron Energy =               -1800.6647344199845975
    Two-Electron Energy =                 727.8498783519022481
    Total Energy =                       -532.6892582828671721
  Basis Set: (AUG-CC-PVTZ AUX)
    Blend: AUG-CC-PVTZ-RI
    Molecular point group: c1

    Geometry (in Angstrom), charge = 0, multiplicity = 1:

       Center              X                  Y                   Z               Mass
    ------------   -----------------  -----------------  -----------------  -----------------
         O            1.731259916369    -0.276571591329    -0.000491473489    15.994914619570
         O           -1.731203083631     0.277373408671    -0.000528473489    15.994914619570
         O            0.557700916369     1.679054408671    -0.000717473489    15.994914619570
         O           -0.557640083631    -1.678250591329    -0.000874473489    15.994914619570
         C            2.958187916369     0.501597408671    -0.000449473489    12.000000000000
         C           -2.958132083631    -0.500795591329    -0.000587473489    12.000000000000
         C            4.096187916369    -0.491688591329    -0.000285473489    12.000000000000
         C           -4.096131083631     0.492492408671    -0.000359473489    12.000000000000
         C            0.612138916369     0.461658408671    -0.000626473489    12.000000000000
         C           -0.612080083631    -0.460855591329    -0.000694473489    12.000000000000
         H            2.962466916369     1.144493408671    -0.884758473489     1.007825032230
         H            2.962323916369     1.144622408671     0.883767526511     1.007825032230
         H           -2.962389083631    -1.143608591329    -0.884956473489     1.007825032230
         H           -2.962290083631    -1.143901591329     0.883569526511     1.007825032230
         H            5.051315916369     0.040919408671    -0.000249473489     1.007825032230
         H            4.046235316369    -1.185013291329     0.967722226511     1.007825032230
         H            4.050565916369    -1.126966591329    -0.886979473489     1.007825032230
         H           -5.051260083631    -0.040114591329    -0.000396473489     1.007825032230
         H           -4.050391083631     1.127557408671     0.886481526511     1.007825032230
         H           -4.050487083631     1.127852408671    -0.886993473489     1.007825032230

  Basis Set: AUG-CC-PVTZ
    Blend: AUG-CC-PVTZ
  Basis Set: (AUG-CC-PVTZ AUX)
    Blend: AUG-CC-PVTZ-JKFIT
	 Reference Energy          =    -532.6892582828671721 [Eh]
	 Singles Energy            =      -0.0000000000000000 [Eh]
	 Same-Spin Energy          =      -0.5155935962192233 [Eh]
	 Opposite-Spin Energy      =      -1.6273369865506702 [Eh]
	 Correlation Energy        =      -2.1429305827698935 [Eh]
	 Total Energy              =    -534.8321888656370220 [Eh]

	 ================> DF-SCS-MP2 Energies <==================
	-----------------------------------------------------------
	 SCS Same-Spin Scale       =       0.3333333333333333 [-]
	 SCS Opposite-Spin Scale   =       1.2000000000000000 [-]
	 SCS Same-Spin Energy      =      -0.1718645320730744 [Eh]
	 SCS Opposite-Spin Energy  =      -1.9528043838608040 [Eh]
	 SCS Correlation Energy    =      -2.1246689159338783 [Eh]
	 SCS Total Energy          =    -534.8139271988010250 [Eh]
	-----------------------------------------------------------

  Dipole Moment: [D]
     X:    -0.0158      Y:     0.0320      Z:    -0.0369     Total:     0.0514

*** Psi4 exiting successfully. Buy a developer a beer!
