                               Psi4 1.4a3.dev225

  ==> Input File <==

--------------------------------------------------------------------------
#psi4
#
memory 32 gb

molecule  {
0 1
  O        1.7312310    -0.2769730     0.0000590
  O       -1.7312320     0.2769720     0.0000220
  O        0.5576720     1.6786530    -0.0001670
  O       -0.5576690    -1.6786520    -0.0003240
  C        2.9581590     0.5011960     0.0001010
  C       -2.9581610    -0.5011970    -0.0000370
  C        4.0961590    -0.4920900     0.0002650
  C       -4.0961600     0.4920910     0.0001910
  C        0.6121100     0.4612570    -0.0000760
  C       -0.6143427    -0.4113069    -0.0001366
  H        2.9624380     1.1440920    -0.8842080
  H        2.9622950     1.1442210     0.8843180
  H       -2.9624180    -1.1440100    -0.8844060
  H       -2.9623190    -1.1443030     0.8841200
  H        5.0512870     0.0405180     0.0003010
  H        4.0503980    -1.1272370     0.8870460
  H        4.0505370    -1.1273680    -0.8864290
  H       -5.0512890    -0.0405160     0.0001540
  H       -4.0504200     1.1271560     0.8870320
  H       -4.0505160     1.1274510    -0.8864430
units angstrom
no_reorient  #important for SAPT in psi4, default
symmetry c1  #important for SAPT in psi4, default
}

set PROPERTIES_ORIGIN ["COM"]
properties('MP2/aug-cc-pvtz', properties = ['dipole'])
--------------------------------------------------------------------------

    Molecular point group: c1
  Charge       = 0
  Multiplicity = 1
  Basis Set: AUG-CC-PVTZ
    Blend: AUG-CC-PVTZ
  Basis Set: (AUG-CC-PVTZ AUX)
    Blend: AUG-CC-PVTZ-JKFIT

    Orbital Energies [Eh]
    ---------------------

    Doubly Occupied:

       1A    -20.627262     2A    -20.620350     3A    -20.573796
       4A    -20.563337     5A    -11.410178     6A    -11.408832
       7A    -11.303566     8A    -11.300093     9A    -11.232260
      10A    -11.229861    11A     -1.490731    12A     -1.463541
      13A     -1.377928    14A     -1.345810    15A     -1.066734
      16A     -1.050472    17A     -0.953361    18A     -0.879463
      19A     -0.834757    20A     -0.790396    21A     -0.750699
      22A     -0.705278    23A     -0.700849    24A     -0.686245
      25A     -0.674603    26A     -0.611166    27A     -0.609430
      28A     -0.578277    29A     -0.574543    30A     -0.561294
      31A     -0.550214    32A     -0.525749    33A     -0.523707
      34A     -0.522265    35A     -0.512549    36A     -0.506938
      37A     -0.473689    38A     -0.461682    39A     -0.450221

  @DF-RHF Final Energy:  -532.68810896997775

   => Energetics <=

    Nuclear Repulsion Energy =            540.5632193100337872
    One-Electron Energy =               -1801.4984051893984542
    Two-Electron Energy =                 728.2470769093870331
    Total Energy =                       -532.6881089699777476
  Basis Set: (AUG-CC-PVTZ AUX)
    Blend: AUG-CC-PVTZ-RI
    Molecular point group: c1

    Geometry (in Angstrom), charge = 0, multiplicity = 1:

       Center              X                  Y                   Z               Mass
    ------------   -----------------  -----------------  -----------------  -----------------
         O            1.731414512589    -0.281076887535     0.000068396922    15.994914619570
         O           -1.731048487411     0.272868112465     0.000031396922    15.994914619570
         O            0.557855512589     1.674549112465    -0.000157603078    15.994914619570
         O           -0.557485487411    -1.682755887535    -0.000314603078    15.994914619570
         C            2.958342512589     0.497092112465     0.000110396922    12.000000000000
         C           -2.957977487411    -0.505300887535    -0.000027603078    12.000000000000
         C            4.096342512589    -0.496193887535     0.000274396922    12.000000000000
         C           -4.095976487411     0.487987112465     0.000200396922    12.000000000000
         C            0.612293512589     0.457153112465    -0.000066603078    12.000000000000
         C           -0.614159187411    -0.415410787535    -0.000127203078    12.000000000000
         H            2.962621512589     1.139988112465    -0.884198603078     1.007825032230
         H            2.962478512589     1.140117112465     0.884327396922     1.007825032230
         H           -2.962234487411    -1.148113887535    -0.884396603078     1.007825032230
         H           -2.962135487411    -1.148406887535     0.884129396922     1.007825032230
         H            5.051470512589     0.036414112465     0.000310396922     1.007825032230
         H            4.050581512589    -1.131340887535     0.887055396922     1.007825032230
         H            4.050720512589    -1.131471887535    -0.886419603078     1.007825032230
         H           -5.051105487411    -0.044619887535     0.000163396922     1.007825032230
         H           -4.050236487411     1.123052112465     0.887041396922     1.007825032230
         H           -4.050332487411     1.123347112465    -0.886433603078     1.007825032230

  Basis Set: AUG-CC-PVTZ
    Blend: AUG-CC-PVTZ
  Basis Set: (AUG-CC-PVTZ AUX)
    Blend: AUG-CC-PVTZ-JKFIT
	 Reference Energy          =    -532.6881089699777476 [Eh]
	 Singles Energy            =      -0.0000000000000000 [Eh]
	 Same-Spin Energy          =      -0.5165773275079137 [Eh]
	 Opposite-Spin Energy      =      -1.6286222911940600 [Eh]
	 Correlation Energy        =      -2.1451996187019740 [Eh]
	 Total Energy              =    -534.8333085886797562 [Eh]

	 ================> DF-SCS-MP2 Energies <==================
	-----------------------------------------------------------
	 SCS Same-Spin Scale       =       0.3333333333333333 [-]
	 SCS Opposite-Spin Scale   =       1.2000000000000000 [-]
	 SCS Same-Spin Energy      =      -0.1721924425026379 [Eh]
	 SCS Opposite-Spin Energy  =      -1.9543467494328719 [Eh]
	 SCS Correlation Energy    =      -2.1265391919355099 [Eh]
	 SCS Total Energy          =    -534.8146481619132828 [Eh]
	-----------------------------------------------------------

  Dipole Moment: [D]
     X:    -0.1824      Y:     0.2475      Z:     0.0005     Total:     0.3074

*** Psi4 exiting successfully. Buy a developer a beer!
