                               Psi4 1.4a3.dev225

  ==> Input File <==

--------------------------------------------------------------------------
#psi4
#
memory 32 gb

molecule  {
0 1
  O        1.7312310    -0.2769730     0.0000590
  O       -1.7312320     0.2769720     0.0000220
  O        0.5576720     1.6786530    -0.0001670
  O       -0.5576690    -1.6786520    -0.0003240
  C        2.9581590     0.5011960     0.0001010
  C       -2.9581610    -0.5011970    -0.0000370
  C        4.0961590    -0.4920900     0.0002650
  C       -4.1338292     0.5249701     0.0001985
  C        0.6121100     0.4612570    -0.0000760
  C       -0.6121090    -0.4612570    -0.0001440
  H        2.9624380     1.1440920    -0.8842080
  H        2.9622950     1.1442210     0.8843180
  H       -2.9624180    -1.1440100    -0.8844060
  H       -2.9623190    -1.1443030     0.8841200
  H        5.0512870     0.0405180     0.0003010
  H        4.0503980    -1.1272370     0.8870460
  H        4.0505370    -1.1273680    -0.8864290
  H       -5.0512890    -0.0405160     0.0001540
  H       -4.0504200     1.1271560     0.8870320
  H       -4.0505160     1.1274510    -0.8864430
units angstrom
no_reorient  #important for SAPT in psi4, default
symmetry c1  #important for SAPT in psi4, default
}

set PROPERTIES_ORIGIN ["COM"]
properties('MP2/aug-cc-pvtz', properties = ['dipole'])
--------------------------------------------------------------------------

    Molecular point group: c1
  Charge       = 0
  Multiplicity = 1
  Basis Set: AUG-CC-PVTZ
    Blend: AUG-CC-PVTZ
  Basis Set: (AUG-CC-PVTZ AUX)
    Blend: AUG-CC-PVTZ-JKFIT

    Orbital Energies [Eh]
    ---------------------

    Doubly Occupied:

       1A    -20.619432     2A    -20.619404     3A    -20.571985
       4A    -20.571878     5A    -11.407894     6A    -11.407316
       7A    -11.301114     8A    -11.299507     9A    -11.229845
      10A    -11.228793    11A     -1.487186    12A     -1.458944
      13A     -1.382304    14A     -1.366477    15A     -1.059151
      16A     -1.042511    17A     -0.946354    18A     -0.877607
      19A     -0.831871    20A     -0.786487    21A     -0.744662
      22A     -0.703491    23A     -0.701776    24A     -0.683065
      25A     -0.679705    26A     -0.609713    27A     -0.609599
      28A     -0.579790    29A     -0.578409    30A     -0.562467
      31A     -0.547275    32A     -0.527387    33A     -0.523808
      34A     -0.520738    35A     -0.513154    36A     -0.512513
      37A     -0.476138    38A     -0.466273    39A     -0.448039

  @DF-RHF Final Energy:  -532.69385622430912

   => Energetics <=

    Nuclear Repulsion Energy =            539.7320370759078969
    One-Electron Energy =               -1799.8836612787115428
    Two-Electron Energy =                 727.4577679784946440
    Total Energy =                       -532.6938562243091155
  Basis Set: (AUG-CC-PVTZ AUX)
    Blend: AUG-CC-PVTZ-RI
    Molecular point group: c1

    Geometry (in Angstrom), charge = 0, multiplicity = 1:

       Center              X                  Y                   Z               Mass
    ------------   -----------------  -----------------  -----------------  -----------------
         O            1.734325864692    -0.279674347942     0.000068388706    15.994914619570
         O           -1.728137135308     0.274270652058     0.000031388706    15.994914619570
         O            0.560766864692     1.675951652058    -0.000157611294    15.994914619570
         O           -0.554574135308    -1.681353347942    -0.000314611294    15.994914619570
         C            2.961253864692     0.498494652058     0.000110388706    12.000000000000
         C           -2.955066135308    -0.503898347942    -0.000027611294    12.000000000000
         C            4.099253864692    -0.494791347942     0.000274388706    12.000000000000
         C           -4.130734335308     0.522268752058     0.000207888706    12.000000000000
         C            0.615204864692     0.458555652058    -0.000066611294    12.000000000000
         C           -0.609014135308    -0.463958347942    -0.000134611294    12.000000000000
         H            2.965532864692     1.141390652058    -0.884198611294     1.007825032230
         H            2.965389864692     1.141519652058     0.884327388706     1.007825032230
         H           -2.959323135308    -1.146711347942    -0.884396611294     1.007825032230
         H           -2.959224135308    -1.147004347942     0.884129388706     1.007825032230
         H            5.054381864692     0.037816652058     0.000310388706     1.007825032230
         H            4.053492864692    -1.129938347942     0.887055388706     1.007825032230
         H            4.053631864692    -1.130069347942    -0.886419611294     1.007825032230
         H           -5.048194135308    -0.043217347942     0.000163388706     1.007825032230
         H           -4.047325135308     1.124454652058     0.887041388706     1.007825032230
         H           -4.047421135308     1.124749652058    -0.886433611294     1.007825032230

  Basis Set: AUG-CC-PVTZ
    Blend: AUG-CC-PVTZ
  Basis Set: (AUG-CC-PVTZ AUX)
    Blend: AUG-CC-PVTZ-JKFIT
	 Reference Energy          =    -532.6938562243091155 [Eh]
	 Singles Energy            =      -0.0000000000000000 [Eh]
	 Same-Spin Energy          =      -0.5153983784443398 [Eh]
	 Opposite-Spin Energy      =      -1.6265890253687016 [Eh]
	 Correlation Energy        =      -2.1419874038130415 [Eh]
	 Total Energy              =    -534.8358436281221202 [Eh]

	 ================> DF-SCS-MP2 Energies <==================
	-----------------------------------------------------------
	 SCS Same-Spin Scale       =       0.3333333333333333 [-]
	 SCS Opposite-Spin Scale   =       1.2000000000000000 [-]
	 SCS Same-Spin Energy      =      -0.1717994594814466 [Eh]
	 SCS Opposite-Spin Energy  =      -1.9519068304424418 [Eh]
	 SCS Correlation Energy    =      -2.1237062899238883 [Eh]
	 SCS Total Energy          =    -534.8175625142330318 [Eh]
	-----------------------------------------------------------

  Dipole Moment: [D]
     X:     0.0147      Y:    -0.0042      Z:     0.0005     Total:     0.0153

*** Psi4 exiting successfully. Buy a developer a beer!
