                               Psi4 1.4a3.dev225

  ==> Input File <==

--------------------------------------------------------------------------
#psi4
#
memory 32 gb

molecule  {
0 1
  O        1.7312310    -0.2769730     0.0000590
  O       -1.7312320     0.2769720     0.0000220
  O        0.5576720     1.6786530    -0.0001670
  O       -0.5576690    -1.6786520    -0.0003240
  C        2.9581590     0.5011960     0.0001010
  C       -2.9581610    -0.5011970    -0.0000370
  C        4.0961590    -0.4920900     0.0002650
  C       -4.0961600     0.4920910     0.0001910
  C        0.6121100     0.4612570    -0.0000760
  C       -0.6121090    -0.4612570    -0.0001440
  H        2.9624380     1.1440920    -0.8842080
  H        2.9622950     1.1442210     0.8843180
  H       -2.9624180    -1.1440100    -0.8844060
  H       -2.9623190    -1.1443030     0.8841200
  H        5.0512870     0.0405180     0.0003010
  H        4.0524938    -1.0981481     0.8464326
  H        4.0505370    -1.1273680    -0.8864290
  H       -5.0512890    -0.0405160     0.0001540
  H       -4.0504200     1.1271560     0.8870320
  H       -4.0505160     1.1274510    -0.8864430
units angstrom
no_reorient  #important for SAPT in psi4, default
symmetry c1  #important for SAPT in psi4, default
}

set PROPERTIES_ORIGIN ["COM"]
properties('MP2/aug-cc-pvtz', properties = ['dipole'])
--------------------------------------------------------------------------

    Molecular point group: c1
  Charge       = 0
  Multiplicity = 1
  Basis Set: AUG-CC-PVTZ
    Blend: AUG-CC-PVTZ
  Basis Set: (AUG-CC-PVTZ AUX)
    Blend: AUG-CC-PVTZ-JKFIT

    Orbital Energies [Eh]
    ---------------------

    Doubly Occupied:

       1A    -20.619458     2A    -20.619390     3A    -20.572028
       4A    -20.571979     5A    -11.407954     6A    -11.407383
       7A    -11.299523     8A    -11.299031     9A    -11.229857
      10A    -11.223791    11A     -1.487363    12A     -1.459181
      13A     -1.382465    14A     -1.366716    15A     -1.062583
      16A     -1.048687    17A     -0.947187    18A     -0.877296
      19A     -0.832376    20A     -0.787253    21A     -0.745162
      22A     -0.703742    23A     -0.702574    24A     -0.684425
      25A     -0.680128    26A     -0.612689    27A     -0.610168
      28A     -0.580493    29A     -0.576496    30A     -0.560315
      31A     -0.547530    32A     -0.526419    33A     -0.523837
      34A     -0.522933    35A     -0.520457    36A     -0.512175
      37A     -0.475945    38A     -0.466187    39A     -0.448124

  @DF-RHF Final Energy:  -532.69464398096284

   => Energetics <=

    Nuclear Repulsion Energy =            540.7186172292541642
    One-Electron Energy =               -1801.8239218969667945
    Two-Electron Energy =                 728.4106606867496794
    Total Energy =                       -532.6946439809628373
  Basis Set: (AUG-CC-PVTZ AUX)
    Blend: AUG-CC-PVTZ-RI
    Molecular point group: c1

    Geometry (in Angstrom), charge = 0, multiplicity = 1:

       Center              X                  Y                   Z               Mass
    ------------   -----------------  -----------------  -----------------  -----------------
         O            1.731216532213    -0.277173746082     0.000349244440    15.994914619570
         O           -1.731246467787     0.276771253918     0.000312244440    15.994914619570
         O            0.557657532213     1.678452253918     0.000123244440    15.994914619570
         O           -0.557683467787    -1.678852746082    -0.000033755560    15.994914619570
         C            2.958144532213     0.500995253918     0.000391244440    12.000000000000
         C           -2.958175467787    -0.501397746082     0.000253244440    12.000000000000
         C            4.096144532213    -0.492290746082     0.000555244440    12.000000000000
         C           -4.096174467787     0.491890253918     0.000481244440    12.000000000000
         C            0.612095532213     0.461056253918     0.000214244440    12.000000000000
         C           -0.612123467787    -0.461457746082     0.000146244440    12.000000000000
         H            2.962423532213     1.143891253918    -0.883917755560     1.007825032230
         H            2.962280532213     1.144020253918     0.884608244440     1.007825032230
         H           -2.962432467787    -1.144210746082    -0.884115755560     1.007825032230
         H           -2.962333467787    -1.144503746082     0.884410244440     1.007825032230
         H            5.051272532213     0.040317253918     0.000591244440     1.007825032230
         H            4.052479332213    -1.098348846082     0.846722844440     1.007825032230
         H            4.050522532213    -1.127568746082    -0.886138755560     1.007825032230
         H           -5.051303467787    -0.040716746082     0.000444244440     1.007825032230
         H           -4.050434467787     1.126955253918     0.887322244440     1.007825032230
         H           -4.050530467787     1.127250253918    -0.886152755560     1.007825032230

  Basis Set: AUG-CC-PVTZ
    Blend: AUG-CC-PVTZ
  Basis Set: (AUG-CC-PVTZ AUX)
    Blend: AUG-CC-PVTZ-JKFIT
	 Reference Energy          =    -532.6946439809628373 [Eh]
	 Singles Energy            =      -0.0000000000000000 [Eh]
	 Same-Spin Energy          =      -0.5156675937587434 [Eh]
	 Opposite-Spin Energy      =      -1.6264244319713714 [Eh]
	 Correlation Energy        =      -2.1420920257301148 [Eh]
	 Total Energy              =    -534.8367360066929450 [Eh]

	 ================> DF-SCS-MP2 Energies <==================
	-----------------------------------------------------------
	 SCS Same-Spin Scale       =       0.3333333333333333 [-]
	 SCS Opposite-Spin Scale   =       1.2000000000000000 [-]
	 SCS Same-Spin Energy      =      -0.1718891979195811 [Eh]
	 SCS Opposite-Spin Energy  =      -1.9517093183656455 [Eh]
	 SCS Correlation Energy    =      -2.1235985162852264 [Eh]
	 SCS Total Energy          =    -534.8182424972480931 [Eh]
	-----------------------------------------------------------

  Dipole Moment: [D]
     X:     0.0066      Y:    -0.0128      Z:     0.0154     Total:     0.0211

*** Psi4 exiting successfully. Buy a developer a beer!
