                               Psi4 1.4a3.dev225

  ==> Input File <==

--------------------------------------------------------------------------
#psi4
#
memory 32 gb

molecule  {
0 1
  O        1.7312310    -0.2769730     0.0000590
  O       -1.7312320     0.2769720     0.0000220
  O        0.5576720     1.6786530    -0.0001670
  O       -0.5576690    -1.6786520    -0.0003240
  C        2.9581590     0.5011960     0.0001010
  C       -2.9581610    -0.5011970    -0.0000370
  C        4.0961590    -0.4920900     0.0002650
  C       -4.0961600     0.4920910     0.0001910
  C        0.6121100     0.4612570    -0.0000760
  C       -0.6121090    -0.4612570    -0.0001440
  H        2.9624380     1.1440920    -0.8842080
  H        2.9622950     1.1442210     0.8843180
  H       -2.9624180    -1.1440100    -0.8844060
  H       -2.9623190    -1.1443030     0.8841200
  H        5.0512870     0.0405180     0.0003010
  H        4.0503980    -1.1272370     0.8870460
  H        4.0505370    -1.1273680    -0.8864290
  H       -5.1386278    -0.0892186     0.0001506
  H       -4.0504200     1.1271560     0.8870320
  H       -4.0505160     1.1274510    -0.8864430
units angstrom
no_reorient  #important for SAPT in psi4, default
symmetry c1  #important for SAPT in psi4, default
}

set PROPERTIES_ORIGIN ["COM"]
properties('MP2/aug-cc-pvtz', properties = ['dipole'])
--------------------------------------------------------------------------

    Molecular point group: c1
  Charge       = 0
  Multiplicity = 1
  Basis Set: AUG-CC-PVTZ
    Blend: AUG-CC-PVTZ
  Basis Set: (AUG-CC-PVTZ AUX)
    Blend: AUG-CC-PVTZ-JKFIT

    Orbital Energies [Eh]
    ---------------------

    Doubly Occupied:

       1A    -20.620296     2A    -20.619809     3A    -20.572602
       4A    -20.572444     5A    -11.408554     6A    -11.407947
       7A    -11.300530     8A    -11.299782     9A    -11.241806
      10A    -11.230058    11A     -1.487952    12A     -1.459787
      13A     -1.383010    14A     -1.367279    15A     -1.061244
      16A     -1.046320    17A     -0.944153    18A     -0.872423
      19A     -0.830665    20A     -0.787632    21A     -0.744647
      22A     -0.704143    23A     -0.702974    24A     -0.684608
      25A     -0.680330    26A     -0.611917    27A     -0.610053
      28A     -0.578622    29A     -0.575155    30A     -0.554769
      31A     -0.536687    32A     -0.524721    33A     -0.523479
      34A     -0.523422    35A     -0.519200    36A     -0.511920
      37A     -0.476340    38A     -0.466636    39A     -0.448365

  @DF-RHF Final Energy:  -532.68926587205783

   => Energetics <=

    Nuclear Repulsion Energy =            540.0820053380563195
    One-Electron Energy =               -1800.5579742906154479
    Two-Electron Energy =                 727.7867030805011836
    Total Energy =                       -532.6892658720578311
  Basis Set: (AUG-CC-PVTZ AUX)
    Blend: AUG-CC-PVTZ-RI
    Molecular point group: c1

    Geometry (in Angstrom), charge = 0, multiplicity = 1:

       Center              X                  Y                   Z               Mass
    ------------   -----------------  -----------------  -----------------  -----------------
         O            1.731833646543    -0.276636971171     0.000069028361    15.994914619570
         O           -1.730629353457     0.277308028829     0.000032028361    15.994914619570
         O            0.558274646543     1.678989028829    -0.000156971639    15.994914619570
         O           -0.557066353457    -1.678315971171    -0.000313971639    15.994914619570
         C            2.958761646543     0.501532028829     0.000111028361    12.000000000000
         C           -2.957558353457    -0.500860971171    -0.000026971639    12.000000000000
         C            4.096761646543    -0.491753971171     0.000275028361    12.000000000000
         C           -4.095557353457     0.492427028829     0.000201028361    12.000000000000
         C            0.612712646543     0.461593028829    -0.000065971639    12.000000000000
         C           -0.611506353457    -0.460920971171    -0.000133971639    12.000000000000
         H            2.963040646543     1.144428028829    -0.884197971639     1.007825032230
         H            2.962897646543     1.144557028829     0.884328028361     1.007825032230
         H           -2.961815353457    -1.143673971171    -0.884395971639     1.007825032230
         H           -2.961716353457    -1.143966971171     0.884130028361     1.007825032230
         H            5.051889646543     0.040854028829     0.000311028361     1.007825032230
         H            4.051000646543    -1.126900971171     0.887056028361     1.007825032230
         H            4.051139646543    -1.127031971171    -0.886418971639     1.007825032230
         H           -5.138025153457    -0.088882571171     0.000160628361     1.007825032230
         H           -4.049817353457     1.127492028829     0.887042028361     1.007825032230
         H           -4.049913353457     1.127787028829    -0.886432971639     1.007825032230

  Basis Set: AUG-CC-PVTZ
    Blend: AUG-CC-PVTZ
  Basis Set: (AUG-CC-PVTZ AUX)
    Blend: AUG-CC-PVTZ-JKFIT
	 Reference Energy          =    -532.6892658720578311 [Eh]
	 Singles Energy            =      -0.0000000000000000 [Eh]
	 Same-Spin Energy          =      -0.5155721303850330 [Eh]
	 Opposite-Spin Energy      =      -1.6273183871856505 [Eh]
	 Correlation Energy        =      -2.1428905175706836 [Eh]
	 Total Energy              =    -534.8321563896284943 [Eh]

	 ================> DF-SCS-MP2 Energies <==================
	-----------------------------------------------------------
	 SCS Same-Spin Scale       =       0.3333333333333333 [-]
	 SCS Opposite-Spin Scale   =       1.2000000000000000 [-]
	 SCS Same-Spin Energy      =      -0.1718573767950110 [Eh]
	 SCS Opposite-Spin Energy  =      -1.9527820646227805 [Eh]
	 SCS Correlation Energy    =      -2.1246394414177914 [Eh]
	 SCS Total Energy          =    -534.8139053134756296 [Eh]
	-----------------------------------------------------------

  Dipole Moment: [D]
     X:     0.0611      Y:     0.0165      Z:     0.0005     Total:     0.0633

*** Psi4 exiting successfully. Buy a developer a beer!
