                               Psi4 1.4a3.dev225

  ==> Input File <==

--------------------------------------------------------------------------
#psi4
#
memory 32 gb

molecule  {
0 1
  O        1.7312310    -0.2769730     0.0000590
  O       -1.7312320     0.2769720     0.0000220
  O        0.5576720     1.6786530    -0.0001670
  O       -0.5576690    -1.6786520    -0.0003240
  C        2.9581590     0.5011960     0.0001010
  C       -2.9581610    -0.5011970    -0.0000370
  C        4.0961590    -0.4920900     0.0002650
  C       -4.0961600     0.4920910     0.0001910
  C        0.6121100     0.4612570    -0.0000760
  C       -0.6121090    -0.4612570    -0.0001440
  H        2.9624380     1.1440920    -0.8842080
  H        2.9622950     1.1442210     0.8843180
  H       -2.9624180    -1.1440100    -0.8844060
  H       -2.9623190    -1.1443030     0.8841200
  H        5.0512870     0.0405180     0.0003010
  H        4.0460751    -1.1873894     0.8404654
  H        4.0505370    -1.1273680    -0.8864290
  H       -5.0512890    -0.0405160     0.0001540
  H       -4.0504200     1.1271560     0.8870320
  H       -4.0505160     1.1274510    -0.8864430
units angstrom
no_reorient  #important for SAPT in psi4, default
symmetry c1  #important for SAPT in psi4, default
}

set PROPERTIES_ORIGIN ["COM"]
properties('MP2/aug-cc-pvtz', properties = ['dipole'])
--------------------------------------------------------------------------

    Molecular point group: c1
  Charge       = 0
  Multiplicity = 1
  Basis Set: AUG-CC-PVTZ
    Blend: AUG-CC-PVTZ
  Basis Set: (AUG-CC-PVTZ AUX)
    Blend: AUG-CC-PVTZ-JKFIT

    Orbital Energies [Eh]
    ---------------------

    Doubly Occupied:

       1A    -20.619626     2A    -20.619540     3A    -20.572153
       4A    -20.572125     5A    -11.408089     6A    -11.407519
       7A    -11.300104     8A    -11.299582     9A    -11.229903
      10A    -11.229647    11A     -1.487507    12A     -1.459328
      13A     -1.382603    14A     -1.366853    15A     -1.061737
      16A     -1.047543    17A     -0.946042    18A     -0.875827
      19A     -0.831962    20A     -0.787483    21A     -0.745204
      22A     -0.703888    23A     -0.702236    24A     -0.683591
      25A     -0.680334    26A     -0.612331    27A     -0.608052
      28A     -0.578231    29A     -0.575815    30A     -0.560983
      31A     -0.547834    32A     -0.527014    33A     -0.523848
      34A     -0.520678    35A     -0.520557    36A     -0.509671
      37A     -0.475717    38A     -0.466102    39A     -0.448266

  @DF-RHF Final Energy:  -532.69519015747346

   => Energetics <=

    Nuclear Repulsion Energy =            540.4869388180941314
    One-Electron Energy =               -1801.3732022461733777
    Two-Electron Energy =                 728.1910732706057843
    Total Energy =                       -532.6951901574734620
  Basis Set: (AUG-CC-PVTZ AUX)
    Blend: AUG-CC-PVTZ-RI
    Molecular point group: c1

    Geometry (in Angstrom), charge = 0, multiplicity = 1:

       Center              X                  Y                   Z               Mass
    ------------   -----------------  -----------------  -----------------  -----------------
         O            1.731260822362    -0.276557965555     0.000390419160    15.994914619570
         O           -1.731202177638     0.277387034445     0.000353419160    15.994914619570
         O            0.557701822362     1.679068034445     0.000164419160    15.994914619570
         O           -0.557639177638    -1.678236965555     0.000007419160    15.994914619570
         C            2.958188822362     0.501611034445     0.000432419160    12.000000000000
         C           -2.958131177638    -0.500781965555     0.000294419160    12.000000000000
         C            4.096188822362    -0.491674965555     0.000596419160    12.000000000000
         C           -4.096130177638     0.492506034445     0.000522419160    12.000000000000
         C            0.612139822362     0.461672034445     0.000255419160    12.000000000000
         C           -0.612079177638    -0.460841965555     0.000187419160    12.000000000000
         H            2.962467822362     1.144507034445    -0.883876580840     1.007825032230
         H            2.962324822362     1.144636034445     0.884649419160     1.007825032230
         H           -2.962388177638    -1.143594965555    -0.884074580840     1.007825032230
         H           -2.962289177638    -1.143887965555     0.884451419160     1.007825032230
         H            5.051316822362     0.040933034445     0.000632419160     1.007825032230
         H            4.046104922362    -1.186974365555     0.840796819160     1.007825032230
         H            4.050566822362    -1.126952965555    -0.886097580840     1.007825032230
         H           -5.051259177638    -0.040100965555     0.000485419160     1.007825032230
         H           -4.050390177638     1.127571034445     0.887363419160     1.007825032230
         H           -4.050486177638     1.127866034445    -0.886111580840     1.007825032230

  Basis Set: AUG-CC-PVTZ
    Blend: AUG-CC-PVTZ
  Basis Set: (AUG-CC-PVTZ AUX)
    Blend: AUG-CC-PVTZ-JKFIT
	 Reference Energy          =    -532.6951901574734620 [Eh]
	 Singles Energy            =      -0.0000000000000000 [Eh]
	 Same-Spin Energy          =      -0.5156438282091245 [Eh]
	 Opposite-Spin Energy      =      -1.6266611442183820 [Eh]
	 Correlation Energy        =      -2.1423049724275067 [Eh]
	 Total Energy              =    -534.8374951299009581 [Eh]

	 ================> DF-SCS-MP2 Energies <==================
	-----------------------------------------------------------
	 SCS Same-Spin Scale       =       0.3333333333333333 [-]
	 SCS Opposite-Spin Scale   =       1.2000000000000000 [-]
	 SCS Same-Spin Energy      =      -0.1718812760697082 [Eh]
	 SCS Opposite-Spin Energy  =      -1.9519933730620584 [Eh]
	 SCS Correlation Energy    =      -2.1238746491317664 [Eh]
	 SCS Total Energy          =    -534.8190648066051835 [Eh]
	-----------------------------------------------------------

  Dipole Moment: [D]
     X:    -0.0143      Y:    -0.0181      Z:    -0.0105     Total:     0.0253

*** Psi4 exiting successfully. Buy a developer a beer!
