                               Psi4 1.4a3.dev225

  ==> Input File <==

--------------------------------------------------------------------------
#psi4
#
memory 32 gb

molecule  {
0 1
  O        1.7312310    -0.2769730     0.0000590
  O       -1.7312320     0.2769720     0.0000220
  O        0.5576720     1.6786530    -0.0001670
  O       -0.5576690    -1.6786520    -0.0003240
  C        2.9581590     0.5011960     0.0001010
  C       -2.9581610    -0.5011970    -0.0000370
  C        4.0961590    -0.4920900     0.0002650
  C       -4.0961600     0.4920910     0.0001910
  C        0.6121100     0.4612570    -0.0000760
  C       -0.6121090    -0.4612570    -0.0001440
  H        2.9624380     1.1440920    -0.8842080
  H        2.9622950     1.1442210     0.8843180
  H       -2.9624180    -1.1440100    -0.8844060
  H       -2.9623190    -1.1443030     0.8841200
  H        5.0512870     0.0405180     0.0003010
  H        4.0503980    -1.1272370     0.8870460
  H        4.0505370    -1.1273680    -0.8864290
  H       -5.0512890    -0.0405160     0.0001540
  H       -4.0504200     1.1271560     0.8870320
  H       -4.0513522     1.1158115    -0.8702003
units angstrom
no_reorient  #important for SAPT in psi4, default
symmetry c1  #important for SAPT in psi4, default
}

set PROPERTIES_ORIGIN ["COM"]
properties('MP2/aug-cc-pvtz', properties = ['dipole'])
--------------------------------------------------------------------------

    Molecular point group: c1
  Charge       = 0
  Multiplicity = 1
  Basis Set: AUG-CC-PVTZ
    Blend: AUG-CC-PVTZ
  Basis Set: (AUG-CC-PVTZ AUX)
    Blend: AUG-CC-PVTZ-JKFIT

    Orbital Energies [Eh]
    ---------------------

    Doubly Occupied:

       1A    -20.619472     2A    -20.619442     3A    -20.572040
       4A    -20.572019     5A    -11.407981     6A    -11.407412
       7A    -11.299532     8A    -11.299328     9A    -11.229865
      10A    -11.227455    11A     -1.487394    12A     -1.459213
      13A     -1.382493    14A     -1.366744    15A     -1.062096
      16A     -1.048079    17A     -0.946451    18A     -0.876133
      19A     -0.831773    20A     -0.787253    21A     -0.745124
      22A     -0.703735    23A     -0.702480    24A     -0.684181
      25A     -0.680121    26A     -0.611634    27A     -0.609838
      28A     -0.578789    29A     -0.576489    30A     -0.560225
      31A     -0.547658    32A     -0.524653    33A     -0.523785
      34A     -0.523023    35A     -0.520474    36A     -0.511742
      37A     -0.475893    38A     -0.466167    39A     -0.448149

  @DF-RHF Final Energy:  -532.69571501817870

   => Energetics <=

    Nuclear Repulsion Energy =            540.5911019838758875
    One-Electron Energy =               -1801.5809654316935848
    Two-Electron Energy =                 728.2941484296389945
    Total Energy =                       -532.6957150181787028
  Basis Set: (AUG-CC-PVTZ AUX)
    Blend: AUG-CC-PVTZ-RI
    Molecular point group: c1

    Geometry (in Angstrom), charge = 0, multiplicity = 1:

       Center              X                  Y                   Z               Mass
    ------------   -----------------  -----------------  -----------------  -----------------
         O            1.731236763524    -0.276892713022    -0.000043072561    15.994914619570
         O           -1.731226236476     0.277052286978    -0.000080072561    15.994914619570
         O            0.557677763524     1.678733286978    -0.000269072561    15.994914619570
         O           -0.557663236476    -1.678571713022    -0.000426072561    15.994914619570
         C            2.958164763524     0.501276286978    -0.000001072561    12.000000000000
         C           -2.958155236476    -0.501116713022    -0.000139072561    12.000000000000
         C            4.096164763524    -0.492009713022     0.000162927439    12.000000000000
         C           -4.096154236476     0.492171286978     0.000088927439    12.000000000000
         C            0.612115763524     0.461337286978    -0.000178072561    12.000000000000
         C           -0.612103236476    -0.461176713022    -0.000246072561    12.000000000000
         H            2.962443763524     1.144172286978    -0.884310072561     1.007825032230
         H            2.962300763524     1.144301286978     0.884215927439     1.007825032230
         H           -2.962412236476    -1.143929713022    -0.884508072561     1.007825032230
         H           -2.962313236476    -1.144222713022     0.884017927439     1.007825032230
         H            5.051292763524     0.040598286978     0.000198927439     1.007825032230
         H            4.050403763524    -1.127156713022     0.886943927439     1.007825032230
         H            4.050542763524    -1.127287713022    -0.886531072561     1.007825032230
         H           -5.051283236476    -0.040435713022     0.000051927439     1.007825032230
         H           -4.050414236476     1.127236286978     0.886929927439     1.007825032230
         H           -4.051346436476     1.115891786978    -0.870302372561     1.007825032230

  Basis Set: AUG-CC-PVTZ
    Blend: AUG-CC-PVTZ
  Basis Set: (AUG-CC-PVTZ AUX)
    Blend: AUG-CC-PVTZ-JKFIT
	 Reference Energy          =    -532.6957150181787028 [Eh]
	 Singles Energy            =      -0.0000000000000000 [Eh]
	 Same-Spin Energy          =      -0.5156484353414738 [Eh]
	 Opposite-Spin Energy      =      -1.6265654096696907 [Eh]
	 Correlation Energy        =      -2.1422138450111645 [Eh]
	 Total Energy              =    -534.8379288631898589 [Eh]

	 ================> DF-SCS-MP2 Energies <==================
	-----------------------------------------------------------
	 SCS Same-Spin Scale       =       0.3333333333333333 [-]
	 SCS Opposite-Spin Scale   =       1.2000000000000000 [-]
	 SCS Same-Spin Energy      =      -0.1718828117804913 [Eh]
	 SCS Opposite-Spin Energy  =      -1.9518784916036287 [Eh]
	 SCS Correlation Energy    =      -2.1237613033841201 [Eh]
	 SCS Total Energy          =    -534.8194763215627745 [Eh]
	-----------------------------------------------------------

  Dipole Moment: [D]
     X:    -0.0027      Y:     0.0054      Z:    -0.0058     Total:     0.0084

*** Psi4 exiting successfully. Buy a developer a beer!
