                               Psi4 1.4a3.dev225

  ==> Input File <==

--------------------------------------------------------------------------
#psi4
#
memory 32 gb

molecule  {
0 1
  O        1.7312310    -0.2769730     0.0000590
  O       -1.7312320     0.2769720     0.0000220
  O        0.5576720     1.6786530    -0.0001670
  O       -0.5576690    -1.6786520    -0.0003240
  C        2.9581590     0.5011960     0.0001010
  C       -2.9581610    -0.5011970    -0.0000370
  C        4.0961590    -0.4920900     0.0002650
  C       -4.0961600     0.4920910     0.0001910
  C        0.6121100     0.4612570    -0.0000760
  C       -0.6280817    -0.4732933    -0.0001449
  H        2.9624380     1.1440920    -0.8842080
  H        2.9622950     1.1442210     0.8843180
  H       -2.9624180    -1.1440100    -0.8844060
  H       -2.9623190    -1.1443030     0.8841200
  H        5.0512870     0.0405180     0.0003010
  H        4.0503980    -1.1272370     0.8870460
  H        4.0505370    -1.1273680    -0.8864290
  H       -5.0512890    -0.0405160     0.0001540
  H       -4.0504200     1.1271560     0.8870320
  H       -4.0505160     1.1274510    -0.8864430
units angstrom
no_reorient  #important for SAPT in psi4, default
symmetry c1  #important for SAPT in psi4, default
}

set PROPERTIES_ORIGIN ["COM"]
properties('MP2/aug-cc-pvtz', properties = ['dipole'])
--------------------------------------------------------------------------

    Molecular point group: c1
  Charge       = 0
  Multiplicity = 1
  Basis Set: AUG-CC-PVTZ
    Blend: AUG-CC-PVTZ
  Basis Set: (AUG-CC-PVTZ AUX)
    Blend: AUG-CC-PVTZ-JKFIT

    Orbital Energies [Eh]
    ---------------------

    Doubly Occupied:

       1A    -20.620849     2A    -20.618167     3A    -20.572130
       4A    -20.569892     5A    -11.406632     6A    -11.405831
       7A    -11.300284     8A    -11.298647     9A    -11.230409
      10A    -11.229293    11A     -1.488868    12A     -1.460596
      13A     -1.386175    14A     -1.368223    15A     -1.060837
      16A     -1.047673    17A     -0.941180    18A     -0.875291
      19A     -0.829822    20A     -0.787753    21A     -0.744593
      22A     -0.703879    23A     -0.702865    24A     -0.684522
      25A     -0.681148    26A     -0.612187    27A     -0.609414
      28A     -0.578798    29A     -0.575611    30A     -0.560053
      31A     -0.547340    32A     -0.525531    33A     -0.522996
      34A     -0.522903    35A     -0.521542    36A     -0.512192
      37A     -0.476827    38A     -0.466486    39A     -0.444839

  @DF-RHF Final Energy:  -532.69700904751039

   => Energetics <=

    Nuclear Repulsion Energy =            540.5255830128404568
    One-Electron Energy =               -1801.4606238342576034
    Two-Electron Energy =                 728.2380317739068687
    Total Energy =                       -532.6970090475103916
  Basis Set: (AUG-CC-PVTZ AUX)
    Blend: AUG-CC-PVTZ-RI
    Molecular point group: c1

    Geometry (in Angstrom), charge = 0, multiplicity = 1:

       Center              X                  Y                   Z               Mass
    ------------   -----------------  -----------------  -----------------  -----------------
         O            1.732543297749    -0.275984134899     0.000069078844    15.994914619570
         O           -1.729919702251     0.277960865101     0.000032078844    15.994914619570
         O            0.558984297749     1.679641865101    -0.000156921156    15.994914619570
         O           -0.556356702251    -1.677663134899    -0.000313921156    15.994914619570
         C            2.959471297749     0.502184865101     0.000111078844    12.000000000000
         C           -2.956848702251    -0.500208134899    -0.000026921156    12.000000000000
         C            4.097471297749    -0.491101134899     0.000275078844    12.000000000000
         C           -4.094847702251     0.493079865101     0.000201078844    12.000000000000
         C            0.613422297749     0.462245865101    -0.000065921156    12.000000000000
         C           -0.626769402251    -0.472304434899    -0.000134821156    12.000000000000
         H            2.963750297749     1.145080865101    -0.884197921156     1.007825032230
         H            2.963607297749     1.145209865101     0.884328078844     1.007825032230
         H           -2.961105702251    -1.143021134899    -0.884395921156     1.007825032230
         H           -2.961006702251    -1.143314134899     0.884130078844     1.007825032230
         H            5.052599297749     0.041506865101     0.000311078844     1.007825032230
         H            4.051710297749    -1.126248134899     0.887056078844     1.007825032230
         H            4.051849297749    -1.126379134899    -0.886418921156     1.007825032230
         H           -5.049976702251    -0.039527134899     0.000164078844     1.007825032230
         H           -4.049107702251     1.128144865101     0.887042078844     1.007825032230
         H           -4.049203702251     1.128439865101    -0.886432921156     1.007825032230

  Basis Set: AUG-CC-PVTZ
    Blend: AUG-CC-PVTZ
  Basis Set: (AUG-CC-PVTZ AUX)
    Blend: AUG-CC-PVTZ-JKFIT
	 Reference Energy          =    -532.6970090475103916 [Eh]
	 Singles Energy            =      -0.0000000000000000 [Eh]
	 Same-Spin Energy          =      -0.5152473803069257 [Eh]
	 Opposite-Spin Energy      =      -1.6257530317778948 [Eh]
	 Correlation Energy        =      -2.1410004120848205 [Eh]
	 Total Energy              =    -534.8380094595952414 [Eh]

	 ================> DF-SCS-MP2 Energies <==================
	-----------------------------------------------------------
	 SCS Same-Spin Scale       =       0.3333333333333333 [-]
	 SCS Opposite-Spin Scale   =       1.2000000000000000 [-]
	 SCS Same-Spin Energy      =      -0.1717491267689752 [Eh]
	 SCS Opposite-Spin Energy  =      -1.9509036381334737 [Eh]
	 SCS Correlation Energy    =      -2.1226527649024489 [Eh]
	 SCS Total Energy          =    -534.8196618124128463 [Eh]
	-----------------------------------------------------------

  Dipole Moment: [D]
     X:    -0.0930      Y:    -0.0481      Z:     0.0005     Total:     0.1047

*** Psi4 exiting successfully. Buy a developer a beer!
