                               Psi4 1.4a3.dev225

  ==> Input File <==

--------------------------------------------------------------------------
#psi4
#
memory 32 gb

molecule  {
0 1
  O        1.6955080    -0.2057959     0.1296165
  O       -1.7312320     0.2769720     0.0000220
  O        0.5576720     1.6786530    -0.0001670
  O       -0.5576690    -1.6786520    -0.0003240
  C        2.9581590     0.5011960     0.0001010
  C       -2.9581610    -0.5011970    -0.0000370
  C        4.0961590    -0.4920900     0.0002650
  C       -4.0961600     0.4920910     0.0001910
  C        0.6121100     0.4612570    -0.0000760
  C       -0.6121090    -0.4612570    -0.0001440
  H        2.9624380     1.1440920    -0.8842080
  H        2.9622950     1.1442210     0.8843180
  H       -2.9624180    -1.1440100    -0.8844060
  H       -2.9623190    -1.1443030     0.8841200
  H        5.0512870     0.0405180     0.0003010
  H        4.0503980    -1.1272370     0.8870460
  H        4.0505370    -1.1273680    -0.8864290
  H       -5.0512890    -0.0405160     0.0001540
  H       -4.0504200     1.1271560     0.8870320
  H       -4.0505160     1.1274510    -0.8864430
units angstrom
no_reorient  #important for SAPT in psi4, default
symmetry c1  #important for SAPT in psi4, default
}

set PROPERTIES_ORIGIN ["COM"]
properties('MP2/aug-cc-pvtz', properties = ['dipole'])
--------------------------------------------------------------------------

    Molecular point group: c1
  Charge       = 0
  Multiplicity = 1
  Basis Set: AUG-CC-PVTZ
    Blend: AUG-CC-PVTZ
  Basis Set: (AUG-CC-PVTZ AUX)
    Blend: AUG-CC-PVTZ-JKFIT

    Orbital Energies [Eh]
    ---------------------

    Doubly Occupied:

       1A    -20.619485     2A    -20.617669     3A    -20.570661
       4A    -20.557026     5A    -11.405470     6A    -11.398406
       7A    -11.304994     8A    -11.298234     9A    -11.234809
      10A    -11.228730    11A     -1.501475    12A     -1.465756
      13A     -1.378468    14A     -1.362902    15A     -1.067683
      16A     -1.050068    17A     -0.948233    18A     -0.882212
      19A     -0.829420    20A     -0.789223    21A     -0.752355
      22A     -0.708223    23A     -0.700179    24A     -0.686090
      25A     -0.677953    26A     -0.615320    27A     -0.609792
      28A     -0.581845    29A     -0.573795    30A     -0.564535
      31A     -0.551031    32A     -0.524039    33A     -0.522735
      34A     -0.520481    35A     -0.514757    36A     -0.510212
      37A     -0.472747    38A     -0.462711    39A     -0.444961

  @DF-RHF Final Energy:  -532.69457913381882

   => Energetics <=

    Nuclear Repulsion Energy =            541.9709675792897769
    One-Electron Energy =               -1804.3217211812868754
    Two-Electron Energy =                 729.6561744681781647
    Total Energy =                       -532.6945791338188201
  Basis Set: (AUG-CC-PVTZ AUX)
    Blend: AUG-CC-PVTZ-RI
    Molecular point group: c1

    Geometry (in Angstrom), charge = 0, multiplicity = 1:

       Center              X                  Y                   Z               Mass
    ------------   -----------------  -----------------  -----------------  -----------------
         O            1.699420046972    -0.213590586902     0.115438562817    15.994914619570
         O           -1.727319953028     0.269177313098    -0.014155937183    15.994914619570
         O            0.561584046972     1.670858313098    -0.014344937183    15.994914619570
         O           -0.553756953028    -1.686446686902    -0.014501937183    15.994914619570
         C            2.962071046972     0.493401313098    -0.014076937183    12.000000000000
         C           -2.954248953028    -0.508991686902    -0.014214937183    12.000000000000
         C            4.100071046972    -0.499884686902    -0.013912937183    12.000000000000
         C           -4.092247953028     0.484296313098    -0.013986937183    12.000000000000
         C            0.616022046972     0.453462313098    -0.014253937183    12.000000000000
         C           -0.608196953028    -0.469051686902    -0.014321937183    12.000000000000
         H            2.966350046972     1.136297313098    -0.898385937183     1.007825032230
         H            2.966207046972     1.136426313098     0.870140062817     1.007825032230
         H           -2.958505953028    -1.151804686902    -0.898583937183     1.007825032230
         H           -2.958406953028    -1.152097686902     0.869942062817     1.007825032230
         H            5.055199046972     0.032723313098    -0.013876937183     1.007825032230
         H            4.054310046972    -1.135031686902     0.872868062817     1.007825032230
         H            4.054449046972    -1.135162686902    -0.900606937183     1.007825032230
         H           -5.047376953028    -0.048310686902    -0.014023937183     1.007825032230
         H           -4.046507953028     1.119361313098     0.872854062817     1.007825032230
         H           -4.046603953028     1.119656313098    -0.900620937183     1.007825032230

  Basis Set: AUG-CC-PVTZ
    Blend: AUG-CC-PVTZ
  Basis Set: (AUG-CC-PVTZ AUX)
    Blend: AUG-CC-PVTZ-JKFIT
	 Reference Energy          =    -532.6945791338188201 [Eh]
	 Singles Energy            =      -0.0000000000000000 [Eh]
	 Same-Spin Energy          =      -0.5146064297804246 [Eh]
	 Opposite-Spin Energy      =      -1.6236222014890431 [Eh]
	 Correlation Energy        =      -2.1382286312694676 [Eh]
	 Total Energy              =    -534.8328077650883188 [Eh]

	 ================> DF-SCS-MP2 Energies <==================
	-----------------------------------------------------------
	 SCS Same-Spin Scale       =       0.3333333333333333 [-]
	 SCS Opposite-Spin Scale   =       1.2000000000000000 [-]
	 SCS Same-Spin Energy      =      -0.1715354765934748 [Eh]
	 SCS Opposite-Spin Energy  =      -1.9483466417868516 [Eh]
	 SCS Correlation Energy    =      -2.1198821183803265 [Eh]
	 SCS Total Energy          =    -534.8144612521991803 [Eh]
	-----------------------------------------------------------

  Dipole Moment: [D]
     X:     0.3692      Y:    -0.2403      Z:    -0.1324     Total:     0.4600

*** Psi4 exiting successfully. Buy a developer a beer!
