                               Psi4 1.4a3.dev225

  ==> Input File <==

--------------------------------------------------------------------------
#psi4
#
memory 32 gb

molecule  {
0 1
  O        1.7312310    -0.2769730     0.0000590
  O       -1.7312320     0.2769720     0.0000220
  O        0.5576720     1.6786530    -0.0001670
  O       -0.5576690    -1.6786520    -0.0003240
  C        2.9581590     0.5011960     0.0001010
  C       -2.9581610    -0.5011970    -0.0000370
  C        4.0961590    -0.4920900     0.0002650
  C       -4.0208216     0.4263329     0.0001759
  C        0.6121100     0.4612570    -0.0000760
  C       -0.6121090    -0.4612570    -0.0001440
  H        2.9624380     1.1440920    -0.8842080
  H        2.9622950     1.1442210     0.8843180
  H       -2.9624180    -1.1440100    -0.8844060
  H       -2.9623190    -1.1443030     0.8841200
  H        5.0512870     0.0405180     0.0003010
  H        4.0503980    -1.1272370     0.8870460
  H        4.0505370    -1.1273680    -0.8864290
  H       -5.0512890    -0.0405160     0.0001540
  H       -4.0504200     1.1271560     0.8870320
  H       -4.0505160     1.1274510    -0.8864430
units angstrom
no_reorient  #important for SAPT in psi4, default
symmetry c1  #important for SAPT in psi4, default
}

set PROPERTIES_ORIGIN ["COM"]
properties('MP2/aug-cc-pvtz', properties = ['dipole'])
--------------------------------------------------------------------------

    Molecular point group: c1
  Charge       = 0
  Multiplicity = 1
  Basis Set: AUG-CC-PVTZ
    Blend: AUG-CC-PVTZ
  Basis Set: (AUG-CC-PVTZ AUX)
    Blend: AUG-CC-PVTZ-JKFIT

    Orbital Energies [Eh]
    ---------------------

    Doubly Occupied:

       1A    -20.619610     2A    -20.619562     3A    -20.572355
       4A    -20.572159     5A    -11.408205     6A    -11.407611
       7A    -11.299590     8A    -11.295402     9A    -11.234217
      10A    -11.229913    11A     -1.487929    12A     -1.459885
      13A     -1.382978    14A     -1.367398    15A     -1.076451
      16A     -1.053039    17A     -0.945754    18A     -0.870666
      19A     -0.829496    20A     -0.789060    21A     -0.746016
      22A     -0.704332    23A     -0.704297    24A     -0.686285
      25A     -0.681052    26A     -0.617884    27A     -0.609842
      28A     -0.578688    29A     -0.575768    30A     -0.562298
      31A     -0.554543    32A     -0.525958    33A     -0.523231
      34A     -0.517962    35A     -0.516630    36A     -0.500956
      37A     -0.474109    38A     -0.464804    39A     -0.447989

  @DF-RHF Final Energy:  -532.68363757229463

   => Energetics <=

    Nuclear Repulsion Energy =            542.1475959576314381
    One-Electron Energy =               -1804.6346227863632521
    Two-Electron Energy =                 729.8033892564371854
    Total Energy =                       -532.6836375722946286
  Basis Set: (AUG-CC-PVTZ AUX)
    Blend: AUG-CC-PVTZ-RI
    Molecular point group: c1

    Geometry (in Angstrom), charge = 0, multiplicity = 1:

       Center              X                  Y                   Z               Mass
    ------------   -----------------  -----------------  -----------------  -----------------
         O            1.725041251410    -0.271570395135     0.000070245504    15.994914619570
         O           -1.737421748590     0.282374604865     0.000033245504    15.994914619570
         O            0.551482251410     1.684055604865    -0.000155754496    15.994914619570
         O           -0.563858748590    -1.673249395135    -0.000312754496    15.994914619570
         C            2.951969251410     0.506598604865     0.000112245504    12.000000000000
         C           -2.964350748590    -0.495794395135    -0.000025754496    12.000000000000
         C            4.089969251410    -0.486687395135     0.000276245504    12.000000000000
         C           -4.027011348590     0.431735504865     0.000187145504    12.000000000000
         C            0.605920251410     0.466659604865    -0.000064754496    12.000000000000
         C           -0.618298748590    -0.455854395135    -0.000132754496    12.000000000000
         H            2.956248251410     1.149494604865    -0.884196754496     1.007825032230
         H            2.956105251410     1.149623604865     0.884329245504     1.007825032230
         H           -2.968607748590    -1.138607395135    -0.884394754496     1.007825032230
         H           -2.968508748590    -1.138900395135     0.884131245504     1.007825032230
         H            5.045097251410     0.045920604865     0.000312245504     1.007825032230
         H            4.044208251410    -1.121834395135     0.887057245504     1.007825032230
         H            4.044347251410    -1.121965395135    -0.886417754496     1.007825032230
         H           -5.057478748590    -0.035113395135     0.000165245504     1.007825032230
         H           -4.056609748590     1.132558604865     0.887043245504     1.007825032230
         H           -4.056705748590     1.132853604865    -0.886431754496     1.007825032230

  Basis Set: AUG-CC-PVTZ
    Blend: AUG-CC-PVTZ
  Basis Set: (AUG-CC-PVTZ AUX)
    Blend: AUG-CC-PVTZ-JKFIT
	 Reference Energy          =    -532.6836375722946286 [Eh]
	 Singles Energy            =      -0.0000000000000000 [Eh]
	 Same-Spin Energy          =      -0.5166658079824260 [Eh]
	 Opposite-Spin Energy      =      -1.6278224852290100 [Eh]
	 Correlation Energy        =      -2.1444882932114360 [Eh]
	 Total Energy              =    -534.8281258655060810 [Eh]

	 ================> DF-SCS-MP2 Energies <==================
	-----------------------------------------------------------
	 SCS Same-Spin Scale       =       0.3333333333333333 [-]
	 SCS Opposite-Spin Scale   =       1.2000000000000000 [-]
	 SCS Same-Spin Energy      =      -0.1722219359941420 [Eh]
	 SCS Opposite-Spin Energy  =      -1.9533869822748118 [Eh]
	 SCS Correlation Energy    =      -2.1256089182689539 [Eh]
	 SCS Total Energy          =    -534.8092464905636234 [Eh]
	-----------------------------------------------------------

  Dipole Moment: [D]
     X:    -0.0312      Y:     0.0047      Z:     0.0005     Total:     0.0315

*** Psi4 exiting successfully. Buy a developer a beer!
