                               Psi4 1.4a3.dev225

  ==> Input File <==

--------------------------------------------------------------------------
#psi4
#
memory 32 gb

molecule  {
0 1
  O        1.7312310    -0.2769730     0.0000590
  O       -1.7312320     0.2769720     0.0000220
  O        0.5576720     1.6786530    -0.0001670
  O       -0.5576690    -1.6786520    -0.0003240
  C        2.9581590     0.5011960     0.0001010
  C       -2.9581610    -0.5011970    -0.0000370
  C        4.0961590    -0.4920900     0.0002650
  C       -4.0961600     0.4920910     0.0001910
  C        0.6121100     0.4612570    -0.0000760
  C       -0.5721772    -0.4311663    -0.0001418
  H        2.9624380     1.1440920    -0.8842080
  H        2.9622950     1.1442210     0.8843180
  H       -2.9624180    -1.1440100    -0.8844060
  H       -2.9623190    -1.1443030     0.8841200
  H        5.0512870     0.0405180     0.0003010
  H        4.0503980    -1.1272370     0.8870460
  H        4.0505370    -1.1273680    -0.8864290
  H       -5.0512890    -0.0405160     0.0001540
  H       -4.0504200     1.1271560     0.8870320
  H       -4.0505160     1.1274510    -0.8864430
units angstrom
no_reorient  #important for SAPT in psi4, default
symmetry c1  #important for SAPT in psi4, default
}

set PROPERTIES_ORIGIN ["COM"]
properties('MP2/aug-cc-pvtz', properties = ['dipole'])
--------------------------------------------------------------------------

    Molecular point group: c1
  Charge       = 0
  Multiplicity = 1
  Basis Set: AUG-CC-PVTZ
    Blend: AUG-CC-PVTZ
  Basis Set: (AUG-CC-PVTZ AUX)
    Blend: AUG-CC-PVTZ-JKFIT

    Orbital Energies [Eh]
    ---------------------

    Doubly Occupied:

       1A    -20.622504     2A    -20.616245     3A    -20.577258
       4A    -20.572586     5A    -11.411480     6A    -11.410776
       7A    -11.301611     8A    -11.297854     9A    -11.231219
      10A    -11.228619    11A     -1.487088    12A     -1.452547
      13A     -1.381869    14A     -1.354826    15A     -1.065663
      16A     -1.047141    17A     -0.959132    18A     -0.875640
      19A     -0.835235    20A     -0.786472    21A     -0.745517
      22A     -0.705320    23A     -0.702904    24A     -0.681548
      25A     -0.675532    26A     -0.610318    27A     -0.609245
      28A     -0.578186    29A     -0.574717    30A     -0.560688
      31A     -0.548622    32A     -0.526219    33A     -0.523220
      34A     -0.520644    35A     -0.516466    36A     -0.507746
      37A     -0.475821    38A     -0.462594    39A     -0.454957

  @DF-RHF Final Energy:  -532.68741723590222

   => Energetics <=

    Nuclear Repulsion Energy =            540.4868189343599170
    One-Electron Energy =               -1801.3564176958966527
    Two-Electron Energy =                 728.1821815256345189
    Total Energy =                       -532.6874172359022168
  Basis Set: (AUG-CC-PVTZ AUX)
    Blend: AUG-CC-PVTZ-RI
    Molecular point group: c1

    Geometry (in Angstrom), charge = 0, multiplicity = 1:

       Center              X                  Y                   Z               Mass
    ------------   -----------------  -----------------  -----------------  -----------------
         O            1.727950229113    -0.279445255246     0.000068824150    15.994914619570
         O           -1.734512770887     0.274499744754     0.000031824150    15.994914619570
         O            0.554391229113     1.676180744754    -0.000157175850    15.994914619570
         O           -0.560949770887    -1.681124255246    -0.000314175850    15.994914619570
         C            2.954878229113     0.498723744754     0.000110824150    12.000000000000
         C           -2.961441770887    -0.503669255246    -0.000027175850    12.000000000000
         C            4.092878229113    -0.494562255246     0.000274824150    12.000000000000
         C           -4.099440770887     0.489618744754     0.000200824150    12.000000000000
         C            0.608829229113     0.458784744754    -0.000066175850    12.000000000000
         C           -0.575457970887    -0.433638555246    -0.000131975850    12.000000000000
         H            2.959157229113     1.141619744754    -0.884198175850     1.007825032230
         H            2.959014229113     1.141748744754     0.884327824150     1.007825032230
         H           -2.965698770887    -1.146482255246    -0.884396175850     1.007825032230
         H           -2.965599770887    -1.146775255246     0.884129824150     1.007825032230
         H            5.048006229113     0.038045744754     0.000310824150     1.007825032230
         H            4.047117229113    -1.129709255246     0.887055824150     1.007825032230
         H            4.047256229113    -1.129840255246    -0.886419175850     1.007825032230
         H           -5.054569770887    -0.042988255246     0.000163824150     1.007825032230
         H           -4.053700770887     1.124683744754     0.887041824150     1.007825032230
         H           -4.053796770887     1.124978744754    -0.886433175850     1.007825032230

  Basis Set: AUG-CC-PVTZ
    Blend: AUG-CC-PVTZ
  Basis Set: (AUG-CC-PVTZ AUX)
    Blend: AUG-CC-PVTZ-JKFIT
	 Reference Energy          =    -532.6874172359022168 [Eh]
	 Singles Energy            =      -0.0000000000000000 [Eh]
	 Same-Spin Energy          =      -0.5168677645856307 [Eh]
	 Opposite-Spin Energy      =      -1.6295123511272867 [Eh]
	 Correlation Energy        =      -2.1463801157129172 [Eh]
	 Total Energy              =    -534.8337973516150896 [Eh]

	 ================> DF-SCS-MP2 Energies <==================
	-----------------------------------------------------------
	 SCS Same-Spin Scale       =       0.3333333333333333 [-]
	 SCS Opposite-Spin Scale   =       1.2000000000000000 [-]
	 SCS Same-Spin Energy      =      -0.1722892548618769 [Eh]
	 SCS Opposite-Spin Energy  =      -1.9554148213527438 [Eh]
	 SCS Correlation Energy    =      -2.1277040762146209 [Eh]
	 SCS Total Energy          =    -534.8151213121168439 [Eh]
	-----------------------------------------------------------

  Dipole Moment: [D]
     X:     0.2129      Y:     0.1009      Z:     0.0005     Total:     0.2356

*** Psi4 exiting successfully. Buy a developer a beer!
