                               Psi4 1.4a3.dev225

  ==> Input File <==

--------------------------------------------------------------------------
#psi4
#
memory 32 gb

molecule  {
0 1
  O        1.7312310    -0.2769730     0.0000590
  O       -1.7312320     0.2769720     0.0000220
  O        0.5576720     1.6786530    -0.0001670
  O       -0.5576690    -1.6786520    -0.0003240
  C        2.9412696     0.4904840     0.0001004
  C       -2.9581610    -0.5011970    -0.0000370
  C        4.0961590    -0.4920900     0.0002650
  C       -4.0961600     0.4920910     0.0001910
  C        0.6121100     0.4612570    -0.0000760
  C       -0.6121090    -0.4612570    -0.0001440
  H        2.9624380     1.1440920    -0.8842080
  H        2.9622950     1.1442210     0.8843180
  H       -2.9624180    -1.1440100    -0.8844060
  H       -2.9623190    -1.1443030     0.8841200
  H        5.0512870     0.0405180     0.0003010
  H        4.0503980    -1.1272370     0.8870460
  H        4.0505370    -1.1273680    -0.8864290
  H       -5.0512890    -0.0405160     0.0001540
  H       -4.0504200     1.1271560     0.8870320
  H       -4.0505160     1.1274510    -0.8864430
units angstrom
no_reorient  #important for SAPT in psi4, default
symmetry c1  #important for SAPT in psi4, default
}

set PROPERTIES_ORIGIN ["COM"]
properties('MP2/aug-cc-pvtz', properties = ['dipole'])
--------------------------------------------------------------------------

    Molecular point group: c1
  Charge       = 0
  Multiplicity = 1
  Basis Set: AUG-CC-PVTZ
    Blend: AUG-CC-PVTZ
  Basis Set: (AUG-CC-PVTZ AUX)
    Blend: AUG-CC-PVTZ-JKFIT

    Orbital Energies [Eh]
    ---------------------

    Doubly Occupied:

       1A    -20.621810     2A    -20.620140     3A    -20.573609
       4A    -20.572873     5A    -11.409290     6A    -11.408503
       7A    -11.300009     8A    -11.298902     9A    -11.230222
      10A    -11.229172    11A     -1.490078    12A     -1.462106
      13A     -1.384353    14A     -1.368877    15A     -1.061876
      16A     -1.046964    17A     -0.947179    18A     -0.876289
      19A     -0.830653    20A     -0.788894    21A     -0.747133
      22A     -0.704998    23A     -0.703711    24A     -0.684810
      25A     -0.681614    26A     -0.613417    27A     -0.608717
      28A     -0.577875    29A     -0.577078    30A     -0.560677
      31A     -0.549238    32A     -0.524323    33A     -0.522646
      34A     -0.521653    35A     -0.519731    36A     -0.511089
      37A     -0.475527    38A     -0.465856    39A     -0.449374

  @DF-RHF Final Energy:  -532.69566127048608

   => Energetics <=

    Nuclear Repulsion Energy =            540.8549250446501446
    One-Electron Energy =               -1802.0586398017794636
    Two-Electron Energy =                 728.5080534866432345
    Total Energy =                       -532.6956612704860845
  Basis Set: (AUG-CC-PVTZ AUX)
    Blend: AUG-CC-PVTZ-RI
    Molecular point group: c1

    Geometry (in Angstrom), charge = 0, multiplicity = 1:

       Center              X                  Y                   Z               Mass
    ------------   -----------------  -----------------  -----------------  -----------------
         O            1.732618613082    -0.276092938319     0.000069054196    15.994914619570
         O           -1.729844386918     0.277852061681     0.000032054196    15.994914619570
         O            0.559059613082     1.679533061681    -0.000156945804    15.994914619570
         O           -0.556281386918    -1.677771938319    -0.000313945804    15.994914619570
         C            2.942657213082     0.491364061681     0.000110454196    12.000000000000
         C           -2.956773386918    -0.500316938319    -0.000026945804    12.000000000000
         C            4.097546613082    -0.491209938319     0.000275054196    12.000000000000
         C           -4.094772386918     0.492971061681     0.000201054196    12.000000000000
         C            0.613497613082     0.462137061681    -0.000065945804    12.000000000000
         C           -0.610721386918    -0.460376938319    -0.000133945804    12.000000000000
         H            2.963825613082     1.144972061681    -0.884197945804     1.007825032230
         H            2.963682613082     1.145101061681     0.884328054196     1.007825032230
         H           -2.961030386918    -1.143129938319    -0.884395945804     1.007825032230
         H           -2.960931386918    -1.143422938319     0.884130054196     1.007825032230
         H            5.052674613082     0.041398061681     0.000311054196     1.007825032230
         H            4.051785613082    -1.126356938319     0.887056054196     1.007825032230
         H            4.051924613082    -1.126487938319    -0.886418945804     1.007825032230
         H           -5.049901386918    -0.039635938319     0.000164054196     1.007825032230
         H           -4.049032386918     1.128036061681     0.887042054196     1.007825032230
         H           -4.049128386918     1.128331061681    -0.886432945804     1.007825032230

  Basis Set: AUG-CC-PVTZ
    Blend: AUG-CC-PVTZ
  Basis Set: (AUG-CC-PVTZ AUX)
    Blend: AUG-CC-PVTZ-JKFIT
	 Reference Energy          =    -532.6956612704860845 [Eh]
	 Singles Energy            =      -0.0000000000000000 [Eh]
	 Same-Spin Energy          =      -0.5156176806229593 [Eh]
	 Opposite-Spin Energy      =      -1.6264994033579585 [Eh]
	 Correlation Energy        =      -2.1421170839809180 [Eh]
	 Total Energy              =    -534.8377783544669910 [Eh]

	 ================> DF-SCS-MP2 Energies <==================
	-----------------------------------------------------------
	 SCS Same-Spin Scale       =       0.3333333333333333 [-]
	 SCS Opposite-Spin Scale   =       1.2000000000000000 [-]
	 SCS Same-Spin Energy      =      -0.1718725602076531 [Eh]
	 SCS Opposite-Spin Energy  =      -1.9517992840295502 [Eh]
	 SCS Correlation Energy    =      -2.1236718442372031 [Eh]
	 SCS Total Energy          =    -534.8193331147232357 [Eh]
	-----------------------------------------------------------

  Dipole Moment: [D]
     X:    -0.0945      Y:    -0.0135      Z:     0.0005     Total:     0.0955

*** Psi4 exiting successfully. Buy a developer a beer!
