                               Psi4 1.4a3.dev225

  ==> Input File <==

--------------------------------------------------------------------------
#psi4
#
memory 32 gb

molecule  {
0 1
  O        1.7312310    -0.2769730     0.0000590
  O       -1.7312320     0.2769720     0.0000220
  O        0.5576720     1.6786530    -0.0001670
  O       -0.5576690    -1.6786520    -0.0003240
  C        2.9302539     0.5435411     0.0000960
  C       -2.9581610    -0.5011970    -0.0000370
  C        4.0961590    -0.4920900     0.0002650
  C       -4.0961600     0.4920910     0.0001910
  C        0.6121100     0.4612570    -0.0000760
  C       -0.6121090    -0.4612570    -0.0001440
  H        2.9624380     1.1440920    -0.8842080
  H        2.9622950     1.1442210     0.8843180
  H       -2.9624180    -1.1440100    -0.8844060
  H       -2.9623190    -1.1443030     0.8841200
  H        5.0512870     0.0405180     0.0003010
  H        4.0503980    -1.1272370     0.8870460
  H        4.0505370    -1.1273680    -0.8864290
  H       -5.0512890    -0.0405160     0.0001540
  H       -4.0504200     1.1271560     0.8870320
  H       -4.0505160     1.1274510    -0.8864430
units angstrom
no_reorient  #important for SAPT in psi4, default
symmetry c1  #important for SAPT in psi4, default
}

set PROPERTIES_ORIGIN ["COM"]
properties('MP2/aug-cc-pvtz', properties = ['dipole'])
--------------------------------------------------------------------------

    Molecular point group: c1
  Charge       = 0
  Multiplicity = 1
  Basis Set: AUG-CC-PVTZ
    Blend: AUG-CC-PVTZ
  Basis Set: (AUG-CC-PVTZ AUX)
    Blend: AUG-CC-PVTZ-JKFIT

    Orbital Energies [Eh]
    ---------------------

    Doubly Occupied:

       1A    -20.621388     2A    -20.619632     3A    -20.572706
       4A    -20.572381     5A    -11.408059     6A    -11.407489
       7A    -11.299665     8A    -11.297537     9A    -11.230493
      10A    -11.230001    11A     -1.488451    12A     -1.460313
      13A     -1.383048    14A     -1.367280    15A     -1.059427
      16A     -1.041980    17A     -0.944157    18A     -0.876068
      19A     -0.834648    20A     -0.788427    21A     -0.744755
      22A     -0.704618    23A     -0.704507    24A     -0.686302
      25A     -0.680779    26A     -0.611081    27A     -0.609772
      28A     -0.577210    29A     -0.575492    30A     -0.558088
      31A     -0.544369    32A     -0.525938    33A     -0.523990
      34A     -0.520973    35A     -0.514641    36A     -0.513796
      37A     -0.479440    38A     -0.468258    39A     -0.448374

  @DF-RHF Final Energy:  -532.69316447385938

   => Energetics <=

    Nuclear Repulsion Energy =            540.4891539154908742
    One-Electron Energy =               -1801.3735699923927314
    Two-Electron Energy =                 728.1912516030423603
    Total Energy =                       -532.6931644738593832
  Basis Set: (AUG-CC-PVTZ AUX)
    Blend: AUG-CC-PVTZ-RI
    Molecular point group: c1

    Geometry (in Angstrom), charge = 0, multiplicity = 1:

       Center              X                  Y                   Z               Mass
    ------------   -----------------  -----------------  -----------------  -----------------
         O            1.733523654110    -0.280452066868     0.000069415696    15.994914619570
         O           -1.728939345890     0.273492933132     0.000032415696    15.994914619570
         O            0.559964654110     1.675173933132    -0.000156584304    15.994914619570
         O           -0.555376345890    -1.682131066868    -0.000313584304    15.994914619570
         C            2.932546554110     0.540062033132     0.000106415696    12.000000000000
         C           -2.955868345890    -0.504676066868    -0.000026584304    12.000000000000
         C            4.098451654110    -0.495569066868     0.000275415696    12.000000000000
         C           -4.093867345890     0.488611933132     0.000201415696    12.000000000000
         C            0.614402654110     0.457777933132    -0.000065584304    12.000000000000
         C           -0.609816345890    -0.464736066868    -0.000133584304    12.000000000000
         H            2.964730654110     1.140612933132    -0.884197584304     1.007825032230
         H            2.964587654110     1.140741933132     0.884328415696     1.007825032230
         H           -2.960125345890    -1.147489066868    -0.884395584304     1.007825032230
         H           -2.960026345890    -1.147782066868     0.884130415696     1.007825032230
         H            5.053579654110     0.037038933132     0.000311415696     1.007825032230
         H            4.052690654110    -1.130716066868     0.887056415696     1.007825032230
         H            4.052829654110    -1.130847066868    -0.886418584304     1.007825032230
         H           -5.048996345890    -0.043995066868     0.000164415696     1.007825032230
         H           -4.048127345890     1.123676933132     0.887042415696     1.007825032230
         H           -4.048223345890     1.123971933132    -0.886432584304     1.007825032230

  Basis Set: AUG-CC-PVTZ
    Blend: AUG-CC-PVTZ
  Basis Set: (AUG-CC-PVTZ AUX)
    Blend: AUG-CC-PVTZ-JKFIT
	 Reference Energy          =    -532.6931644738593832 [Eh]
	 Singles Energy            =      -0.0000000000000000 [Eh]
	 Same-Spin Energy          =      -0.5154868488632626 [Eh]
	 Opposite-Spin Energy      =      -1.6268275473643783 [Eh]
	 Correlation Energy        =      -2.1423143962276407 [Eh]
	 Total Energy              =    -534.8354788700870586 [Eh]

	 ================> DF-SCS-MP2 Energies <==================
	-----------------------------------------------------------
	 SCS Same-Spin Scale       =       0.3333333333333333 [-]
	 SCS Opposite-Spin Scale   =       1.2000000000000000 [-]
	 SCS Same-Spin Energy      =      -0.1718289496210875 [Eh]
	 SCS Opposite-Spin Energy  =      -1.9521930568372539 [Eh]
	 SCS Correlation Energy    =      -2.1240220064583415 [Eh]
	 SCS Total Energy          =    -534.8171864803176732 [Eh]
	-----------------------------------------------------------

  Dipole Moment: [D]
     X:    -0.0880      Y:     0.0590      Z:     0.0005     Total:     0.1060

*** Psi4 exiting successfully. Buy a developer a beer!
