                               Psi4 1.4a3.dev225

  ==> Input File <==

--------------------------------------------------------------------------
#psi4
#
memory 32 gb

molecule  {
0 1
  O        1.7312310    -0.2769730     0.0000590
  O       -1.7312320     0.2769720     0.0000220
  O        0.5576720     1.6786530    -0.0001670
  O       -0.5576690    -1.6786520    -0.0003240
  C        2.9581590     0.5011960     0.0001010
  C       -2.9581610    -0.5011970    -0.0000370
  C        4.0961590    -0.4920900     0.0002650
  C       -4.0961600     0.4920910     0.0001910
  C        0.6121100     0.4612570    -0.0000760
  C       -0.6121090    -0.4612570    -0.0001440
  H        2.9624380     1.1440920    -0.8842080
  H        2.9622950     1.1442210     0.8843180
  H       -2.9624180    -1.1440100    -0.8844060
  H       -2.9623190    -1.1443030     0.8841200
  H        5.0512870     0.0405180     0.0003010
  H        4.0503980    -1.1272370     0.8870460
  H        4.0484476    -1.1564629    -0.9270384
  H       -5.0512890    -0.0405160     0.0001540
  H       -4.0504200     1.1271560     0.8870320
  H       -4.0505160     1.1274510    -0.8864430
units angstrom
no_reorient  #important for SAPT in psi4, default
symmetry c1  #important for SAPT in psi4, default
}

set PROPERTIES_ORIGIN ["COM"]
properties('MP2/aug-cc-pvtz', properties = ['dipole'])
--------------------------------------------------------------------------

    Molecular point group: c1
  Charge       = 0
  Multiplicity = 1
  Basis Set: AUG-CC-PVTZ
    Blend: AUG-CC-PVTZ
  Basis Set: (AUG-CC-PVTZ AUX)
    Blend: AUG-CC-PVTZ-JKFIT

    Orbital Energies [Eh]
    ---------------------

    Doubly Occupied:

       1A    -20.619601     2A    -20.619513     3A    -20.572140
       4A    -20.572080     5A    -11.408067     6A    -11.407496
       7A    -11.300119     8A    -11.299561     9A    -11.235807
      10A    -11.229891    11A     -1.487488    12A     -1.459311
      13A     -1.382577    14A     -1.366830    15A     -1.061356
      16A     -1.046901    17A     -0.945095    18A     -0.873884
      19A     -0.830496    20A     -0.787285    21A     -0.745089
      22A     -0.703778    23A     -0.702309    24A     -0.683755
      25A     -0.680117    26A     -0.611149    27A     -0.608038
      28A     -0.577298    29A     -0.574396    30A     -0.559978
      31A     -0.548034    32A     -0.524183    33A     -0.523636
      34A     -0.520795    35A     -0.519563    36A     -0.509467
      37A     -0.475704    38A     -0.466092    39A     -0.448224

  @DF-RHF Final Energy:  -532.69366542862292

   => Energetics <=

    Nuclear Repulsion Energy =            540.3116076874350711
    One-Electron Energy =               -1801.0363432372125772
    Two-Electron Energy =                 728.0310701211545847
    Total Energy =                       -532.6936654286229214
  Basis Set: (AUG-CC-PVTZ AUX)
    Blend: AUG-CC-PVTZ-RI
    Molecular point group: c1

    Geometry (in Angstrom), charge = 0, multiplicity = 1:

       Center              X                  Y                   Z               Mass
    ------------   -----------------  -----------------  -----------------  -----------------
         O            1.731245410822    -0.276772267719     0.000349216840    15.994914619570
         O           -1.731217589178     0.277172732281     0.000312216840    15.994914619570
         O            0.557686410822     1.678853732281     0.000123216840    15.994914619570
         O           -0.557654589178    -1.678451267719    -0.000033783160    15.994914619570
         C            2.958173410822     0.501396732281     0.000391216840    12.000000000000
         C           -2.958146589178    -0.500996267719     0.000253216840    12.000000000000
         C            4.096173410822    -0.491889267719     0.000555216840    12.000000000000
         C           -4.096145589178     0.492291732281     0.000481216840    12.000000000000
         C            0.612124410822     0.461457732281     0.000214216840    12.000000000000
         C           -0.612094589178    -0.461056267719     0.000146216840    12.000000000000
         H            2.962452410822     1.144292732281    -0.883917783160     1.007825032230
         H            2.962309410822     1.144421732281     0.884608216840     1.007825032230
         H           -2.962403589178    -1.143809267719    -0.884115783160     1.007825032230
         H           -2.962304589178    -1.144102267719     0.884410216840     1.007825032230
         H            5.051301410822     0.040718732281     0.000591216840     1.007825032230
         H            4.050412410822    -1.127036267719     0.887336216840     1.007825032230
         H            4.048462010822    -1.156262167719    -0.926748183160     1.007825032230
         H           -5.051274589178    -0.040315267719     0.000444216840     1.007825032230
         H           -4.050405589178     1.127356732281     0.887322216840     1.007825032230
         H           -4.050501589178     1.127651732281    -0.886152783160     1.007825032230

  Basis Set: AUG-CC-PVTZ
    Blend: AUG-CC-PVTZ
  Basis Set: (AUG-CC-PVTZ AUX)
    Blend: AUG-CC-PVTZ-JKFIT
	 Reference Energy          =    -532.6936654286229214 [Eh]
	 Singles Energy            =      -0.0000000000000000 [Eh]
	 Same-Spin Energy          =      -0.5156141999966228 [Eh]
	 Opposite-Spin Energy      =      -1.6269814553135844 [Eh]
	 Correlation Energy        =      -2.1425956553102070 [Eh]
	 Total Energy              =    -534.8362610839330955 [Eh]

	 ================> DF-SCS-MP2 Energies <==================
	-----------------------------------------------------------
	 SCS Same-Spin Scale       =       0.3333333333333333 [-]
	 SCS Opposite-Spin Scale   =       1.2000000000000000 [-]
	 SCS Same-Spin Energy      =      -0.1718713999988743 [Eh]
	 SCS Opposite-Spin Energy  =      -1.9523777463763012 [Eh]
	 SCS Correlation Energy    =      -2.1242491463751754 [Eh]
	 SCS Total Energy          =    -534.8179145749980989 [Eh]
	-----------------------------------------------------------

  Dipole Moment: [D]
     X:    -0.0075      Y:     0.0150      Z:     0.0180     Total:     0.0245

*** Psi4 exiting successfully. Buy a developer a beer!
