                               Psi4 1.4a3.dev225

  ==> Input File <==

--------------------------------------------------------------------------
#psi4
#
memory 32 gb

molecule  {
0 1
  O        1.7312310    -0.2769730     0.0000590
  O       -1.7449998     0.2982663     0.0000263
  O        0.5576720     1.6786530    -0.0001670
  O       -0.5576690    -1.6786520    -0.0003240
  C        2.9581590     0.5011960     0.0001010
  C       -2.9581610    -0.5011970    -0.0000370
  C        4.0961590    -0.4920900     0.0002650
  C       -4.0961600     0.4920910     0.0001910
  C        0.6121100     0.4612570    -0.0000760
  C       -0.6121090    -0.4612570    -0.0001440
  H        2.9624380     1.1440920    -0.8842080
  H        2.9622950     1.1442210     0.8843180
  H       -2.9624180    -1.1440100    -0.8844060
  H       -2.9623190    -1.1443030     0.8841200
  H        5.0512870     0.0405180     0.0003010
  H        4.0503980    -1.1272370     0.8870460
  H        4.0505370    -1.1273680    -0.8864290
  H       -5.0512890    -0.0405160     0.0001540
  H       -4.0504200     1.1271560     0.8870320
  H       -4.0505160     1.1274510    -0.8864430
units angstrom
no_reorient  #important for SAPT in psi4, default
symmetry c1  #important for SAPT in psi4, default
}

set PROPERTIES_ORIGIN ["COM"]
properties('MP2/aug-cc-pvtz', properties = ['dipole'])
--------------------------------------------------------------------------

    Molecular point group: c1
  Charge       = 0
  Multiplicity = 1
  Basis Set: AUG-CC-PVTZ
    Blend: AUG-CC-PVTZ
  Basis Set: (AUG-CC-PVTZ AUX)
    Blend: AUG-CC-PVTZ-JKFIT

    Orbital Energies [Eh]
    ---------------------

    Doubly Occupied:

       1A    -20.620231     2A    -20.618892     3A    -20.577191
       4A    -20.572730     5A    -11.410931     6A    -11.408671
       7A    -11.300070     8A    -11.297623     9A    -11.230320
      10A    -11.228128    11A     -1.485115    12A     -1.455538
      13A     -1.383600    14A     -1.367456    15A     -1.060684
      16A     -1.045876    17A     -0.945611    18A     -0.873155
      19A     -0.832165    20A     -0.786756    21A     -0.742249
      22A     -0.705065    23A     -0.701148    24A     -0.682732
      25A     -0.680790    26A     -0.610512    27A     -0.608939
      28A     -0.577189    29A     -0.576535    30A     -0.559455
      31A     -0.546380    32A     -0.524401    33A     -0.523938
      34A     -0.522765    35A     -0.521633    36A     -0.511803
      37A     -0.476426    38A     -0.466837    39A     -0.449046

  @DF-RHF Final Energy:  -532.69302639596458

   => Energetics <=

    Nuclear Repulsion Energy =            539.9667294004053701
    One-Electron Energy =               -1800.3423425938947275
    Two-Electron Energy =                 727.6825867975246638
    Total Energy =                       -532.6930263959645799
  Basis Set: (AUG-CC-PVTZ AUX)
    Blend: AUG-CC-PVTZ-RI
    Molecular point group: c1

    Geometry (in Angstrom), charge = 0, multiplicity = 1:

       Center              X                  Y                   Z               Mass
    ------------   -----------------  -----------------  -----------------  -----------------
         O            1.732738716030    -0.279304982872     0.000068534004    15.994914619570
         O           -1.743492083970     0.295934317128     0.000035834004    15.994914619570
         O            0.559179716030     1.676321017128    -0.000157465996    15.994914619570
         O           -0.556161283970    -1.680983982872    -0.000314465996    15.994914619570
         C            2.959666716030     0.498864017128     0.000110534004    12.000000000000
         C           -2.956653283970    -0.503528982872    -0.000027465996    12.000000000000
         C            4.097666716030    -0.494421982872     0.000274534004    12.000000000000
         C           -4.094652283970     0.489759017128     0.000200534004    12.000000000000
         C            0.613617716030     0.458925017128    -0.000066465996    12.000000000000
         C           -0.610601283970    -0.463588982872    -0.000134465996    12.000000000000
         H            2.963945716030     1.141760017128    -0.884198465996     1.007825032230
         H            2.963802716030     1.141889017128     0.884327534004     1.007825032230
         H           -2.960910283970    -1.146341982872    -0.884396465996     1.007825032230
         H           -2.960811283970    -1.146634982872     0.884129534004     1.007825032230
         H            5.052794716030     0.038186017128     0.000310534004     1.007825032230
         H            4.051905716030    -1.129568982872     0.887055534004     1.007825032230
         H            4.052044716030    -1.129699982872    -0.886419465996     1.007825032230
         H           -5.049781283970    -0.042847982872     0.000163534004     1.007825032230
         H           -4.048912283970     1.124824017128     0.887041534004     1.007825032230
         H           -4.049008283970     1.125119017128    -0.886433465996     1.007825032230

  Basis Set: AUG-CC-PVTZ
    Blend: AUG-CC-PVTZ
  Basis Set: (AUG-CC-PVTZ AUX)
    Blend: AUG-CC-PVTZ-JKFIT
	 Reference Energy          =    -532.6930263959645799 [Eh]
	 Singles Energy            =      -0.0000000000000000 [Eh]
	 Same-Spin Energy          =      -0.5160594594126633 [Eh]
	 Opposite-Spin Energy      =      -1.6278851928843621 [Eh]
	 Correlation Energy        =      -2.1439446522970256 [Eh]
	 Total Energy              =    -534.8369710482616028 [Eh]

	 ================> DF-SCS-MP2 Energies <==================
	-----------------------------------------------------------
	 SCS Same-Spin Scale       =       0.3333333333333333 [-]
	 SCS Opposite-Spin Scale   =       1.2000000000000000 [-]
	 SCS Same-Spin Energy      =      -0.1720198198042211 [Eh]
	 SCS Opposite-Spin Energy  =      -1.9534622314612344 [Eh]
	 SCS Correlation Energy    =      -2.1254820512654553 [Eh]
	 SCS Total Energy          =    -534.8185084472299877 [Eh]
	-----------------------------------------------------------

  Dipole Moment: [D]
     X:     0.1445      Y:    -0.0803      Z:     0.0005     Total:     0.1653

*** Psi4 exiting successfully. Buy a developer a beer!
