                               Psi4 1.4a3.dev225

  ==> Input File <==

--------------------------------------------------------------------------
#psi4
#
memory 32 gb

molecule  {
0 1
  O        1.7312310    -0.2769730     0.0000590
  O       -1.7312320     0.2769720     0.0000220
  O        0.5576720     1.6786530    -0.0001670
  O       -0.5576690    -1.6786520    -0.0003240
  C        2.9581590     0.5011960     0.0001010
  C       -2.9581610    -0.5011970    -0.0000370
  C        4.0961590    -0.4920900     0.0002650
  C       -4.0961600     0.4920910     0.0001910
  C        0.6121100     0.4612570    -0.0000760
  C       -0.6112155    -0.4812370    -0.0001470
  H        2.9624380     1.1440920    -0.8842080
  H        2.9622950     1.1442210     0.8843180
  H       -2.9624180    -1.1440100    -0.8844060
  H       -2.9623190    -1.1443030     0.8841200
  H        5.0512870     0.0405180     0.0003010
  H        4.0503980    -1.1272370     0.8870460
  H        4.0505370    -1.1273680    -0.8864290
  H       -5.0512890    -0.0405160     0.0001540
  H       -4.0504200     1.1271560     0.8870320
  H       -4.0505160     1.1274510    -0.8864430
units angstrom
no_reorient  #important for SAPT in psi4, default
symmetry c1  #important for SAPT in psi4, default
}

set PROPERTIES_ORIGIN ["COM"]
properties('MP2/aug-cc-pvtz', properties = ['dipole'])
--------------------------------------------------------------------------

    Molecular point group: c1
  Charge       = 0
  Multiplicity = 1
  Basis Set: AUG-CC-PVTZ
    Blend: AUG-CC-PVTZ
  Basis Set: (AUG-CC-PVTZ AUX)
    Blend: AUG-CC-PVTZ-JKFIT

    Orbital Energies [Eh]
    ---------------------

    Doubly Occupied:

       1A    -20.619098     2A    -20.616287     3A    -20.575494
       4A    -20.571304     5A    -11.407222     6A    -11.406469
       7A    -11.299289     8A    -11.297945     9A    -11.229862
      10A    -11.228911    11A     -1.487752    12A     -1.459128
      13A     -1.388098    14A     -1.368962    15A     -1.060219
      16A     -1.046258    17A     -0.943070    18A     -0.873832
      19A     -0.830058    20A     -0.786100    21A     -0.743345
      22A     -0.706125    23A     -0.701573    24A     -0.683145
      25A     -0.681937    26A     -0.611055    27A     -0.609922
      28A     -0.578270    29A     -0.576687    30A     -0.559804
      31A     -0.547291    32A     -0.523969    33A     -0.523488
      34A     -0.523099    35A     -0.522648    36A     -0.513413
      37A     -0.476344    38A     -0.466511    39A     -0.446560

  @DF-RHF Final Energy:  -532.69650798372686

   => Energetics <=

    Nuclear Repulsion Energy =            540.5042725170320637
    One-Electron Energy =               -1801.4204728011086445
    Two-Electron Energy =                 728.2196923003498341
    Total Energy =                       -532.6965079837268604
  Basis Set: (AUG-CC-PVTZ AUX)
    Blend: AUG-CC-PVTZ-RI
    Molecular point group: c1

    Geometry (in Angstrom), charge = 0, multiplicity = 1:

       Center              X                  Y                   Z               Mass
    ------------   -----------------  -----------------  -----------------  -----------------
         O            1.731157584359    -0.275331486913     0.000069251378    15.994914619570
         O           -1.731305415641     0.278613513087     0.000032251378    15.994914619570
         O            0.557598584359     1.680294513087    -0.000156748622    15.994914619570
         O           -0.557742415641    -1.677010486913    -0.000313748622    15.994914619570
         C            2.958085584359     0.502837513087     0.000111251378    12.000000000000
         C           -2.958234415641    -0.499555486913    -0.000026748622    12.000000000000
         C            4.096085584359    -0.490448486913     0.000275251378    12.000000000000
         C           -4.096233415641     0.493732513087     0.000201251378    12.000000000000
         C            0.612036584359     0.462898513087    -0.000065748622    12.000000000000
         C           -0.611288915641    -0.479595486913    -0.000136748622    12.000000000000
         H            2.962364584359     1.145733513087    -0.884197748622     1.007825032230
         H            2.962221584359     1.145862513087     0.884328251378     1.007825032230
         H           -2.962491415641    -1.142368486913    -0.884395748622     1.007825032230
         H           -2.962392415641    -1.142661486913     0.884130251378     1.007825032230
         H            5.051213584359     0.042159513087     0.000311251378     1.007825032230
         H            4.050324584359    -1.125595486913     0.887056251378     1.007825032230
         H            4.050463584359    -1.125726486913    -0.886418748622     1.007825032230
         H           -5.051362415641    -0.038874486913     0.000164251378     1.007825032230
         H           -4.050493415641     1.128797513087     0.887042251378     1.007825032230
         H           -4.050589415641     1.129092513087    -0.886432748622     1.007825032230

  Basis Set: AUG-CC-PVTZ
    Blend: AUG-CC-PVTZ
  Basis Set: (AUG-CC-PVTZ AUX)
    Blend: AUG-CC-PVTZ-JKFIT
	 Reference Energy          =    -532.6965079837268604 [Eh]
	 Singles Energy            =      -0.0000000000000000 [Eh]
	 Same-Spin Energy          =      -0.5152997194889841 [Eh]
	 Opposite-Spin Energy      =      -1.6259764799958902 [Eh]
	 Correlation Energy        =      -2.1412761994848744 [Eh]
	 Total Energy              =    -534.8377841832117383 [Eh]

	 ================> DF-SCS-MP2 Energies <==================
	-----------------------------------------------------------
	 SCS Same-Spin Scale       =       0.3333333333333333 [-]
	 SCS Opposite-Spin Scale   =       1.2000000000000000 [-]
	 SCS Same-Spin Energy      =      -0.1717665731629947 [Eh]
	 SCS Opposite-Spin Energy  =      -1.9511717759950682 [Eh]
	 SCS Correlation Energy    =      -2.1229383491580629 [Eh]
	 SCS Total Energy          =    -534.8194463328849224 [Eh]
	-----------------------------------------------------------

  Dipole Moment: [D]
     X:     0.0729      Y:    -0.1081      Z:     0.0005     Total:     0.1304

*** Psi4 exiting successfully. Buy a developer a beer!
