                               Psi4 1.4a3.dev225

  ==> Input File <==

--------------------------------------------------------------------------
#psi4
#
memory 32 gb

molecule  {
0 1
  O        1.7312310    -0.2769730     0.0000590
  O       -1.7312320     0.2769720     0.0000220
  O        0.5576720     1.6786530    -0.0001670
  O       -0.5576690    -1.6786520    -0.0003240
  C        3.0003826     0.5279760     0.0001024
  C       -2.9581610    -0.5011970    -0.0000370
  C        4.0961590    -0.4920900     0.0002650
  C       -4.0961600     0.4920910     0.0001910
  C        0.6121100     0.4612570    -0.0000760
  C       -0.6121090    -0.4612570    -0.0001440
  H        2.9624380     1.1440920    -0.8842080
  H        2.9622950     1.1442210     0.8843180
  H       -2.9624180    -1.1440100    -0.8844060
  H       -2.9623190    -1.1443030     0.8841200
  H        5.0512870     0.0405180     0.0003010
  H        4.0503980    -1.1272370     0.8870460
  H        4.0505370    -1.1273680    -0.8864290
  H       -5.0512890    -0.0405160     0.0001540
  H       -4.0504200     1.1271560     0.8870320
  H       -4.0505160     1.1274510    -0.8864430
units angstrom
no_reorient  #important for SAPT in psi4, default
symmetry c1  #important for SAPT in psi4, default
}

set PROPERTIES_ORIGIN ["COM"]
properties('MP2/aug-cc-pvtz', properties = ['dipole'])
--------------------------------------------------------------------------

    Molecular point group: c1
  Charge       = 0
  Multiplicity = 1
  Basis Set: AUG-CC-PVTZ
    Blend: AUG-CC-PVTZ
  Basis Set: (AUG-CC-PVTZ AUX)
    Blend: AUG-CC-PVTZ-JKFIT

    Orbital Energies [Eh]
    ---------------------

    Doubly Occupied:

       1A    -20.617788     2A    -20.613317     3A    -20.569937
       4A    -20.568168     5A    -11.405442     6A    -11.403965
       7A    -11.301829     8A    -11.298334     9A    -11.231853
      10A    -11.228973    11A     -1.482256    12A     -1.451783
      13A     -1.378575    14A     -1.360701    15A     -1.062629
      16A     -1.049215    17A     -0.943071    18A     -0.874002
      19A     -0.833040    20A     -0.783286    21A     -0.739779
      22A     -0.700691    23A     -0.699771    24A     -0.682835
      25A     -0.676255    26A     -0.611006    27A     -0.606975
      28A     -0.577346    29A     -0.575694    30A     -0.558684
      31A     -0.546210    32A     -0.529318    33A     -0.523832
      34A     -0.522281    35A     -0.517631    36A     -0.512033
      37A     -0.475825    38A     -0.465489    39A     -0.445072

  @DF-RHF Final Energy:  -532.69313448873220

   => Energetics <=

    Nuclear Repulsion Energy =            539.6634574977051670
    One-Electron Energy =               -1799.8634073611760869
    Two-Electron Energy =                 727.5068153747387214
    Total Energy =                       -532.6931344887321984
  Basis Set: (AUG-CC-PVTZ AUX)
    Blend: AUG-CC-PVTZ-RI
    Molecular point group: c1

    Geometry (in Angstrom), charge = 0, multiplicity = 1:

       Center              X                  Y                   Z               Mass
    ------------   -----------------  -----------------  -----------------  -----------------
         O            1.727761936673    -0.279173250804     0.000068889877    15.994914619570
         O           -1.734701063327     0.274771749196     0.000031889877    15.994914619570
         O            0.554202936673     1.676452749196    -0.000157110123    15.994914619570
         O           -0.561138063327    -1.680852250804    -0.000314110123    15.994914619570
         C            2.996913536673     0.525775749196     0.000112289877    12.000000000000
         C           -2.961630063327    -0.503397250804    -0.000027110123    12.000000000000
         C            4.092689936673    -0.494290250804     0.000274889877    12.000000000000
         C           -4.099629063327     0.489890749196     0.000200889877    12.000000000000
         C            0.608640936673     0.459056749196    -0.000066110123    12.000000000000
         C           -0.615578063327    -0.463457250804    -0.000134110123    12.000000000000
         H            2.958968936673     1.141891749196    -0.884198110123     1.007825032230
         H            2.958825936673     1.142020749196     0.884327889877     1.007825032230
         H           -2.965887063327    -1.146210250804    -0.884396110123     1.007825032230
         H           -2.965788063327    -1.146503250804     0.884129889877     1.007825032230
         H            5.047817936673     0.038317749196     0.000310889877     1.007825032230
         H            4.046928936673    -1.129437250804     0.887055889877     1.007825032230
         H            4.047067936673    -1.129568250804    -0.886419110123     1.007825032230
         H           -5.054758063327    -0.042716250804     0.000163889877     1.007825032230
         H           -4.053889063327     1.124955749196     0.887041889877     1.007825032230
         H           -4.053985063327     1.125250749196    -0.886433110123     1.007825032230

  Basis Set: AUG-CC-PVTZ
    Blend: AUG-CC-PVTZ
  Basis Set: (AUG-CC-PVTZ AUX)
    Blend: AUG-CC-PVTZ-JKFIT
	 Reference Energy          =    -532.6931344887321984 [Eh]
	 Singles Energy            =      -0.0000000000000000 [Eh]
	 Same-Spin Energy          =      -0.5157796589431101 [Eh]
	 Opposite-Spin Energy      =      -1.6272383658004324 [Eh]
	 Correlation Energy        =      -2.1430180247435424 [Eh]
	 Total Energy              =    -534.8361525134757812 [Eh]

	 ================> DF-SCS-MP2 Energies <==================
	-----------------------------------------------------------
	 SCS Same-Spin Scale       =       0.3333333333333333 [-]
	 SCS Opposite-Spin Scale   =       1.2000000000000000 [-]
	 SCS Same-Spin Energy      =      -0.1719265529810367 [Eh]
	 SCS Opposite-Spin Energy  =      -1.9526860389605187 [Eh]
	 SCS Correlation Energy    =      -2.1246125919415553 [Eh]
	 SCS Total Energy          =    -534.8177470806737119 [Eh]
	-----------------------------------------------------------

  Dipole Moment: [D]
     X:     0.2363      Y:     0.0306      Z:     0.0005     Total:     0.2383

*** Psi4 exiting successfully. Buy a developer a beer!
