                               Psi4 1.4a3.dev225

  ==> Input File <==

--------------------------------------------------------------------------
#psi4
#
memory 32 gb

molecule  {
0 1
  O        1.7181767    -0.2963919     0.0000587
  O       -1.7312320     0.2769720     0.0000220
  O        0.5576720     1.6786530    -0.0001670
  O       -0.5576690    -1.6786520    -0.0003240
  C        2.9581590     0.5011960     0.0001010
  C       -2.9581610    -0.5011970    -0.0000370
  C        4.0961590    -0.4920900     0.0002650
  C       -4.0961600     0.4920910     0.0001910
  C        0.6121100     0.4612570    -0.0000760
  C       -0.6121090    -0.4612570    -0.0001440
  H        2.9624380     1.1440920    -0.8842080
  H        2.9622950     1.1442210     0.8843180
  H       -2.9624180    -1.1440100    -0.8844060
  H       -2.9623190    -1.1443030     0.8841200
  H        5.0512870     0.0405180     0.0003010
  H        4.0503980    -1.1272370     0.8870460
  H        4.0505370    -1.1273680    -0.8864290
  H       -5.0512890    -0.0405160     0.0001540
  H       -4.0504200     1.1271560     0.8870320
  H       -4.0505160     1.1274510    -0.8864430
units angstrom
no_reorient  #important for SAPT in psi4, default
symmetry c1  #important for SAPT in psi4, default
}

set PROPERTIES_ORIGIN ["COM"]
properties('MP2/aug-cc-pvtz', properties = ['dipole'])
--------------------------------------------------------------------------

    Molecular point group: c1
  Charge       = 0
  Multiplicity = 1
  Basis Set: AUG-CC-PVTZ
    Blend: AUG-CC-PVTZ
  Basis Set: (AUG-CC-PVTZ AUX)
    Blend: AUG-CC-PVTZ-JKFIT

    Orbital Energies [Eh]
    ---------------------

    Doubly Occupied:

       1A    -20.620298     2A    -20.618416     3A    -20.572068
       4A    -20.570769     5A    -11.407106     6A    -11.405848
       7A    -11.302042     8A    -11.298812     9A    -11.230784
      10A    -11.229380    11A     -1.485696    12A     -1.456625
      13A     -1.381761    14A     -1.365234    15A     -1.061168
      16A     -1.047395    17A     -0.944701    18A     -0.873777
      19A     -0.831790    20A     -0.786094    21A     -0.742621
      22A     -0.703152    23A     -0.700920    24A     -0.682380
      25A     -0.679204    26A     -0.609633    27A     -0.609627
      28A     -0.577742    29A     -0.576000    30A     -0.559831
      31A     -0.545912    32A     -0.526752    33A     -0.523063
      34A     -0.522240    35A     -0.520113    36A     -0.511142
      37A     -0.476848    38A     -0.466391    39A     -0.446952

  @DF-RHF Final Energy:  -532.69423865762190

   => Energetics <=

    Nuclear Repulsion Energy =            540.3126223000903110
    One-Electron Energy =               -1801.0731501702603055
    Two-Electron Energy =                 728.0662892125479857
    Total Energy =                       -532.6942386576218951
  Basis Set: (AUG-CC-PVTZ AUX)
    Blend: AUG-CC-PVTZ-RI
    Molecular point group: c1

    Geometry (in Angstrom), charge = 0, multiplicity = 1:

       Center              X                  Y                   Z               Mass
    ------------   -----------------  -----------------  -----------------  -----------------
         O            1.719606280093    -0.294265348834     0.000068737754    15.994914619570
         O           -1.729802419907     0.279098551166     0.000032037754    15.994914619570
         O            0.559101580093     1.680779551166    -0.000156962246    15.994914619570
         O           -0.556239419907    -1.676525448834    -0.000313962246    15.994914619570
         C            2.959588580093     0.503322551166     0.000111037754    12.000000000000
         C           -2.956731419907    -0.499070448834    -0.000026962246    12.000000000000
         C            4.097588580093    -0.489963448834     0.000275037754    12.000000000000
         C           -4.094730419907     0.494217551166     0.000201037754    12.000000000000
         C            0.613539580093     0.463383551166    -0.000065962246    12.000000000000
         C           -0.610679419907    -0.459130448834    -0.000133962246    12.000000000000
         H            2.963867580093     1.146218551166    -0.884197962246     1.007825032230
         H            2.963724580093     1.146347551166     0.884328037754     1.007825032230
         H           -2.960988419907    -1.141883448834    -0.884395962246     1.007825032230
         H           -2.960889419907    -1.142176448834     0.884130037754     1.007825032230
         H            5.052716580093     0.042644551166     0.000311037754     1.007825032230
         H            4.051827580093    -1.125110448834     0.887056037754     1.007825032230
         H            4.051966580093    -1.125241448834    -0.886418962246     1.007825032230
         H           -5.049859419907    -0.038389448834     0.000164037754     1.007825032230
         H           -4.048990419907     1.129282551166     0.887042037754     1.007825032230
         H           -4.049086419907     1.129577551166    -0.886432962246     1.007825032230

  Basis Set: AUG-CC-PVTZ
    Blend: AUG-CC-PVTZ
  Basis Set: (AUG-CC-PVTZ AUX)
    Blend: AUG-CC-PVTZ-JKFIT
	 Reference Energy          =    -532.6942386576218951 [Eh]
	 Singles Energy            =      -0.0000000000000000 [Eh]
	 Same-Spin Energy          =      -0.5158462764688538 [Eh]
	 Opposite-Spin Energy      =      -1.6273465115342027 [Eh]
	 Correlation Energy        =      -2.1431927880030566 [Eh]
	 Total Energy              =    -534.8374314456249294 [Eh]

	 ================> DF-SCS-MP2 Energies <==================
	-----------------------------------------------------------
	 SCS Same-Spin Scale       =       0.3333333333333333 [-]
	 SCS Opposite-Spin Scale   =       1.2000000000000000 [-]
	 SCS Same-Spin Energy      =      -0.1719487588229513 [Eh]
	 SCS Opposite-Spin Energy  =      -1.9528158138410432 [Eh]
	 SCS Correlation Energy    =      -2.1247645726639943 [Eh]
	 SCS Total Energy          =    -534.8190032302859436 [Eh]
	-----------------------------------------------------------

  Dipole Moment: [D]
     X:     0.0964      Y:     0.0396      Z:     0.0005     Total:     0.1043

*** Psi4 exiting successfully. Buy a developer a beer!
