                               Psi4 1.4a3.dev225

  ==> Input File <==

--------------------------------------------------------------------------
#psi4
#
memory 32 gb

molecule  {
0 1
  O        1.7312310    -0.2769730     0.0000590
  O       -1.7312320     0.2769720     0.0000220
  O        0.5576720     1.6786530    -0.0001670
  O       -0.5576690    -1.6786520    -0.0003240
  C        2.9581590     0.5011960     0.0001010
  C       -2.9581610    -0.5011970    -0.0000370
  C        4.0961590    -0.4920900     0.0002650
  C       -4.0961600     0.4920910     0.0001910
  C        0.6130034     0.4412770    -0.0000745
  C       -0.6121090    -0.4612570    -0.0001440
  H        2.9624380     1.1440920    -0.8842080
  H        2.9622950     1.1442210     0.8843180
  H       -2.9624180    -1.1440100    -0.8844060
  H       -2.9623190    -1.1443030     0.8841200
  H        5.0512870     0.0405180     0.0003010
  H        4.0503980    -1.1272370     0.8870460
  H        4.0505370    -1.1273680    -0.8864290
  H       -5.0512890    -0.0405160     0.0001540
  H       -4.0504200     1.1271560     0.8870320
  H       -4.0505160     1.1274510    -0.8864430
units angstrom
no_reorient  #important for SAPT in psi4, default
symmetry c1  #important for SAPT in psi4, default
}

set PROPERTIES_ORIGIN ["COM"]
properties('MP2/aug-cc-pvtz', properties = ['dipole'])
--------------------------------------------------------------------------

    Molecular point group: c1
  Charge       = 0
  Multiplicity = 1
  Basis Set: AUG-CC-PVTZ
    Blend: AUG-CC-PVTZ
  Basis Set: (AUG-CC-PVTZ AUX)
    Blend: AUG-CC-PVTZ-JKFIT

    Orbital Energies [Eh]
    ---------------------

    Doubly Occupied:

       1A    -20.622627     2A    -20.619845     3A    -20.572766
       4A    -20.568588     5A    -11.408888     6A    -11.408111
       7A    -11.301144     8A    -11.299773     9A    -11.230830
      10A    -11.229873    11A     -1.488141    12A     -1.460497
      13A     -1.379065    14A     -1.360703    15A     -1.063659
      16A     -1.048949    17A     -0.948960    18A     -0.877026
      19A     -0.832728    20A     -0.788470    21A     -0.747176
      22A     -0.703443    23A     -0.702142    24A     -0.684940
      25A     -0.677944    26A     -0.611399    27A     -0.609217
      28A     -0.577816    29A     -0.575762    30A     -0.560567
      31A     -0.548595    32A     -0.524788    33A     -0.523678
      34A     -0.522306    35A     -0.517476    36A     -0.509222
      37A     -0.474996    38A     -0.465146    39A     -0.449339

  @DF-RHF Final Energy:  -532.69358586242686

   => Energetics <=

    Nuclear Repulsion Energy =            540.5235271556684893
    One-Electron Energy =               -1801.4410288308761210
    Two-Electron Energy =                 728.2239158127807741
    Total Energy =                       -532.6935858624268576
  Basis Set: (AUG-CC-PVTZ AUX)
    Blend: AUG-CC-PVTZ-RI
    Molecular point group: c1

    Geometry (in Angstrom), charge = 0, multiplicity = 1:

       Center              X                  Y                   Z               Mass
    ------------   -----------------  -----------------  -----------------  -----------------
         O            1.731157592575    -0.275331486913     0.000068881662    15.994914619570
         O           -1.731305407425     0.278613513087     0.000031881662    15.994914619570
         O            0.557598592575     1.680294513087    -0.000157118338    15.994914619570
         O           -0.557742407425    -1.677010486913    -0.000314118338    15.994914619570
         C            2.958085592575     0.502837513087     0.000110881662    12.000000000000
         C           -2.958234407425    -0.499555486913    -0.000027118338    12.000000000000
         C            4.096085592575    -0.490448486913     0.000274881662    12.000000000000
         C           -4.096233407425     0.493732513087     0.000200881662    12.000000000000
         C            0.612929992575     0.442918513087    -0.000064618338    12.000000000000
         C           -0.612182407425    -0.459615486913    -0.000134118338    12.000000000000
         H            2.962364592575     1.145733513087    -0.884198118338     1.007825032230
         H            2.962221592575     1.145862513087     0.884327881662     1.007825032230
         H           -2.962491407425    -1.142368486913    -0.884396118338     1.007825032230
         H           -2.962392407425    -1.142661486913     0.884129881662     1.007825032230
         H            5.051213592575     0.042159513087     0.000310881662     1.007825032230
         H            4.050324592575    -1.125595486913     0.887055881662     1.007825032230
         H            4.050463592575    -1.125726486913    -0.886419118338     1.007825032230
         H           -5.051362407425    -0.038874486913     0.000163881662     1.007825032230
         H           -4.050493407425     1.128797513087     0.887041881662     1.007825032230
         H           -4.050589407425     1.129092513087    -0.886433118338     1.007825032230

  Basis Set: AUG-CC-PVTZ
    Blend: AUG-CC-PVTZ
  Basis Set: (AUG-CC-PVTZ AUX)
    Blend: AUG-CC-PVTZ-JKFIT
	 Reference Energy          =    -532.6935858624268576 [Eh]
	 Singles Energy            =      -0.0000000000000000 [Eh]
	 Same-Spin Energy          =      -0.5159974241726356 [Eh]
	 Opposite-Spin Energy      =      -1.6274180048310773 [Eh]
	 Correlation Energy        =      -2.1434154290037131 [Eh]
	 Total Energy              =    -534.8370012914306244 [Eh]

	 ================> DF-SCS-MP2 Energies <==================
	-----------------------------------------------------------
	 SCS Same-Spin Scale       =       0.3333333333333333 [-]
	 SCS Opposite-Spin Scale   =       1.2000000000000000 [-]
	 SCS Same-Spin Energy      =      -0.1719991413908785 [Eh]
	 SCS Opposite-Spin Energy  =      -1.9529016057972928 [Eh]
	 SCS Correlation Energy    =      -2.1249007471881711 [Eh]
	 SCS Total Energy          =    -534.8184866096149790 [Eh]
	-----------------------------------------------------------

  Dipole Moment: [D]
     X:     0.0729      Y:    -0.1029      Z:     0.0005     Total:     0.1262

*** Psi4 exiting successfully. Buy a developer a beer!
