                               Psi4 1.4a3.dev225

  ==> Input File <==

--------------------------------------------------------------------------
#psi4
#
memory 32 gb

molecule  {
0 1
  O        1.7312310    -0.2769730     0.0000590
  O       -1.7312320     0.2769720     0.0000220
  O        0.5576720     1.6786530    -0.0001670
  O       -0.5576690    -1.6786520    -0.0003240
  C        2.9581590     0.5011960     0.0001010
  C       -2.9581610    -0.5011970    -0.0000370
  C        4.0961590    -0.4920900     0.0002650
  C       -4.0961600     0.4920910     0.0001910
  C        0.6121100     0.4612570    -0.0000760
  C       -0.6121090    -0.4612570    -0.0001440
  H        2.9624380     1.1440920    -0.8842080
  H        2.9622950     1.1442210     0.8843180
  H       -2.9624180    -1.1440100    -0.8844060
  H       -2.9623190    -1.1443030     0.8841200
  H        5.0512870     0.0405180     0.0003010
  H        4.0545896    -1.0690593     0.8058193
  H        4.0505370    -1.1273680    -0.8864290
  H       -5.0512890    -0.0405160     0.0001540
  H       -4.0504200     1.1271560     0.8870320
  H       -4.0505160     1.1274510    -0.8864430
units angstrom
no_reorient  #important for SAPT in psi4, default
symmetry c1  #important for SAPT in psi4, default
}

set PROPERTIES_ORIGIN ["COM"]
properties('MP2/aug-cc-pvtz', properties = ['dipole'])
--------------------------------------------------------------------------

    Molecular point group: c1
  Charge       = 0
  Multiplicity = 1
  Basis Set: AUG-CC-PVTZ
    Blend: AUG-CC-PVTZ
  Basis Set: (AUG-CC-PVTZ AUX)
    Blend: AUG-CC-PVTZ-JKFIT

    Orbital Energies [Eh]
    ---------------------

    Doubly Occupied:

       1A    -20.619440     2A    -20.619322     3A    -20.572012
       4A    -20.571925     5A    -11.407919     6A    -11.407345
       7A    -11.299511     8A    -11.298593     9A    -11.229845
      10A    -11.217623    11A     -1.487322    12A     -1.459139
      13A     -1.382430    14A     -1.366681    15A     -1.063729
      16A     -1.049796    17A     -0.948651    18A     -0.879507
      19A     -0.833432    20A     -0.787272    21A     -0.745256
      22A     -0.703807    23A     -0.702746    24A     -0.684918
      25A     -0.680146    26A     -0.615534    27A     -0.610264
      28A     -0.583430    29A     -0.576396    30A     -0.560453
      31A     -0.547364    32A     -0.529303    33A     -0.523820
      34A     -0.522685    35A     -0.520420    36A     -0.512597
      37A     -0.476014    38A     -0.466213    39A     -0.448090

  @DF-RHF Final Energy:  -532.68943260148410

   => Energetics <=

    Nuclear Repulsion Energy =            540.9429237478401546
    One-Electron Energy =               -1802.2428121814828046
    Two-Electron Energy =                 728.6104558321584364
    Total Energy =                       -532.6894326014840999
  Basis Set: (AUG-CC-PVTZ AUX)
    Blend: AUG-CC-PVTZ-RI
    Molecular point group: c1

    Geometry (in Angstrom), charge = 0, multiplicity = 1:

       Center              X                  Y                   Z               Mass
    ------------   -----------------  -----------------  -----------------  -----------------
         O            1.731202070827    -0.277374463873     0.000629483290    15.994914619570
         O           -1.731260929173     0.276570536127     0.000592483290    15.994914619570
         O            0.557643070827     1.678251536127     0.000403483290    15.994914619570
         O           -0.557697929173    -1.679053463873     0.000246483290    15.994914619570
         C            2.958130070827     0.500794536127     0.000671483290    12.000000000000
         C           -2.958189929173    -0.501598463873     0.000533483290    12.000000000000
         C            4.096130070827    -0.492491463873     0.000835483290    12.000000000000
         C           -4.096188929173     0.491689536127     0.000761483290    12.000000000000
         C            0.612081070827     0.460855536127     0.000494483290    12.000000000000
         C           -0.612137929173    -0.461658463873     0.000426483290    12.000000000000
         H            2.962409070827     1.143690536127    -0.883637516710     1.007825032230
         H            2.962266070827     1.143819536127     0.884888483290     1.007825032230
         H           -2.962446929173    -1.144411463873    -0.883835516710     1.007825032230
         H           -2.962347929173    -1.144704463873     0.884690483290     1.007825032230
         H            5.051258070827     0.040116536127     0.000871483290     1.007825032230
         H            4.054560670827    -1.069460763873     0.806389783290     1.007825032230
         H            4.050508070827    -1.127769463873    -0.885858516710     1.007825032230
         H           -5.051317929173    -0.040917463873     0.000724483290     1.007825032230
         H           -4.050448929173     1.126754536127     0.887602483290     1.007825032230
         H           -4.050544929173     1.127049536127    -0.885872516710     1.007825032230

  Basis Set: AUG-CC-PVTZ
    Blend: AUG-CC-PVTZ
  Basis Set: (AUG-CC-PVTZ AUX)
    Blend: AUG-CC-PVTZ-JKFIT
	 Reference Energy          =    -532.6894326014840999 [Eh]
	 Singles Energy            =      -0.0000000000000000 [Eh]
	 Same-Spin Energy          =      -0.5157091652557509 [Eh]
	 Opposite-Spin Energy      =      -1.6262512880338518 [Eh]
	 Correlation Energy        =      -2.1419604532896028 [Eh]
	 Total Energy              =    -534.8313930547736845 [Eh]

	 ================> DF-SCS-MP2 Energies <==================
	-----------------------------------------------------------
	 SCS Same-Spin Scale       =       0.3333333333333333 [-]
	 SCS Opposite-Spin Scale   =       1.2000000000000000 [-]
	 SCS Same-Spin Energy      =      -0.1719030550852503 [Eh]
	 SCS Opposite-Spin Energy  =      -1.9515015456406219 [Eh]
	 SCS Correlation Energy    =      -2.1234046007258724 [Eh]
	 SCS Total Energy          =    -534.8128372022099484 [Eh]
	-----------------------------------------------------------

  Dipole Moment: [D]
     X:     0.0123      Y:    -0.0233      Z:     0.0278     Total:     0.0383

*** Psi4 exiting successfully. Buy a developer a beer!
