                               Psi4 1.4a3.dev225

  ==> Input File <==

--------------------------------------------------------------------------
#psi4
#
memory 32 gb

molecule  {
0 1
  O        1.6770086    -0.3532406     0.0000576
  O       -1.7312320     0.2769720     0.0000220
  O        0.5576720     1.6786530    -0.0001670
  O       -0.5576690    -1.6786520    -0.0003240
  C        2.9581590     0.5011960     0.0001010
  C       -2.9581610    -0.5011970    -0.0000370
  C        4.0961590    -0.4920900     0.0002650
  C       -4.0961600     0.4920910     0.0001910
  C        0.6121100     0.4612570    -0.0000760
  C       -0.6121090    -0.4612570    -0.0001440
  H        2.9624380     1.1440920    -0.8842080
  H        2.9622950     1.1442210     0.8843180
  H       -2.9624180    -1.1440100    -0.8844060
  H       -2.9623190    -1.1443030     0.8841200
  H        5.0512870     0.0405180     0.0003010
  H        4.0503980    -1.1272370     0.8870460
  H        4.0505370    -1.1273680    -0.8864290
  H       -5.0512890    -0.0405160     0.0001540
  H       -4.0504200     1.1271560     0.8870320
  H       -4.0505160     1.1274510    -0.8864430
units angstrom
no_reorient  #important for SAPT in psi4, default
symmetry c1  #important for SAPT in psi4, default
}

set PROPERTIES_ORIGIN ["COM"]
properties('MP2/aug-cc-pvtz', properties = ['dipole'])
--------------------------------------------------------------------------

    Molecular point group: c1
  Charge       = 0
  Multiplicity = 1
  Basis Set: AUG-CC-PVTZ
    Blend: AUG-CC-PVTZ
  Basis Set: (AUG-CC-PVTZ AUX)
    Blend: AUG-CC-PVTZ-JKFIT

    Orbital Energies [Eh]
    ---------------------

    Doubly Occupied:

       1A    -20.621973     2A    -20.615166     3A    -20.572051
       4A    -20.566798     5A    -11.405239     6A    -11.400461
       7A    -11.309797     8A    -11.296587     9A    -11.233644
      10A    -11.227876    11A     -1.481250    12A     -1.449107
      13A     -1.379707    14A     -1.360607    15A     -1.059544
      16A     -1.046690    17A     -0.940734    18A     -0.869743
      19A     -0.833315    20A     -0.782153    21A     -0.735373
      22A     -0.701300    23A     -0.697008    24A     -0.677728
      25A     -0.676136    26A     -0.610798    27A     -0.605161
      28A     -0.576874    29A     -0.576614    30A     -0.558256
      31A     -0.541477    32A     -0.532602    33A     -0.521678
      34A     -0.520958    35A     -0.517983    36A     -0.510516
      37A     -0.480523    38A     -0.465048    39A     -0.443011

  @DF-RHF Final Energy:  -532.68562567538470

   => Energetics <=

    Nuclear Repulsion Energy =            539.7863530174024618
    One-Electron Energy =               -1800.1409850901884511
    Two-Electron Energy =                 727.6690063974012901
    Total Energy =                       -532.6856256753846992
  Basis Set: (AUG-CC-PVTZ AUX)
    Blend: AUG-CC-PVTZ-RI
    Molecular point group: c1

    Geometry (in Angstrom), charge = 0, multiplicity = 1:

       Center              X                  Y                   Z               Mass
    ------------   -----------------  -----------------  -----------------  -----------------
         O            1.682946530582    -0.344888503705     0.000067758215    15.994914619570
         O           -1.725294069418     0.285324096295     0.000032158215    15.994914619570
         O            0.563609930582     1.687005096295    -0.000156841785    15.994914619570
         O           -0.551731069418    -1.670299903705    -0.000313841785    15.994914619570
         C            2.964096930582     0.509548096295     0.000111158215    12.000000000000
         C           -2.952223069418    -0.492844903705    -0.000026841785    12.000000000000
         C            4.102096930582    -0.483737903705     0.000275158215    12.000000000000
         C           -4.090222069418     0.500443096295     0.000201158215    12.000000000000
         C            0.618047930582     0.469609096295    -0.000065841785    12.000000000000
         C           -0.606171069418    -0.452904903705    -0.000133841785    12.000000000000
         H            2.968375930582     1.152444096295    -0.884197841785     1.007825032230
         H            2.968232930582     1.152573096295     0.884328158215     1.007825032230
         H           -2.956480069418    -1.135657903705    -0.884395841785     1.007825032230
         H           -2.956381069418    -1.135950903705     0.884130158215     1.007825032230
         H            5.057224930582     0.048870096295     0.000311158215     1.007825032230
         H            4.056335930582    -1.118884903705     0.887056158215     1.007825032230
         H            4.056474930582    -1.119015903705    -0.886418841785     1.007825032230
         H           -5.045351069418    -0.032163903705     0.000164158215     1.007825032230
         H           -4.044482069418     1.135508096295     0.887042158215     1.007825032230
         H           -4.044578069418     1.135803096295    -0.886432841785     1.007825032230

  Basis Set: AUG-CC-PVTZ
    Blend: AUG-CC-PVTZ
  Basis Set: (AUG-CC-PVTZ AUX)
    Blend: AUG-CC-PVTZ-JKFIT
	 Reference Energy          =    -532.6856256753846992 [Eh]
	 Singles Energy            =      -0.0000000000000000 [Eh]
	 Same-Spin Energy          =      -0.5166416409181989 [Eh]
	 Opposite-Spin Energy      =      -1.6296647520452712 [Eh]
	 Correlation Energy        =      -2.1463063929634698 [Eh]
	 Total Energy              =    -534.8319320683481237 [Eh]

	 ================> DF-SCS-MP2 Energies <==================
	-----------------------------------------------------------
	 SCS Same-Spin Scale       =       0.3333333333333333 [-]
	 SCS Opposite-Spin Scale   =       1.2000000000000000 [-]
	 SCS Same-Spin Energy      =      -0.1722138803060663 [Eh]
	 SCS Opposite-Spin Energy  =      -1.9555977024543254 [Eh]
	 SCS Correlation Energy    =      -2.1278115827603918 [Eh]
	 SCS Total Energy          =    -534.8134372581450862 [Eh]
	-----------------------------------------------------------

  Dipole Moment: [D]
     X:     0.3820      Y:     0.1482      Z:     0.0005     Total:     0.4098

*** Psi4 exiting successfully. Buy a developer a beer!
