                               Psi4 1.4a3.dev225

  ==> Input File <==

--------------------------------------------------------------------------
#psi4
#
memory 32 gb

molecule  {
0 1
  O        1.7312310    -0.2769730     0.0000590
  O       -1.7312320     0.2769720     0.0000220
  O        0.5576720     1.6786530    -0.0001670
  O       -0.5576690    -1.6786520    -0.0003240
  C        2.9581590     0.5011960     0.0001010
  C       -2.9581610    -0.5011970    -0.0000370
  C        4.0961590    -0.4920900     0.0002650
  C       -4.0961600     0.4920910     0.0001910
  C        0.6121100     0.4612570    -0.0000760
  C       -0.6121090    -0.4612570    -0.0001440
  H        2.9624380     1.1440920    -0.8842080
  H        2.9622950     1.1442210     0.8843180
  H       -2.9624180    -1.1440100    -0.8844060
  H       -2.9623190    -1.1443030     0.8841200
  H        5.0512870     0.0405180     0.0003010
  H        4.0503980    -1.1272370     0.8870460
  H        4.0505370    -1.1273680    -0.8864290
  H       -5.0559283    -0.0318555     0.0165176
  H       -4.0504200     1.1271560     0.8870320
  H       -4.0505160     1.1274510    -0.8864430
units angstrom
no_reorient  #important for SAPT in psi4, default
symmetry c1  #important for SAPT in psi4, default
}

set PROPERTIES_ORIGIN ["COM"]
properties('MP2/aug-cc-pvtz', properties = ['dipole'])
--------------------------------------------------------------------------

    Molecular point group: c1
  Charge       = 0
  Multiplicity = 1
  Basis Set: AUG-CC-PVTZ
    Blend: AUG-CC-PVTZ
  Basis Set: (AUG-CC-PVTZ AUX)
    Blend: AUG-CC-PVTZ-JKFIT

    Orbital Energies [Eh]
    ---------------------

    Doubly Occupied:

       1A    -20.619566     2A    -20.619498     3A    -20.572081
       4A    -20.572067     5A    -11.408039     6A    -11.407470
       7A    -11.299643     8A    -11.299550     9A    -11.229879
      10A    -11.229829    11A     -1.487450    12A     -1.459272
      13A     -1.382541    14A     -1.366794    15A     -1.061803
      16A     -1.047654    17A     -0.946026    18A     -0.875526
      19A     -0.831474    20A     -0.787260    21A     -0.745163
      22A     -0.703752    23A     -0.702449    24A     -0.684061
      25A     -0.680111    26A     -0.611298    27A     -0.609410
      28A     -0.577956    29A     -0.575991    30A     -0.560179
      31A     -0.548065    32A     -0.524072    33A     -0.523438
      34A     -0.522624    35A     -0.520452    36A     -0.511317
      37A     -0.475869    38A     -0.466173    39A     -0.448206

  @DF-RHF Final Energy:  -532.69568693217411

   => Energetics <=

    Nuclear Repulsion Energy =            540.4987629144035282
    One-Electron Energy =               -1801.4008837208002660
    Two-Electron Energy =                 728.2064338742227392
    Total Energy =                       -532.6956869321741124
  Basis Set: (AUG-CC-PVTZ AUX)
    Blend: AUG-CC-PVTZ-RI
    Molecular point group: c1

    Geometry (in Angstrom), charge = 0, multiplicity = 1:

       Center              X                  Y                   Z               Mass
    ------------   -----------------  -----------------  -----------------  -----------------
         O            1.731263005577    -0.277032786560    -0.000043906792    15.994914619570
         O           -1.731199994423     0.276912213440    -0.000080906792    15.994914619570
         O            0.557704005577     1.678593213440    -0.000269906792    15.994914619570
         O           -0.557636994423    -1.678711786560    -0.000426906792    15.994914619570
         C            2.958191005577     0.501136213440    -0.000001906792    12.000000000000
         C           -2.958128994423    -0.501256786560    -0.000139906792    12.000000000000
         C            4.096191005577    -0.492149786560     0.000162093208    12.000000000000
         C           -4.096127994423     0.492031213440     0.000088093208    12.000000000000
         C            0.612142005577     0.461197213440    -0.000178906792    12.000000000000
         C           -0.612076994423    -0.461316786560    -0.000246906792    12.000000000000
         H            2.962470005577     1.144032213440    -0.884310906792     1.007825032230
         H            2.962327005577     1.144161213440     0.884215093208     1.007825032230
         H           -2.962385994423    -1.144069786560    -0.884508906792     1.007825032230
         H           -2.962286994423    -1.144362786560     0.884017093208     1.007825032230
         H            5.051319005577     0.040458213440     0.000198093208     1.007825032230
         H            4.050430005577    -1.127296786560     0.886943093208     1.007825032230
         H            4.050569005577    -1.127427786560    -0.886531906792     1.007825032230
         H           -5.055896294423    -0.031915286560     0.016414693208     1.007825032230
         H           -4.050387994423     1.127096213440     0.886929093208     1.007825032230
         H           -4.050483994423     1.127391213440    -0.886545906792     1.007825032230

  Basis Set: AUG-CC-PVTZ
    Blend: AUG-CC-PVTZ
  Basis Set: (AUG-CC-PVTZ AUX)
    Blend: AUG-CC-PVTZ-JKFIT
	 Reference Energy          =    -532.6956869321741124 [Eh]
	 Singles Energy            =      -0.0000000000000000 [Eh]
	 Same-Spin Energy          =      -0.5156361701400805 [Eh]
	 Opposite-Spin Energy      =      -1.6266673183440918 [Eh]
	 Correlation Energy        =      -2.1423034884841723 [Eh]
	 Total Energy              =    -534.8379904206582296 [Eh]

	 ================> DF-SCS-MP2 Energies <==================
	-----------------------------------------------------------
	 SCS Same-Spin Scale       =       0.3333333333333333 [-]
	 SCS Opposite-Spin Scale   =       1.2000000000000000 [-]
	 SCS Same-Spin Energy      =      -0.1718787233800268 [Eh]
	 SCS Opposite-Spin Energy  =      -1.9520007820129102 [Eh]
	 SCS Correlation Energy    =      -2.1238795053929369 [Eh]
	 SCS Total Energy          =    -534.8195664375670049 [Eh]
	-----------------------------------------------------------

  Dipole Moment: [D]
     X:    -0.0007      Y:     0.0014      Z:     0.0068     Total:     0.0070

*** Psi4 exiting successfully. Buy a developer a beer!
