                               Psi4 1.4a3.dev225

  ==> Input File <==

--------------------------------------------------------------------------
#psi4
#
memory 32 gb

molecule  {
0 1
  O        1.7312310    -0.2769730     0.0000590
  O       -1.7312320     0.2769720     0.0000220
  O        0.5576720     1.6786530    -0.0001670
  O       -0.5576690    -1.6786520    -0.0003240
  C        2.9581590     0.5011960     0.0001010
  C       -2.9581610    -0.5011970    -0.0000370
  C        4.0961590    -0.4920900     0.0002650
  C       -4.0961600     0.4920910     0.0001910
  C        0.6121100     0.4612570    -0.0000760
  C       -0.6121090    -0.4612570    -0.0001440
  H        2.9624380     1.1440920    -0.8842080
  H        2.9622950     1.1442210     0.8843180
  H       -2.9624180    -1.1440100    -0.8844060
  H       -2.9623190    -1.1443030     0.8841200
  H        5.0512870     0.0405180     0.0003010
  H        4.0503980    -1.1272370     0.8870460
  H        4.0505370    -1.1273680    -0.8864290
  H       -5.0512890    -0.0405160     0.0001540
  H       -4.0504200     1.1271560     0.8870320
  H       -4.0463351     1.1856483    -0.9676563
units angstrom
no_reorient  #important for SAPT in psi4, default
symmetry c1  #important for SAPT in psi4, default
}

set PROPERTIES_ORIGIN ["COM"]
properties('MP2/aug-cc-pvtz', properties = ['dipole'])
--------------------------------------------------------------------------

    Molecular point group: c1
  Charge       = 0
  Multiplicity = 1
  Basis Set: AUG-CC-PVTZ
    Blend: AUG-CC-PVTZ
  Basis Set: (AUG-CC-PVTZ AUX)
    Blend: AUG-CC-PVTZ-JKFIT

    Orbital Energies [Eh]
    ---------------------

    Doubly Occupied:

       1A    -20.619748     2A    -20.619552     3A    -20.572250
       4A    -20.572117     5A    -11.408151     6A    -11.407571
       7A    -11.300767     8A    -11.299588     9A    -11.241564
      10A    -11.229914    11A     -1.487575    12A     -1.459401
      13A     -1.382655    14A     -1.366910    15A     -1.061064
      16A     -1.046289    17A     -0.944390    18A     -0.872645
      19A     -0.829724    20A     -0.787340    21A     -0.745110
      22A     -0.703846    23A     -0.702234    24A     -0.683565
      25A     -0.680127    26A     -0.611277    27A     -0.606916
      28A     -0.577501    29A     -0.572251    30A     -0.559774
      31A     -0.548364    32A     -0.524562    33A     -0.523776
      34A     -0.520772    35A     -0.517562    36A     -0.505894
      37A     -0.475467    38A     -0.465985    39A     -0.448290

  @DF-RHF Final Energy:  -532.68925829017053

   => Energetics <=

    Nuclear Repulsion Energy =            540.1255973592735700
    One-Electron Energy =               -1800.6647344337450249
    Two-Electron Energy =                 727.8498787843009268
    Total Energy =                       -532.6892582901705282
  Basis Set: (AUG-CC-PVTZ AUX)
    Blend: AUG-CC-PVTZ-RI
    Molecular point group: c1

    Geometry (in Angstrom), charge = 0, multiplicity = 1:

       Center              X                  Y                   Z               Mass
    ------------   -----------------  -----------------  -----------------  -----------------
         O            1.731202144659    -0.277374599116     0.000629390828    15.994914619570
         O           -1.731260855341     0.276570400884     0.000592390828    15.994914619570
         O            0.557643144659     1.678251400884     0.000403390828    15.994914619570
         O           -0.557697855341    -1.679053599116     0.000246390828    15.994914619570
         C            2.958130144659     0.500794400884     0.000671390828    12.000000000000
         C           -2.958189855341    -0.501598599116     0.000533390828    12.000000000000
         C            4.096130144659    -0.492491599116     0.000835390828    12.000000000000
         C           -4.096188855341     0.491689400884     0.000761390828    12.000000000000
         C            0.612081144659     0.460855400884     0.000494390828    12.000000000000
         C           -0.612137855341    -0.461658599116     0.000426390828    12.000000000000
         H            2.962409144659     1.143690400884    -0.883637609172     1.007825032230
         H            2.962266144659     1.143819400884     0.884888390828     1.007825032230
         H           -2.962446855341    -1.144411599116    -0.883835609172     1.007825032230
         H           -2.962347855341    -1.144704599116     0.884690390828     1.007825032230
         H            5.051258144659     0.040116400884     0.000871390828     1.007825032230
         H            4.050369144659    -1.127638599116     0.887616390828     1.007825032230
         H            4.050508144659    -1.127769599116    -0.885858609172     1.007825032230
         H           -5.051317855341    -0.040917599116     0.000724390828     1.007825032230
         H           -4.050448855341     1.126754400884     0.887602390828     1.007825032230
         H           -4.046363955341     1.185246700884    -0.967085909172     1.007825032230

  Basis Set: AUG-CC-PVTZ
    Blend: AUG-CC-PVTZ
  Basis Set: (AUG-CC-PVTZ AUX)
    Blend: AUG-CC-PVTZ-JKFIT
	 Reference Energy          =    -532.6892582901705282 [Eh]
	 Singles Energy            =      -0.0000000000000000 [Eh]
	 Same-Spin Energy          =      -0.5155936011195487 [Eh]
	 Opposite-Spin Energy      =      -1.6273369925550476 [Eh]
	 Correlation Energy        =      -2.1429305936745964 [Eh]
	 Total Energy              =    -534.8321888838451059 [Eh]

	 ================> DF-SCS-MP2 Energies <==================
	-----------------------------------------------------------
	 SCS Same-Spin Scale       =       0.3333333333333333 [-]
	 SCS Opposite-Spin Scale   =       1.2000000000000000 [-]
	 SCS Same-Spin Energy      =      -0.1718645337065162 [Eh]
	 SCS Opposite-Spin Energy  =      -1.9528043910660571 [Eh]
	 SCS Correlation Energy    =      -2.1246689247725734 [Eh]
	 SCS Total Energy          =    -534.8139272149430781 [Eh]
	-----------------------------------------------------------

  Dipole Moment: [D]
     X:     0.0158      Y:    -0.0320      Z:     0.0379     Total:     0.0521

*** Psi4 exiting successfully. Buy a developer a beer!
