                               Psi4 1.4a3.dev225

  ==> Input File <==

--------------------------------------------------------------------------
#psi4
#
memory 32 gb

molecule  {
0 1
  O        1.7312310    -0.2769730     0.0000590
  O       -1.7312320     0.2769720     0.0000220
  O        0.5576720     1.6786530    -0.0001670
  O       -0.5576690    -1.6786520    -0.0003240
  C        2.9581590     0.5011960     0.0001010
  C       -2.9581610    -0.5011970    -0.0000370
  C        4.0961590    -0.4920900     0.0002650
  C       -4.0961600     0.4920910     0.0001910
  C        0.6121100     0.4612570    -0.0000760
  C       -0.6121090    -0.4612570    -0.0001440
  H        2.9624380     1.1440920    -0.8842080
  H        2.9622950     1.1442210     0.8843180
  H       -2.9624180    -1.1440100    -0.8844060
  H       -2.9623190    -1.1443030     0.8841200
  H        5.0512870     0.0405180     0.0003010
  H        4.0503980    -1.1272370     0.8870460
  H        4.0547159    -1.0691782    -0.8052102
  H       -5.0512890    -0.0405160     0.0001540
  H       -4.0504200     1.1271560     0.8870320
  H       -4.0505160     1.1274510    -0.8864430
units angstrom
no_reorient  #important for SAPT in psi4, default
symmetry c1  #important for SAPT in psi4, default
}

set PROPERTIES_ORIGIN ["COM"]
properties('MP2/aug-cc-pvtz', properties = ['dipole'])
--------------------------------------------------------------------------

    Molecular point group: c1
  Charge       = 0
  Multiplicity = 1
  Basis Set: AUG-CC-PVTZ
    Blend: AUG-CC-PVTZ
  Basis Set: (AUG-CC-PVTZ AUX)
    Blend: AUG-CC-PVTZ-JKFIT

    Orbital Energies [Eh]
    ---------------------

    Doubly Occupied:

       1A    -20.619440     2A    -20.619322     3A    -20.572012
       4A    -20.571925     5A    -11.407919     6A    -11.407345
       7A    -11.299511     8A    -11.298593     9A    -11.229845
      10A    -11.217623    11A     -1.487322    12A     -1.459139
      13A     -1.382430    14A     -1.366681    15A     -1.063729
      16A     -1.049796    17A     -0.948651    18A     -0.879507
      19A     -0.833432    20A     -0.787272    21A     -0.745256
      22A     -0.703807    23A     -0.702747    24A     -0.684918
      25A     -0.680146    26A     -0.615533    27A     -0.610264
      28A     -0.583430    29A     -0.576397    30A     -0.560454
      31A     -0.547364    32A     -0.529301    33A     -0.523820
      34A     -0.522687    35A     -0.520420    36A     -0.512597
      37A     -0.476014    38A     -0.466213    39A     -0.448090

  @DF-RHF Final Energy:  -532.68943254587725

   => Energetics <=

    Nuclear Repulsion Energy =            540.9429240931093545
    One-Electron Energy =               -1802.2428120681013297
    Two-Electron Energy =                 728.6104554291148361
    Total Energy =                       -532.6894325458772528
  Basis Set: (AUG-CC-PVTZ AUX)
    Blend: AUG-CC-PVTZ-RI
    Molecular point group: c1

    Geometry (in Angstrom), charge = 0, multiplicity = 1:

       Center              X                  Y                   Z               Mass
    ------------   -----------------  -----------------  -----------------  -----------------
         O            1.731202158460    -0.277374547365    -0.000491418978    15.994914619570
         O           -1.731260841540     0.276570452635    -0.000528418978    15.994914619570
         O            0.557643158460     1.678251452635    -0.000717418978    15.994914619570
         O           -0.557697841540    -1.679053547365    -0.000874418978    15.994914619570
         C            2.958130158460     0.500794452635    -0.000449418978    12.000000000000
         C           -2.958189841540    -0.501598547365    -0.000587418978    12.000000000000
         C            4.096130158460    -0.492491547365    -0.000285418978    12.000000000000
         C           -4.096188841540     0.491689452635    -0.000359418978    12.000000000000
         C            0.612081158460     0.460855452635    -0.000626418978    12.000000000000
         C           -0.612137841540    -0.461658547365    -0.000694418978    12.000000000000
         H            2.962409158460     1.143690452635    -0.884758418978     1.007825032230
         H            2.962266158460     1.143819452635     0.883767581022     1.007825032230
         H           -2.962446841540    -1.144411547365    -0.884956418978     1.007825032230
         H           -2.962347841540    -1.144704547365     0.883569581022     1.007825032230
         H            5.051258158460     0.040116452635    -0.000249418978     1.007825032230
         H            4.050369158460    -1.127638547365     0.886495581022     1.007825032230
         H            4.054687058460    -1.069579747365    -0.805760618978     1.007825032230
         H           -5.051317841540    -0.040917547365    -0.000396418978     1.007825032230
         H           -4.050448841540     1.126754452635     0.886481581022     1.007825032230
         H           -4.050544841540     1.127049452635    -0.886993418978     1.007825032230

  Basis Set: AUG-CC-PVTZ
    Blend: AUG-CC-PVTZ
  Basis Set: (AUG-CC-PVTZ AUX)
    Blend: AUG-CC-PVTZ-JKFIT
	 Reference Energy          =    -532.6894325458772528 [Eh]
	 Singles Energy            =      -0.0000000000000000 [Eh]
	 Same-Spin Energy          =      -0.5157091619793396 [Eh]
	 Opposite-Spin Energy      =      -1.6262512847821871 [Eh]
	 Correlation Energy        =      -2.1419604467615265 [Eh]
	 Total Energy              =    -534.8313929926388255 [Eh]

	 ================> DF-SCS-MP2 Energies <==================
	-----------------------------------------------------------
	 SCS Same-Spin Scale       =       0.3333333333333333 [-]
	 SCS Opposite-Spin Scale   =       1.2000000000000000 [-]
	 SCS Same-Spin Energy      =      -0.1719030539931132 [Eh]
	 SCS Opposite-Spin Energy  =      -1.9515015417386243 [Eh]
	 SCS Correlation Energy    =      -2.1234045957317376 [Eh]
	 SCS Total Energy          =    -534.8128371416089522 [Eh]
	-----------------------------------------------------------

  Dipole Moment: [D]
     X:     0.0123      Y:    -0.0233      Z:    -0.0268     Total:     0.0376

*** Psi4 exiting successfully. Buy a developer a beer!
