                               Psi4 1.4a3.dev225

  ==> Input File <==

--------------------------------------------------------------------------
#psi4
#
memory 32 gb

molecule  {
0 1
  O        1.7312310    -0.2769730     0.0000590
  O       -1.7591371     0.3193172     0.0000306
  O        0.5576720     1.6786530    -0.0001670
  O       -0.5576690    -1.6786520    -0.0003240
  C        2.9581590     0.5011960     0.0001010
  C       -2.9581610    -0.5011970    -0.0000370
  C        4.0961590    -0.4920900     0.0002650
  C       -4.0961600     0.4920910     0.0001910
  C        0.6121100     0.4612570    -0.0000760
  C       -0.6121090    -0.4612570    -0.0001440
  H        2.9624380     1.1440920    -0.8842080
  H        2.9622950     1.1442210     0.8843180
  H       -2.9624180    -1.1440100    -0.8844060
  H       -2.9623190    -1.1443030     0.8841200
  H        5.0512870     0.0405180     0.0003010
  H        4.0503980    -1.1272370     0.8870460
  H        4.0505370    -1.1273680    -0.8864290
  H       -5.0512890    -0.0405160     0.0001540
  H       -4.0504200     1.1271560     0.8870320
  H       -4.0505160     1.1274510    -0.8864430
units angstrom
no_reorient  #important for SAPT in psi4, default
symmetry c1  #important for SAPT in psi4, default
}

set PROPERTIES_ORIGIN ["COM"]
properties('MP2/aug-cc-pvtz', properties = ['dipole'])
--------------------------------------------------------------------------

    Molecular point group: c1
  Charge       = 0
  Multiplicity = 1
  Basis Set: AUG-CC-PVTZ
    Blend: AUG-CC-PVTZ
  Basis Set: (AUG-CC-PVTZ AUX)
    Blend: AUG-CC-PVTZ-JKFIT

    Orbital Energies [Eh]
    ---------------------

    Doubly Occupied:

       1A    -20.620977     2A    -20.618247     3A    -20.582149
       4A    -20.573427     5A    -11.413960     6A    -11.409678
       7A    -11.300597     8A    -11.295791     9A    -11.230764
      10A    -11.226421    11A     -1.483875    12A     -1.451733
      13A     -1.384341    14A     -1.367831    15A     -1.060067
      16A     -1.043589    17A     -0.945364    18A     -0.870995
      19A     -0.832932    20A     -0.786420    21A     -0.739316
      22A     -0.706383    23A     -0.700341    24A     -0.681408
      25A     -0.681167    26A     -0.609711    27A     -0.608672
      28A     -0.578084    29A     -0.575213    30A     -0.559074
      31A     -0.545109    32A     -0.525107    33A     -0.523848
      34A     -0.522872    35A     -0.522104    36A     -0.512388
      37A     -0.476851    38A     -0.467393    39A     -0.449720

  @DF-RHF Final Energy:  -532.68940394025879

   => Energetics <=

    Nuclear Repulsion Energy =            539.4317252289096132
    One-Electron Energy =               -1799.2744213243954619
    Two-Electron Energy =                 727.1532921552269499
    Total Energy =                       -532.6894039402587850
  Basis Set: (AUG-CC-PVTZ AUX)
    Blend: AUG-CC-PVTZ-RI
    Molecular point group: c1

    Geometry (in Angstrom), charge = 0, multiplicity = 1:

       Center              X                  Y                   Z               Mass
    ------------   -----------------  -----------------  -----------------  -----------------
         O            1.734286902693    -0.281610283222     0.000068063108    15.994914619570
         O           -1.756081197307     0.314679916778     0.000039663108    15.994914619570
         O            0.560727902693     1.674015716778    -0.000157936892    15.994914619570
         O           -0.554613097307    -1.683289283222    -0.000314936892    15.994914619570
         C            2.961214902693     0.496558716778     0.000110063108    12.000000000000
         C           -2.955105097307    -0.505834283222    -0.000027936892    12.000000000000
         C            4.099214902693    -0.496727283222     0.000274063108    12.000000000000
         C           -4.093104097307     0.487453716778     0.000200063108    12.000000000000
         C            0.615165902693     0.456619716778    -0.000066936892    12.000000000000
         C           -0.609053097307    -0.465894283222    -0.000134936892    12.000000000000
         H            2.965493902693     1.139454716778    -0.884198936892     1.007825032230
         H            2.965350902693     1.139583716778     0.884327063108     1.007825032230
         H           -2.959362097307    -1.148647283222    -0.884396936892     1.007825032230
         H           -2.959263097307    -1.148940283222     0.884129063108     1.007825032230
         H            5.054342902693     0.035880716778     0.000310063108     1.007825032230
         H            4.053453902693    -1.131874283222     0.887055063108     1.007825032230
         H            4.053592902693    -1.132005283222    -0.886419936892     1.007825032230
         H           -5.048233097307    -0.045153283222     0.000163063108     1.007825032230
         H           -4.047364097307     1.122518716778     0.887041063108     1.007825032230
         H           -4.047460097307     1.122813716778    -0.886433936892     1.007825032230

  Basis Set: AUG-CC-PVTZ
    Blend: AUG-CC-PVTZ
  Basis Set: (AUG-CC-PVTZ AUX)
    Blend: AUG-CC-PVTZ-JKFIT
	 Reference Energy          =    -532.6894039402587850 [Eh]
	 Singles Energy            =      -0.0000000000000000 [Eh]
	 Same-Spin Energy          =      -0.5165028152141431 [Eh]
	 Opposite-Spin Energy      =      -1.6291417536062132 [Eh]
	 Correlation Energy        =      -2.1456445688203560 [Eh]
	 Total Energy              =    -534.8350485090791153 [Eh]

	 ================> DF-SCS-MP2 Energies <==================
	-----------------------------------------------------------
	 SCS Same-Spin Scale       =       0.3333333333333333 [-]
	 SCS Opposite-Spin Scale   =       1.2000000000000000 [-]
	 SCS Same-Spin Energy      =      -0.1721676050713810 [Eh]
	 SCS Opposite-Spin Energy  =      -1.9549701043274557 [Eh]
	 SCS Correlation Energy    =      -2.1271377093988368 [Eh]
	 SCS Total Energy          =    -534.8165416496576654 [Eh]
	-----------------------------------------------------------

  Dipole Moment: [D]
     X:     0.2898      Y:    -0.1587      Z:     0.0004     Total:     0.3304

*** Psi4 exiting successfully. Buy a developer a beer!
