                               Psi4 1.4a3.dev225

  ==> Input File <==

--------------------------------------------------------------------------
#psi4
#
memory 32 gb

molecule  {
0 1
  O        1.7312310    -0.2769730     0.0000590
  O       -1.7312320     0.2769720     0.0000220
  O        0.5576720     1.6786530    -0.0001670
  O       -0.5576690    -1.6786520    -0.0003240
  C        2.9581590     0.5011960     0.0001010
  C       -2.9581610    -0.5011970    -0.0000370
  C        4.0961590    -0.4920900     0.0002650
  C       -4.0961600     0.4920910     0.0001910
  C        0.6121100     0.4612570    -0.0000760
  C       -0.6121090    -0.4612570    -0.0001440
  H        2.9624380     1.1440920    -0.8842080
  H        2.9622950     1.1442210     0.8843180
  H       -2.9624180    -1.1440100    -0.8844060
  H       -2.9623190    -1.1443030     0.8841200
  H        5.0512870     0.0405180     0.0003010
  H        4.0572935    -1.0313022     0.9487512
  H        4.0505370    -1.1273680    -0.8864290
  H       -5.0512890    -0.0405160     0.0001540
  H       -4.0504200     1.1271560     0.8870320
  H       -4.0505160     1.1274510    -0.8864430
units angstrom
no_reorient  #important for SAPT in psi4, default
symmetry c1  #important for SAPT in psi4, default
}

set PROPERTIES_ORIGIN ["COM"]
properties('MP2/aug-cc-pvtz', properties = ['dipole'])
--------------------------------------------------------------------------

    Molecular point group: c1
  Charge       = 0
  Multiplicity = 1
  Basis Set: AUG-CC-PVTZ
    Blend: AUG-CC-PVTZ
  Basis Set: (AUG-CC-PVTZ AUX)
    Blend: AUG-CC-PVTZ-JKFIT

    Orbital Energies [Eh]
    ---------------------

    Doubly Occupied:

       1A    -20.619400     2A    -20.619294     3A    -20.571945
       4A    -20.571905     5A    -11.407885     6A    -11.407316
       7A    -11.299481     8A    -11.298765     9A    -11.230256
      10A    -11.229829    11A     -1.487295    12A     -1.459115
      13A     -1.382391    14A     -1.366646    15A     -1.062093
      16A     -1.048068    17A     -0.946074    18A     -0.874962
      19A     -0.830582    20A     -0.786928    21A     -0.744987
      22A     -0.703537    23A     -0.702801    24A     -0.684821
      25A     -0.679819    26A     -0.611979    27A     -0.609982
      28A     -0.580805    29A     -0.574017    30A     -0.558921
      31A     -0.547679    32A     -0.526154    33A     -0.523779
      34A     -0.520694    35A     -0.517754    36A     -0.512084
      37A     -0.475877    38A     -0.466112    39A     -0.448028

  @DF-RHF Final Energy:  -532.69436856315599

   => Energetics <=

    Nuclear Repulsion Energy =            540.5480226364600185
    One-Electron Energy =               -1801.5046628208924631
    Two-Electron Energy =                 728.2622716212764544
    Total Energy =                       -532.6943685631559902
  Basis Set: (AUG-CC-PVTZ AUX)
    Blend: AUG-CC-PVTZ-RI
    Molecular point group: c1

    Geometry (in Angstrom), charge = 0, multiplicity = 1:

       Center              X                  Y                   Z               Mass
    ------------   -----------------  -----------------  -----------------  -----------------
         O            1.731183413446    -0.277634994445    -0.000356771736    15.994914619570
         O           -1.731279586554     0.276310005555    -0.000393771736    15.994914619570
         O            0.557624413446     1.677991005555    -0.000582771736    15.994914619570
         O           -0.557716586554    -1.679313994445    -0.000739771736    15.994914619570
         C            2.958111413446     0.500534005555    -0.000314771736    12.000000000000
         C           -2.958208586554    -0.501858994445    -0.000452771736    12.000000000000
         C            4.096111413446    -0.492751994445    -0.000150771736    12.000000000000
         C           -4.096207586554     0.491429005555    -0.000224771736    12.000000000000
         C            0.612062413446     0.460595005555    -0.000491771736    12.000000000000
         C           -0.612156586554    -0.461918994445    -0.000559771736    12.000000000000
         H            2.962390413446     1.143430005555    -0.884623771736     1.007825032230
         H            2.962247413446     1.143559005555     0.883902228264     1.007825032230
         H           -2.962465586554    -1.144671994445    -0.884821771736     1.007825032230
         H           -2.962366586554    -1.144964994445     0.883704228264     1.007825032230
         H            5.051239413446     0.039856005555    -0.000114771736     1.007825032230
         H            4.057245913446    -1.031964194445     0.948335428264     1.007825032230
         H            4.050489413446    -1.128029994445    -0.886844771736     1.007825032230
         H           -5.051336586554    -0.041177994445    -0.000261771736     1.007825032230
         H           -4.050467586554     1.126494005555     0.886616228264     1.007825032230
         H           -4.050563586554     1.126789005555    -0.886858771736     1.007825032230

  Basis Set: AUG-CC-PVTZ
    Blend: AUG-CC-PVTZ
  Basis Set: (AUG-CC-PVTZ AUX)
    Blend: AUG-CC-PVTZ-JKFIT
	 Reference Energy          =    -532.6943685631559902 [Eh]
	 Singles Energy            =      -0.0000000000000000 [Eh]
	 Same-Spin Energy          =      -0.5157184058624028 [Eh]
	 Opposite-Spin Energy      =      -1.6268246940325441 [Eh]
	 Correlation Energy        =      -2.1425430998949468 [Eh]
	 Total Energy              =    -534.8369116630509552 [Eh]

	 ================> DF-SCS-MP2 Energies <==================
	-----------------------------------------------------------
	 SCS Same-Spin Scale       =       0.3333333333333333 [-]
	 SCS Opposite-Spin Scale   =       1.2000000000000000 [-]
	 SCS Same-Spin Energy      =      -0.1719061352874676 [Eh]
	 SCS Opposite-Spin Energy  =      -1.9521896328390529 [Eh]
	 SCS Correlation Energy    =      -2.1240957681265207 [Eh]
	 SCS Total Energy          =    -534.8184643312824846 [Eh]
	-----------------------------------------------------------

  Dipole Moment: [D]
     X:     0.0208      Y:     0.0265      Z:     0.0111     Total:     0.0355

*** Psi4 exiting successfully. Buy a developer a beer!
