                               Psi4 1.4a3.dev225

  ==> Input File <==

--------------------------------------------------------------------------
#psi4
#
memory 32 gb

molecule  {
0 1
  O        1.7312310    -0.2769730     0.0000590
  O       -1.7312320     0.2769720     0.0000220
  O        0.5576720     1.6786530    -0.0001670
  O       -0.5576690    -1.6786520    -0.0003240
  C        2.9581590     0.5011960     0.0001010
  C       -2.9581610    -0.5011970    -0.0000370
  C        4.0961590    -0.4920900     0.0002650
  C       -4.1112277     0.5052426     0.0001940
  C        0.6121100     0.4612570    -0.0000760
  C       -0.6121090    -0.4612570    -0.0001440
  H        2.9624380     1.1440920    -0.8842080
  H        2.9622950     1.1442210     0.8843180
  H       -2.9624180    -1.1440100    -0.8844060
  H       -2.9623190    -1.1443030     0.8841200
  H        5.0512870     0.0405180     0.0003010
  H        4.0503980    -1.1272370     0.8870460
  H        4.0505370    -1.1273680    -0.8864290
  H       -5.0512890    -0.0405160     0.0001540
  H       -4.0504200     1.1271560     0.8870320
  H       -4.0505160     1.1274510    -0.8864430
units angstrom
no_reorient  #important for SAPT in psi4, default
symmetry c1  #important for SAPT in psi4, default
}

set PROPERTIES_ORIGIN ["COM"]
properties('MP2/aug-cc-pvtz', properties = ['dipole'])
--------------------------------------------------------------------------

    Molecular point group: c1
  Charge       = 0
  Multiplicity = 1
  Basis Set: AUG-CC-PVTZ
    Blend: AUG-CC-PVTZ
  Basis Set: (AUG-CC-PVTZ AUX)
    Blend: AUG-CC-PVTZ-JKFIT

    Orbital Energies [Eh]
    ---------------------

    Doubly Occupied:

       1A    -20.619463     2A    -20.619452     3A    -20.572025
       4A    -20.571983     5A    -11.407959     6A    -11.407389
       7A    -11.300207     8A    -11.299527     9A    -11.229862
      10A    -11.229346    11A     -1.487323    12A     -1.459118
      13A     -1.382429    14A     -1.366648    15A     -1.060490
      16A     -1.045748    17A     -0.946134    18A     -0.876321
      19A     -0.831608    20A     -0.786939    21A     -0.744926
      22A     -0.703638    23A     -0.702146    24A     -0.683637
      25A     -0.679949    26A     -0.610529    27A     -0.609472
      28A     -0.578567    29A     -0.576878    30A     -0.561084
      31A     -0.547270    32A     -0.524468    33A     -0.523801
      34A     -0.520714    35A     -0.519903    36A     -0.512268
      37A     -0.475995    38A     -0.466220    39A     -0.448134

  @DF-RHF Final Energy:  -532.69551353121278

   => Energetics <=

    Nuclear Repulsion Energy =            540.1951615169938350
    One-Electron Energy =               -1800.8022109625451321
    Two-Electron Energy =                 727.9115359143384012
    Total Energy =                       -532.6955135312127823
  Basis Set: (AUG-CC-PVTZ AUX)
    Blend: AUG-CC-PVTZ-RI
    Molecular point group: c1

    Geometry (in Angstrom), charge = 0, multiplicity = 1:

       Center              X                  Y                   Z               Mass
    ------------   -----------------  -----------------  -----------------  -----------------
         O            1.732468943679    -0.278053552451     0.000068758423    15.994914619570
         O           -1.729994056321     0.275891447549     0.000031758423    15.994914619570
         O            0.558909943679     1.677572447549    -0.000157241577    15.994914619570
         O           -0.556431056321    -1.679732552451    -0.000314241577    15.994914619570
         C            2.959396943679     0.500115447549     0.000110758423    12.000000000000
         C           -2.956923056321    -0.502277552451    -0.000027241577    12.000000000000
         C            4.097396943679    -0.493170552451     0.000274758423    12.000000000000
         C           -4.109989756321     0.504162047549     0.000203758423    12.000000000000
         C            0.613347943679     0.460176447549    -0.000066241577    12.000000000000
         C           -0.610871056321    -0.462337552451    -0.000134241577    12.000000000000
         H            2.963675943679     1.143011447549    -0.884198241577     1.007825032230
         H            2.963532943679     1.143140447549     0.884327758423     1.007825032230
         H           -2.961180056321    -1.145090552451    -0.884396241577     1.007825032230
         H           -2.961081056321    -1.145383552451     0.884129758423     1.007825032230
         H            5.052524943679     0.039437447549     0.000310758423     1.007825032230
         H            4.051635943679    -1.128317552451     0.887055758423     1.007825032230
         H            4.051774943679    -1.128448552451    -0.886419241577     1.007825032230
         H           -5.050051056321    -0.041596552451     0.000163758423     1.007825032230
         H           -4.049182056321     1.126075447549     0.887041758423     1.007825032230
         H           -4.049278056321     1.126370447549    -0.886433241577     1.007825032230

  Basis Set: AUG-CC-PVTZ
    Blend: AUG-CC-PVTZ
  Basis Set: (AUG-CC-PVTZ AUX)
    Blend: AUG-CC-PVTZ-JKFIT
	 Reference Energy          =    -532.6955135312127823 [Eh]
	 Singles Energy            =      -0.0000000000000000 [Eh]
	 Same-Spin Energy          =      -0.5155216058600723 [Eh]
	 Opposite-Spin Energy      =      -1.6266024217000619 [Eh]
	 Correlation Energy        =      -2.1421240275601341 [Eh]
	 Total Energy              =    -534.8376375587729399 [Eh]

	 ================> DF-SCS-MP2 Energies <==================
	-----------------------------------------------------------
	 SCS Same-Spin Scale       =       0.3333333333333333 [-]
	 SCS Opposite-Spin Scale   =       1.2000000000000000 [-]
	 SCS Same-Spin Energy      =      -0.1718405352866908 [Eh]
	 SCS Opposite-Spin Energy  =      -1.9519229060400742 [Eh]
	 SCS Correlation Energy    =      -2.1237634413267652 [Eh]
	 SCS Total Energy          =    -534.8192769725395692 [Eh]
	-----------------------------------------------------------

  Dipole Moment: [D]
     X:     0.0059      Y:    -0.0015      Z:     0.0005     Total:     0.0061

*** Psi4 exiting successfully. Buy a developer a beer!
