                               Psi4 1.4a3.dev225

  ==> Input File <==

--------------------------------------------------------------------------
#psi4
#
memory 32 gb

molecule  {
0 1
  O        1.7312310    -0.2769730     0.0000590
  O       -1.7312320     0.2769720     0.0000220
  O        0.5576720     1.6786530    -0.0001670
  O       -0.5576690    -1.6786520    -0.0003240
  C        2.9581590     0.5011960     0.0001010
  C       -2.9581610    -0.5011970    -0.0000370
  C        4.0961590    -0.4920900     0.0002650
  C       -4.0961600     0.4920910     0.0001910
  C        0.6031756     0.6610573    -0.0000909
  C       -0.6121090    -0.4612570    -0.0001440
  H        2.9624380     1.1440920    -0.8842080
  H        2.9622950     1.1442210     0.8843180
  H       -2.9624180    -1.1440100    -0.8844060
  H       -2.9623190    -1.1443030     0.8841200
  H        5.0512870     0.0405180     0.0003010
  H        4.0503980    -1.1272370     0.8870460
  H        4.0505370    -1.1273680    -0.8864290
  H       -5.0512890    -0.0405160     0.0001540
  H       -4.0504200     1.1271560     0.8870320
  H       -4.0505160     1.1274510    -0.8864430
units angstrom
no_reorient  #important for SAPT in psi4, default
symmetry c1  #important for SAPT in psi4, default
}

set PROPERTIES_ORIGIN ["COM"]
properties('MP2/aug-cc-pvtz', properties = ['dipole'])
--------------------------------------------------------------------------

    Molecular point group: c1
  Charge       = 0
  Multiplicity = 1
  Basis Set: AUG-CC-PVTZ
    Blend: AUG-CC-PVTZ
  Basis Set: (AUG-CC-PVTZ AUX)
    Blend: AUG-CC-PVTZ-JKFIT

    Orbital Energies [Eh]
    ---------------------

    Doubly Occupied:

       1A    -20.614785     2A    -20.607645     3A    -20.584564
       4A    -20.563143     5A    -11.398132     6A    -11.392819
       7A    -11.296303     8A    -11.284026     9A    -11.229446
      10A    -11.219977    11A     -1.593357    12A     -1.465343
      13A     -1.376697    14A     -1.360054    15A     -1.052328
      16A     -1.027347    17A     -0.918795    18A     -0.858520
      19A     -0.818794    20A     -0.784119    21A     -0.752361
      22A     -0.748507    23A     -0.714643    24A     -0.682906
      25A     -0.681185    26A     -0.639117    27A     -0.612374
      28A     -0.586566    29A     -0.575228    30A     -0.560883
      31A     -0.553385    32A     -0.531255    33A     -0.523994
      34A     -0.515211    35A     -0.514691    36A     -0.512433
      37A     -0.469518    38A     -0.458571    39A     -0.415975

  @DF-RHF Final Energy:  -532.61444577660893

   => Energetics <=

    Nuclear Repulsion Energy =            541.0626367781529780
    One-Electron Energy =               -1802.3641729874798330
    Two-Electron Energy =                 728.6870904327180369
    Total Energy =                       -532.6144457766089317
  Basis Set: (AUG-CC-PVTZ AUX)
    Blend: AUG-CC-PVTZ-RI
    Molecular point group: c1

    Geometry (in Angstrom), charge = 0, multiplicity = 1:

       Center              X                  Y                   Z               Mass
    ------------   -----------------  -----------------  -----------------  -----------------
         O            1.731965036697    -0.293388459122     0.000070229072    15.994914619570
         O           -1.730497963303     0.260556540878     0.000033229072    15.994914619570
         O            0.558406036697     1.662237540878    -0.000155770928    15.994914619570
         O           -0.556934963303    -1.695067459122    -0.000312770928    15.994914619570
         C            2.958893036697     0.484780540878     0.000112229072    12.000000000000
         C           -2.957426963303    -0.517612459122    -0.000025770928    12.000000000000
         C            4.096893036697    -0.508505459122     0.000276229072    12.000000000000
         C           -4.095425963303     0.475675540878     0.000202229072    12.000000000000
         C            0.603909636697     0.644641840878    -0.000079670928    12.000000000000
         C           -0.611374963303    -0.477672459122    -0.000132770928    12.000000000000
         H            2.963172036697     1.127676540878    -0.884196770928     1.007825032230
         H            2.963029036697     1.127805540878     0.884329229072     1.007825032230
         H           -2.961683963303    -1.160425459122    -0.884394770928     1.007825032230
         H           -2.961584963303    -1.160718459122     0.884131229072     1.007825032230
         H            5.052021036697     0.024102540878     0.000312229072     1.007825032230
         H            4.051132036697    -1.143652459122     0.887057229072     1.007825032230
         H            4.051271036697    -1.143783459122    -0.886417770928     1.007825032230
         H           -5.050554963303    -0.056931459122     0.000165229072     1.007825032230
         H           -4.049685963303     1.110740540878     0.887043229072     1.007825032230
         H           -4.049781963303     1.111035540878    -0.886431770928     1.007825032230

  Basis Set: AUG-CC-PVTZ
    Blend: AUG-CC-PVTZ
  Basis Set: (AUG-CC-PVTZ AUX)
    Blend: AUG-CC-PVTZ-JKFIT
	 Reference Energy          =    -532.6144457766089317 [Eh]
	 Singles Energy            =      -0.0000000000000000 [Eh]
	 Same-Spin Energy          =      -0.5131909836534170 [Eh]
	 Opposite-Spin Energy      =      -1.6216691709511832 [Eh]
	 Correlation Energy        =      -2.1348601546046000 [Eh]
	 Total Energy              =    -534.7493059312134847 [Eh]

	 ================> DF-SCS-MP2 Energies <==================
	-----------------------------------------------------------
	 SCS Same-Spin Scale       =       0.3333333333333333 [-]
	 SCS Opposite-Spin Scale   =       1.2000000000000000 [-]
	 SCS Same-Spin Energy      =      -0.1710636612178056 [Eh]
	 SCS Opposite-Spin Energy  =      -1.9460030051414199 [Eh]
	 SCS Correlation Energy    =      -2.1170666663592255 [Eh]
	 SCS Total Energy          =    -534.7315124429682101 [Eh]
	-----------------------------------------------------------

  Dipole Moment: [D]
     X:    -0.7229      Y:     1.2761      Z:     0.0003     Total:     1.4667

*** Psi4 exiting successfully. Buy a developer a beer!
