                               Psi4 1.4a3.dev225

  ==> Input File <==

--------------------------------------------------------------------------
#psi4
#
memory 32 gb

molecule  {
0 1
  O        1.7312310    -0.2769730     0.0000590
  O       -1.7312320     0.2769720     0.0000220
  O        0.5576720     1.6786530    -0.0001670
  O       -0.5576690    -1.6786520    -0.0003240
  C        2.9581590     0.5011960     0.0001010
  C       -2.9581610    -0.5011970    -0.0000370
  C        4.0961590    -0.4920900     0.0002650
  C       -4.0961600     0.4920910     0.0001910
  C        0.6121100     0.4612570    -0.0000760
  C       -0.6121090    -0.4612570    -0.0001440
  H        2.9624380     1.1440920    -0.8842080
  H        2.9622950     1.1442210     0.8843180
  H       -2.9624180    -1.1440100    -0.8844060
  H       -2.9623190    -1.1443030     0.8841200
  H        5.0512870     0.0405180     0.0003010
  H        4.0503980    -1.1272370     0.8870460
  H        4.0505370    -1.1273680    -0.8864290
  H       -5.0602752    -0.0230354     0.0328763
  H       -4.0504200     1.1271560     0.8870320
  H       -4.0505160     1.1274510    -0.8864430
units angstrom
no_reorient  #important for SAPT in psi4, default
symmetry c1  #important for SAPT in psi4, default
}

set PROPERTIES_ORIGIN ["COM"]
properties('MP2/aug-cc-pvtz', properties = ['dipole'])
--------------------------------------------------------------------------

    Molecular point group: c1
  Charge       = 0
  Multiplicity = 1
  Basis Set: AUG-CC-PVTZ
    Blend: AUG-CC-PVTZ
  Basis Set: (AUG-CC-PVTZ AUX)
    Blend: AUG-CC-PVTZ-JKFIT

    Orbital Energies [Eh]
    ---------------------

    Doubly Occupied:

       1A    -20.619648     2A    -20.619513     3A    -20.572110
       4A    -20.572084     5A    -11.408075     6A    -11.407504
       7A    -11.299749     8A    -11.299560     9A    -11.229886
      10A    -11.229788    11A     -1.487482    12A     -1.459305
      13A     -1.382566    14A     -1.366822    15A     -1.061775
      16A     -1.047605    17A     -0.946041    18A     -0.875631
      19A     -0.831562    20A     -0.787263    21A     -0.745220
      22A     -0.703763    23A     -0.702476    24A     -0.684087
      25A     -0.680102    26A     -0.611302    27A     -0.609452
      28A     -0.578161    29A     -0.575625    30A     -0.560146
      31A     -0.548361    32A     -0.524056    33A     -0.523372
      34A     -0.522525    35A     -0.520388    36A     -0.511291
      37A     -0.475887    38A     -0.466195    39A     -0.448241

  @DF-RHF Final Energy:  -532.69558600866139

   => Energetics <=

    Nuclear Repulsion Energy =            540.4891857884507544
    One-Electron Energy =               -1801.3803032098912809
    Two-Electron Energy =                 728.1955314127790189
    Total Energy =                       -532.6955860086613939
  Basis Set: (AUG-CC-PVTZ AUX)
    Blend: AUG-CC-PVTZ-RI
    Molecular point group: c1

    Geometry (in Angstrom), charge = 0, multiplicity = 1:

       Center              X                  Y                   Z               Mass
    ------------   -----------------  -----------------  -----------------  -----------------
         O            1.731292999945    -0.277093646788    -0.000156784674    15.994914619570
         O           -1.731170000055     0.276851353212    -0.000193784674    15.994914619570
         O            0.557733999945     1.678532353212    -0.000382784674    15.994914619570
         O           -0.557607000055    -1.678772646788    -0.000539784674    15.994914619570
         C            2.958220999945     0.501075353212    -0.000114784674    12.000000000000
         C           -2.958099000055    -0.501317646788    -0.000252784674    12.000000000000
         C            4.096220999945    -0.492210646788     0.000049215326    12.000000000000
         C           -4.096098000055     0.491970353212    -0.000024784674    12.000000000000
         C            0.612171999945     0.461136353212    -0.000291784674    12.000000000000
         C           -0.612047000055    -0.461377646788    -0.000359784674    12.000000000000
         H            2.962499999945     1.143971353212    -0.884423784674     1.007825032230
         H            2.962356999945     1.144100353212     0.884102215326     1.007825032230
         H           -2.962356000055    -1.144130646788    -0.884621784674     1.007825032230
         H           -2.962257000055    -1.144423646788     0.883904215326     1.007825032230
         H            5.051348999945     0.040397353212     0.000085215326     1.007825032230
         H            4.050459999945    -1.127357646788     0.886830215326     1.007825032230
         H            4.050598999945    -1.127488646788    -0.886644784674     1.007825032230
         H           -5.060213200055    -0.023156046788     0.032660515326     1.007825032230
         H           -4.050358000055     1.127035353212     0.886816215326     1.007825032230
         H           -4.050454000055     1.127330353212    -0.886658784674     1.007825032230

  Basis Set: AUG-CC-PVTZ
    Blend: AUG-CC-PVTZ
  Basis Set: (AUG-CC-PVTZ AUX)
    Blend: AUG-CC-PVTZ-JKFIT
	 Reference Energy          =    -532.6955860086613939 [Eh]
	 Singles Energy            =      -0.0000000000000000 [Eh]
	 Same-Spin Energy          =      -0.5156382619080464 [Eh]
	 Opposite-Spin Energy      =      -1.6266662378278911 [Eh]
	 Correlation Energy        =      -2.1423044997359373 [Eh]
	 Total Energy              =    -534.8378905083973223 [Eh]

	 ================> DF-SCS-MP2 Energies <==================
	-----------------------------------------------------------
	 SCS Same-Spin Scale       =       0.3333333333333333 [-]
	 SCS Opposite-Spin Scale   =       1.2000000000000000 [-]
	 SCS Same-Spin Energy      =      -0.1718794206360155 [Eh]
	 SCS Opposite-Spin Energy  =      -1.9519994853934692 [Eh]
	 SCS Correlation Energy    =      -2.1238789060294847 [Eh]
	 SCS Total Energy          =    -534.8194649146909114 [Eh]
	-----------------------------------------------------------

  Dipole Moment: [D]
     X:    -0.0013      Y:     0.0030      Z:     0.0132     Total:     0.0136

*** Psi4 exiting successfully. Buy a developer a beer!
