                               Psi4 1.4a3.dev225

  ==> Input File <==

--------------------------------------------------------------------------
#psi4
#
memory 32 gb

molecule  {
0 1
  O        1.7312310    -0.2769730     0.0000590
  O       -1.7312320     0.2769720     0.0000220
  O        0.5576720     1.6786530    -0.0001670
  O       -0.5576690    -1.6786520    -0.0003240
  C        2.8737118     0.4476360     0.0000981
  C       -2.9581610    -0.5011970    -0.0000370
  C        4.0961590    -0.4920900     0.0002650
  C       -4.0961600     0.4920910     0.0001910
  C        0.6121100     0.4612570    -0.0000760
  C       -0.6121090    -0.4612570    -0.0001440
  H        2.9624380     1.1440920    -0.8842080
  H        2.9622950     1.1442210     0.8843180
  H       -2.9624180    -1.1440100    -0.8844060
  H       -2.9623190    -1.1443030     0.8841200
  H        5.0512870     0.0405180     0.0003010
  H        4.0503980    -1.1272370     0.8870460
  H        4.0505370    -1.1273680    -0.8864290
  H       -5.0512890    -0.0405160     0.0001540
  H       -4.0504200     1.1271560     0.8870320
  H       -4.0505160     1.1274510    -0.8864430
units angstrom
no_reorient  #important for SAPT in psi4, default
symmetry c1  #important for SAPT in psi4, default
}

set PROPERTIES_ORIGIN ["COM"]
properties('MP2/aug-cc-pvtz', properties = ['dipole'])
--------------------------------------------------------------------------

    Molecular point group: c1
  Charge       = 0
  Multiplicity = 1
  Basis Set: AUG-CC-PVTZ
    Blend: AUG-CC-PVTZ
  Basis Set: (AUG-CC-PVTZ AUX)
    Blend: AUG-CC-PVTZ-JKFIT

    Orbital Energies [Eh]
    ---------------------

    Doubly Occupied:

       1A    -20.630502     2A    -20.622715     3A    -20.579991
       4A    -20.576101     5A    -11.414919     6A    -11.412137
       7A    -11.301842     8A    -11.297956     9A    -11.231591
      10A    -11.226816    11A     -1.506203    12A     -1.471744
      13A     -1.393230    14A     -1.375466    15A     -1.063385
      16A     -1.044421    17A     -0.951605    18A     -0.881245
      19A     -0.827913    20A     -0.795608    21A     -0.754483
      22A     -0.710774    23A     -0.710297    24A     -0.688983
      25A     -0.687290    26A     -0.624066    27A     -0.606595
      28A     -0.582177    29A     -0.576654    30A     -0.561730
      31A     -0.554129    32A     -0.526290    33A     -0.525985
      34A     -0.524137    35A     -0.511932    36A     -0.500146
      37A     -0.475085    38A     -0.458419    39A     -0.453974

  @DF-RHF Final Energy:  -532.68771633616836

   => Energetics <=

    Nuclear Repulsion Energy =            542.2964924778556224
    One-Electron Energy =               -1804.6913432685951193
    Two-Electron Energy =                 729.7071344545710190
    Total Energy =                       -532.6877163361683643
  Basis Set: (AUG-CC-PVTZ AUX)
    Blend: AUG-CC-PVTZ-RI
    Molecular point group: c1

    Geometry (in Angstrom), charge = 0, multiplicity = 1:

       Center              X                  Y                   Z               Mass
    ------------   -----------------  -----------------  -----------------  -----------------
         O            1.738169107448    -0.272572581194     0.000069243162    15.994914619570
         O           -1.724293892552     0.281372418806     0.000032243162    15.994914619570
         O            0.564610107448     1.683053418806    -0.000156756838    15.994914619570
         O           -0.550730892552    -1.674251581194    -0.000313756838    15.994914619570
         C            2.880649907448     0.452036418806     0.000108343162    12.000000000000
         C           -2.951222892552    -0.496796581194    -0.000026756838    12.000000000000
         C            4.103097107448    -0.487689581194     0.000275243162    12.000000000000
         C           -4.089221892552     0.496491418806     0.000201243162    12.000000000000
         C            0.619048107448     0.465657418806    -0.000065756838    12.000000000000
         C           -0.605170892552    -0.456856581194    -0.000133756838    12.000000000000
         H            2.969376107448     1.148492418806    -0.884197756838     1.007825032230
         H            2.969233107448     1.148621418806     0.884328243162     1.007825032230
         H           -2.955479892552    -1.139609581194    -0.884395756838     1.007825032230
         H           -2.955380892552    -1.139902581194     0.884130243162     1.007825032230
         H            5.058225107448     0.044918418806     0.000311243162     1.007825032230
         H            4.057336107448    -1.122836581194     0.887056243162     1.007825032230
         H            4.057475107448    -1.122967581194    -0.886418756838     1.007825032230
         H           -5.044350892552    -0.036115581194     0.000164243162     1.007825032230
         H           -4.043481892552     1.131556418806     0.887042243162     1.007825032230
         H           -4.043577892552     1.131851418806    -0.886432756838     1.007825032230

  Basis Set: AUG-CC-PVTZ
    Blend: AUG-CC-PVTZ
  Basis Set: (AUG-CC-PVTZ AUX)
    Blend: AUG-CC-PVTZ-JKFIT
	 Reference Energy          =    -532.6877163361683643 [Eh]
	 Singles Energy            =      -0.0000000000000000 [Eh]
	 Same-Spin Energy          =      -0.5157919681807401 [Eh]
	 Opposite-Spin Energy      =      -1.6261971850799348 [Eh]
	 Correlation Energy        =      -2.1419891532606750 [Eh]
	 Total Energy              =    -534.8297054894289886 [Eh]

	 ================> DF-SCS-MP2 Energies <==================
	-----------------------------------------------------------
	 SCS Same-Spin Scale       =       0.3333333333333333 [-]
	 SCS Opposite-Spin Scale   =       1.2000000000000000 [-]
	 SCS Same-Spin Energy      =      -0.1719306560602467 [Eh]
	 SCS Opposite-Spin Energy  =      -1.9514366220959216 [Eh]
	 SCS Correlation Energy    =      -2.1233672781561683 [Eh]
	 SCS Total Energy          =    -534.8110836143245024 [Eh]
	-----------------------------------------------------------

  Dipole Moment: [D]
     X:    -0.4768      Y:    -0.0763      Z:     0.0005     Total:     0.4829

*** Psi4 exiting successfully. Buy a developer a beer!
