                               Psi4 1.4a3.dev225

  ==> Input File <==

--------------------------------------------------------------------------
#psi4
#
memory 32 gb

molecule  {
0 1
  O        1.6479343    -0.3899089     0.0000567
  O       -1.7312320     0.2769720     0.0000220
  O        0.5576720     1.6786530    -0.0001670
  O       -0.5576690    -1.6786520    -0.0003240
  C        2.9581590     0.5011960     0.0001010
  C       -2.9581610    -0.5011970    -0.0000370
  C        4.0961590    -0.4920900     0.0002650
  C       -4.0961600     0.4920910     0.0001910
  C        0.6121100     0.4612570    -0.0000760
  C       -0.6121090    -0.4612570    -0.0001440
  H        2.9624380     1.1440920    -0.8842080
  H        2.9622950     1.1442210     0.8843180
  H       -2.9624180    -1.1440100    -0.8844060
  H       -2.9623190    -1.1443030     0.8841200
  H        5.0512870     0.0405180     0.0003010
  H        4.0503980    -1.1272370     0.8870460
  H        4.0505370    -1.1273680    -0.8864290
  H       -5.0512890    -0.0405160     0.0001540
  H       -4.0504200     1.1271560     0.8870320
  H       -4.0505160     1.1274510    -0.8864430
units angstrom
no_reorient  #important for SAPT in psi4, default
symmetry c1  #important for SAPT in psi4, default
}

set PROPERTIES_ORIGIN ["COM"]
properties('MP2/aug-cc-pvtz', properties = ['dipole'])
--------------------------------------------------------------------------

    Molecular point group: c1
  Charge       = 0
  Multiplicity = 1
  Basis Set: AUG-CC-PVTZ
    Blend: AUG-CC-PVTZ
  Basis Set: (AUG-CC-PVTZ AUX)
    Blend: AUG-CC-PVTZ-JKFIT

    Orbital Energies [Eh]
    ---------------------

    Doubly Occupied:

       1A    -20.622430     2A    -20.612950     3A    -20.571973
       4A    -20.564029     5A    -11.404165     6A    -11.396816
       7A    -11.315118     8A    -11.295064     9A    -11.235673
      10A    -11.226845    11A     -1.478689    12A     -1.444453
      13A     -1.378510    14A     -1.357470    15A     -1.058885
      16A     -1.046285    17A     -0.938065    18A     -0.867877
      19A     -0.834309    20A     -0.779303    21A     -0.730884
      22A     -0.699940    23A     -0.694741    24A     -0.675042
      25A     -0.673841    26A     -0.611861    27A     -0.602653
      28A     -0.577877    29A     -0.575904    30A     -0.556991
      31A     -0.543557    32A     -0.530385    33A     -0.522076
      34A     -0.519658    35A     -0.515457    36A     -0.509846
      37A     -0.482540    38A     -0.463434    39A     -0.440153

  @DF-RHF Final Energy:  -532.67687416782542

   => Energetics <=

    Nuclear Repulsion Energy =            539.4900076791851689
    One-Electron Energy =               -1799.6222626067356032
    Two-Electron Energy =                 727.4553807597251307
    Total Energy =                       -532.6768741678254173
  Basis Set: (AUG-CC-PVTZ AUX)
    Blend: AUG-CC-PVTZ-RI
    Molecular point group: c1

    Geometry (in Angstrom), charge = 0, multiplicity = 1:

       Center              X                  Y                   Z               Mass
    ------------   -----------------  -----------------  -----------------  -----------------
         O            1.657056179674    -0.377541229796     0.000066956775    15.994914619570
         O           -1.722110120326     0.289339670204     0.000032256775    15.994914619570
         O            0.566793879674     1.691020670204    -0.000156743225    15.994914619570
         O           -0.548547120326    -1.666284329796    -0.000313743225    15.994914619570
         C            2.967280879674     0.513563670204     0.000111256775    12.000000000000
         C           -2.949039120326    -0.488829329796    -0.000026743225    12.000000000000
         C            4.105280879674    -0.479722329796     0.000275256775    12.000000000000
         C           -4.087038120326     0.504458670204     0.000201256775    12.000000000000
         C            0.621231879674     0.473624670204    -0.000065743225    12.000000000000
         C           -0.602987120326    -0.448889329796    -0.000133743225    12.000000000000
         H            2.971559879674     1.156459670204    -0.884197743225     1.007825032230
         H            2.971416879674     1.156588670204     0.884328256775     1.007825032230
         H           -2.953296120326    -1.131642329796    -0.884395743225     1.007825032230
         H           -2.953197120326    -1.131935329796     0.884130256775     1.007825032230
         H            5.060408879674     0.052885670204     0.000311256775     1.007825032230
         H            4.059519879674    -1.114869329796     0.887056256775     1.007825032230
         H            4.059658879674    -1.115000329796    -0.886418743225     1.007825032230
         H           -5.042167120326    -0.028148329796     0.000164256775     1.007825032230
         H           -4.041298120326     1.139523670204     0.887042256775     1.007825032230
         H           -4.041394120326     1.139818670204    -0.886432743225     1.007825032230

  Basis Set: AUG-CC-PVTZ
    Blend: AUG-CC-PVTZ
  Basis Set: (AUG-CC-PVTZ AUX)
    Blend: AUG-CC-PVTZ-JKFIT
	 Reference Energy          =    -532.6768741678254173 [Eh]
	 Singles Energy            =      -0.0000000000000000 [Eh]
	 Same-Spin Energy          =      -0.5173022768899587 [Eh]
	 Opposite-Spin Energy      =      -1.6314302953432094 [Eh]
	 Correlation Energy        =      -2.1487325722331683 [Eh]
	 Total Energy              =    -534.8256067400585607 [Eh]

	 ================> DF-SCS-MP2 Energies <==================
	-----------------------------------------------------------
	 SCS Same-Spin Scale       =       0.3333333333333333 [-]
	 SCS Opposite-Spin Scale   =       1.2000000000000000 [-]
	 SCS Same-Spin Energy      =      -0.1724340922966529 [Eh]
	 SCS Opposite-Spin Energy  =      -1.9577163544118512 [Eh]
	 SCS Correlation Energy    =      -2.1301504467085040 [Eh]
	 SCS Total Energy          =    -534.8070246145339297 [Eh]
	-----------------------------------------------------------

  Dipole Moment: [D]
     X:     0.5683      Y:     0.2121      Z:     0.0005     Total:     0.6066

*** Psi4 exiting successfully. Buy a developer a beer!
