                               Psi4 1.4a3.dev225

  ==> Input File <==

--------------------------------------------------------------------------
#psi4
#
memory 32 gb

molecule  {
0 1
  O        1.7312310    -0.2769730     0.0000590
  O       -1.7312320     0.2769720     0.0000220
  O        0.5576720     1.6786530    -0.0001670
  O       -0.5576690    -1.6786520    -0.0003240
  C        2.9581590     0.5011960     0.0001010
  C       -2.9581610    -0.5011970    -0.0000370
  C        4.0961590    -0.4920900     0.0002650
  C       -4.0961600     0.4920910     0.0001910
  C        0.6121100     0.4612570    -0.0000760
  C       -0.6121090    -0.4612570    -0.0001440
  H        2.9624380     1.1440920    -0.8842080
  H        2.9622950     1.1442210     0.8843180
  H       -2.9624180    -1.1440100    -0.8844060
  H       -2.9623190    -1.1443030     0.8841200
  H        5.0512870     0.0405180     0.0003010
  H        4.0512363    -1.1156015     0.8708007
  H        4.0505370    -1.1273680    -0.8864290
  H       -5.0512890    -0.0405160     0.0001540
  H       -4.0504200     1.1271560     0.8870320
  H       -4.0505160     1.1274510    -0.8864430
units angstrom
no_reorient  #important for SAPT in psi4, default
symmetry c1  #important for SAPT in psi4, default
}

set PROPERTIES_ORIGIN ["COM"]
properties('MP2/aug-cc-pvtz', properties = ['dipole'])
--------------------------------------------------------------------------

    Molecular point group: c1
  Charge       = 0
  Multiplicity = 1
  Basis Set: AUG-CC-PVTZ
    Blend: AUG-CC-PVTZ
  Basis Set: (AUG-CC-PVTZ AUX)
    Blend: AUG-CC-PVTZ-JKFIT

    Orbital Energies [Eh]
    ---------------------

    Doubly Occupied:

       1A    -20.619471     2A    -20.619442     3A    -20.572040
       4A    -20.572019     5A    -11.407981     6A    -11.407412
       7A    -11.299533     8A    -11.299328     9A    -11.229865
      10A    -11.227455    11A     -1.487394    12A     -1.459213
      13A     -1.382493    14A     -1.366744    15A     -1.062096
      16A     -1.048079    17A     -0.946451    18A     -0.876133
      19A     -0.831773    20A     -0.787253    21A     -0.745124
      22A     -0.703735    23A     -0.702480    24A     -0.684181
      25A     -0.680121    26A     -0.611634    27A     -0.609838
      28A     -0.578790    29A     -0.576489    30A     -0.560224
      31A     -0.547658    32A     -0.524654    33A     -0.523786
      34A     -0.523021    35A     -0.520475    36A     -0.511742
      37A     -0.475893    38A     -0.466167    39A     -0.448149

  @DF-RHF Final Energy:  -532.69571503284817

   => Energetics <=

    Nuclear Repulsion Energy =            540.5911014724953247
    One-Electron Energy =               -1801.5809646139321103
    Two-Electron Energy =                 728.2941481085885016
    Total Energy =                       -532.6957150328481703
  Basis Set: (AUG-CC-PVTZ AUX)
    Blend: AUG-CC-PVTZ-RI
    Molecular point group: c1

    Geometry (in Angstrom), charge = 0, multiplicity = 1:

       Center              X                  Y                   Z               Mass
    ------------   -----------------  -----------------  -----------------  -----------------
         O            1.731225209182    -0.277053314579     0.000181100302    15.994914619570
         O           -1.731237790818     0.276891685421     0.000144100302    15.994914619570
         O            0.557666209182     1.678572685421    -0.000044899698    15.994914619570
         O           -0.557674790818    -1.678732314579    -0.000201899698    15.994914619570
         C            2.958153209182     0.501115685421     0.000223100302    12.000000000000
         C           -2.958166790818    -0.501277314579     0.000085100302    12.000000000000
         C            4.096153209182    -0.492170314579     0.000387100302    12.000000000000
         C           -4.096165790818     0.492010685421     0.000313100302    12.000000000000
         C            0.612104209182     0.461176685421     0.000046100302    12.000000000000
         C           -0.612114790818    -0.461337314579    -0.000021899698    12.000000000000
         H            2.962432209182     1.144011685421    -0.884085899698     1.007825032230
         H            2.962289209182     1.144140685421     0.884440100302     1.007825032230
         H           -2.962423790818    -1.144090314579    -0.884283899698     1.007825032230
         H           -2.962324790818    -1.144383314579     0.884242100302     1.007825032230
         H            5.051281209182     0.040437685421     0.000423100302     1.007825032230
         H            4.051230509182    -1.115681814579     0.870922800302     1.007825032230
         H            4.050531209182    -1.127448314579    -0.886306899698     1.007825032230
         H           -5.051294790818    -0.040596314579     0.000276100302     1.007825032230
         H           -4.050425790818     1.127075685421     0.887154100302     1.007825032230
         H           -4.050521790818     1.127370685421    -0.886320899698     1.007825032230

  Basis Set: AUG-CC-PVTZ
    Blend: AUG-CC-PVTZ
  Basis Set: (AUG-CC-PVTZ AUX)
    Blend: AUG-CC-PVTZ-JKFIT
	 Reference Energy          =    -532.6957150328481703 [Eh]
	 Singles Energy            =      -0.0000000000000000 [Eh]
	 Same-Spin Energy          =      -0.5156484361366372 [Eh]
	 Opposite-Spin Energy      =      -1.6265654112194405 [Eh]
	 Correlation Energy        =      -2.1422138473560777 [Eh]
	 Total Energy              =    -534.8379288802042311 [Eh]

	 ================> DF-SCS-MP2 Energies <==================
	-----------------------------------------------------------
	 SCS Same-Spin Scale       =       0.3333333333333333 [-]
	 SCS Opposite-Spin Scale   =       1.2000000000000000 [-]
	 SCS Same-Spin Energy      =      -0.1718828120455457 [Eh]
	 SCS Opposite-Spin Energy  =      -1.9518784934633286 [Eh]
	 SCS Correlation Energy    =      -2.1237613055088742 [Eh]
	 SCS Total Energy          =    -534.8194763383570489 [Eh]
	-----------------------------------------------------------

  Dipole Moment: [D]
     X:     0.0027      Y:    -0.0054      Z:     0.0068     Total:     0.0091

*** Psi4 exiting successfully. Buy a developer a beer!
