                               Psi4 1.4a3.dev225

  ==> Input File <==

--------------------------------------------------------------------------
#psi4
#
memory 32 gb

molecule  {
0 1
  O        1.7312310    -0.2769730     0.0000590
  O       -1.7312320     0.2769720     0.0000220
  O        0.5576720     1.6786530    -0.0001670
  O       -0.5576690    -1.6786520    -0.0003240
  C        2.9581590     0.5011960     0.0001010
  C       -2.9581610    -0.5011970    -0.0000370
  C        4.0961590    -0.4920900     0.0002650
  C       -4.0961600     0.4920910     0.0001910
  C        0.6121100     0.4612570    -0.0000760
  C       -0.6121090    -0.4612570    -0.0001440
  H        2.9624380     1.1440920    -0.8842080
  H        2.9622950     1.1442210     0.8843180
  H       -2.9624180    -1.1440100    -0.8844060
  H       -2.9623190    -1.1443030     0.8841200
  H        5.0512870     0.0405180     0.0003010
  H        4.0503980    -1.1272370     0.8870460
  H        4.0505370    -1.1273680    -0.8864290
  H       -5.0512890    -0.0405160     0.0001540
  H       -4.0504200     1.1271560     0.8870320
  H       -4.0496798     1.1390905    -0.9026857
units angstrom
no_reorient  #important for SAPT in psi4, default
symmetry c1  #important for SAPT in psi4, default
}

set PROPERTIES_ORIGIN ["COM"]
properties('MP2/aug-cc-pvtz', properties = ['dipole'])
--------------------------------------------------------------------------

    Molecular point group: c1
  Charge       = 0
  Multiplicity = 1
  Basis Set: AUG-CC-PVTZ
    Blend: AUG-CC-PVTZ
  Basis Set: (AUG-CC-PVTZ AUX)
    Blend: AUG-CC-PVTZ-JKFIT

    Orbital Energies [Eh]
    ---------------------

    Doubly Occupied:

       1A    -20.619526     2A    -20.619494     3A    -20.572084
       4A    -20.572061     5A    -11.408026     6A    -11.407457
       7A    -11.299763     8A    -11.299548     9A    -11.232266
      10A    -11.229879    11A     -1.487444    12A     -1.459265
      13A     -1.382537    14A     -1.366789    15A     -1.061617
      16A     -1.047361    17A     -0.945619    18A     -0.874771
      19A     -0.831018    20A     -0.787265    21A     -0.745095
      22A     -0.703751    23A     -0.702373    24A     -0.683914
      25A     -0.680116    26A     -0.611172    27A     -0.608849
      28A     -0.577392    29A     -0.575737    30A     -0.560090
      31A     -0.547860    32A     -0.524076    33A     -0.523524
      34A     -0.521643    35A     -0.520413    36A     -0.510747
      37A     -0.475799    38A     -0.466131    39A     -0.448189

  @DF-RHF Final Energy:  -532.69522515705398

   => Energetics <=

    Nuclear Repulsion Energy =            540.4284815180038777
    One-Electron Energy =               -1801.2660970797876416
    Two-Electron Energy =                 728.1423904047298947
    Total Energy =                       -532.6952251570539829
  Basis Set: (AUG-CC-PVTZ AUX)
    Blend: AUG-CC-PVTZ-RI
    Molecular point group: c1

    Geometry (in Angstrom), charge = 0, multiplicity = 1:

       Center              X                  Y                   Z               Mass
    ------------   -----------------  -----------------  -----------------  -----------------
         O            1.731225223672    -0.277053342180     0.000181082362    15.994914619570
         O           -1.731237776328     0.276891657820     0.000144082362    15.994914619570
         O            0.557666223672     1.678572657820    -0.000044917638    15.994914619570
         O           -0.557674776328    -1.678732342180    -0.000201917638    15.994914619570
         C            2.958153223672     0.501115657820     0.000223082362    12.000000000000
         C           -2.958166776328    -0.501277342180     0.000085082362    12.000000000000
         C            4.096153223672    -0.492170342180     0.000387082362    12.000000000000
         C           -4.096165776328     0.492010657820     0.000313082362    12.000000000000
         C            0.612104223672     0.461176657820     0.000046082362    12.000000000000
         C           -0.612114776328    -0.461337342180    -0.000021917638    12.000000000000
         H            2.962432223672     1.144011657820    -0.884085917638     1.007825032230
         H            2.962289223672     1.144140657820     0.884440082362     1.007825032230
         H           -2.962423776328    -1.144090342180    -0.884283917638     1.007825032230
         H           -2.962324776328    -1.144383342180     0.884242082362     1.007825032230
         H            5.051281223672     0.040437657820     0.000423082362     1.007825032230
         H            4.050392223672    -1.127317342180     0.887168082362     1.007825032230
         H            4.050531223672    -1.127448342180    -0.886306917638     1.007825032230
         H           -5.051294776328    -0.040596342180     0.000276082362     1.007825032230
         H           -4.050425776328     1.127075657820     0.887154082362     1.007825032230
         H           -4.049685576328     1.139010157820    -0.902563617638     1.007825032230

  Basis Set: AUG-CC-PVTZ
    Blend: AUG-CC-PVTZ
  Basis Set: (AUG-CC-PVTZ AUX)
    Blend: AUG-CC-PVTZ-JKFIT
	 Reference Energy          =    -532.6952251570539829 [Eh]
	 Singles Energy            =      -0.0000000000000000 [Eh]
	 Same-Spin Energy          =      -0.5156275899609525 [Eh]
	 Opposite-Spin Energy      =      -1.6267898732029293 [Eh]
	 Correlation Energy        =      -2.1424174631638819 [Eh]
	 Total Energy              =    -534.8376426202178209 [Eh]

	 ================> DF-SCS-MP2 Energies <==================
	-----------------------------------------------------------
	 SCS Same-Spin Scale       =       0.3333333333333333 [-]
	 SCS Opposite-Spin Scale   =       1.2000000000000000 [-]
	 SCS Same-Spin Energy      =      -0.1718758633203175 [Eh]
	 SCS Opposite-Spin Energy  =      -1.9521478478435150 [Eh]
	 SCS Correlation Energy    =      -2.1240237111638325 [Eh]
	 SCS Total Energy          =    -534.8192488682178691 [Eh]
	-----------------------------------------------------------

  Dipole Moment: [D]
     X:     0.0029      Y:    -0.0057      Z:     0.0072     Total:     0.0096

*** Psi4 exiting successfully. Buy a developer a beer!
