                               Psi4 1.4a3.dev225

  ==> Input File <==

--------------------------------------------------------------------------
#psi4
#
memory 32 gb

molecule  {
0 1
  O        1.7312310    -0.2769730     0.0000590
  O       -1.7312320     0.2769720     0.0000220
  O        0.5576720     1.6786530    -0.0001670
  O       -0.5576690    -1.6786520    -0.0003240
  C        2.9581590     0.5011960     0.0001010
  C       -2.9581610    -0.5011970    -0.0000370
  C        4.0961590    -0.4920900     0.0002650
  C       -4.0961600     0.4920910     0.0001910
  C        0.6076428     0.5611572    -0.0000835
  C       -0.6121090    -0.4612570    -0.0001440
  H        2.9624380     1.1440920    -0.8842080
  H        2.9622950     1.1442210     0.8843180
  H       -2.9624180    -1.1440100    -0.8844060
  H       -2.9623190    -1.1443030     0.8841200
  H        5.0512870     0.0405180     0.0003010
  H        4.0503980    -1.1272370     0.8870460
  H        4.0505370    -1.1273680    -0.8864290
  H       -5.0512890    -0.0405160     0.0001540
  H       -4.0504200     1.1271560     0.8870320
  H       -4.0505160     1.1274510    -0.8864430
units angstrom
no_reorient  #important for SAPT in psi4, default
symmetry c1  #important for SAPT in psi4, default
}

set PROPERTIES_ORIGIN ["COM"]
properties('MP2/aug-cc-pvtz', properties = ['dipole'])
--------------------------------------------------------------------------

    Molecular point group: c1
  Charge       = 0
  Multiplicity = 1
  Basis Set: AUG-CC-PVTZ
    Blend: AUG-CC-PVTZ
  Basis Set: (AUG-CC-PVTZ AUX)
    Blend: AUG-CC-PVTZ-JKFIT

    Orbital Energies [Eh]
    ---------------------

    Doubly Occupied:

       1A    -20.617342     2A    -20.602920     3A    -20.589346
       4A    -20.567988     5A    -11.403855     6A    -11.401079
       7A    -11.298112     8A    -11.291671     9A    -11.229740
      10A    -11.225020    11A     -1.512518    12A     -1.465916
      13A     -1.394902    14A     -1.367284    15A     -1.055659
      16A     -1.038680    17A     -0.931529    18A     -0.867334
      19A     -0.824849    20A     -0.782247    21A     -0.740923
      22A     -0.723078    23A     -0.700344    24A     -0.684199
      25A     -0.680527    26A     -0.618189    27A     -0.609960
      28A     -0.583002    29A     -0.577022    30A     -0.559084
      31A     -0.550770    32A     -0.530494    33A     -0.526521
      34A     -0.521629    35A     -0.519020    36A     -0.516200
      37A     -0.474483    38A     -0.465029    39A     -0.436206

  @DF-RHF Final Energy:  -532.68335311023293

   => Energetics <=

    Nuclear Repulsion Energy =            540.6044474543047045
    One-Electron Energy =               -1801.6062577309585322
    Two-Electron Energy =                 728.3184571664210125
    Total Energy =                       -532.6833531102329289
  Basis Set: (AUG-CC-PVTZ AUX)
    Blend: AUG-CC-PVTZ-RI
    Molecular point group: c1

    Geometry (in Angstrom), charge = 0, multiplicity = 1:

       Center              X                  Y                   Z               Mass
    ------------   -----------------  -----------------  -----------------  -----------------
         O            1.731598015148    -0.285180747469     0.000069621094    15.994914619570
         O           -1.730864984852     0.268764252531     0.000032621094    15.994914619570
         O            0.558039015148     1.670445252531    -0.000156378906    15.994914619570
         O           -0.557301984852    -1.686859747469    -0.000313378906    15.994914619570
         C            2.958526015148     0.492988252531     0.000111621094    12.000000000000
         C           -2.957793984852    -0.509404747469    -0.000026378906    12.000000000000
         C            4.096526015148    -0.500297747469     0.000275621094    12.000000000000
         C           -4.095792984852     0.483883252531     0.000201621094    12.000000000000
         C            0.608009815148     0.552949452531    -0.000072878906    12.000000000000
         C           -0.611741984852    -0.469464747469    -0.000133378906    12.000000000000
         H            2.962805015148     1.135884252531    -0.884197378906     1.007825032230
         H            2.962662015148     1.136013252531     0.884328621094     1.007825032230
         H           -2.962050984852    -1.152217747469    -0.884395378906     1.007825032230
         H           -2.961951984852    -1.152510747469     0.884130621094     1.007825032230
         H            5.051654015148     0.032310252531     0.000311621094     1.007825032230
         H            4.050765015148    -1.135444747469     0.887056621094     1.007825032230
         H            4.050904015148    -1.135575747469    -0.886418378906     1.007825032230
         H           -5.050921984852    -0.048723747469     0.000164621094     1.007825032230
         H           -4.050052984852     1.118948252531     0.887042621094     1.007825032230
         H           -4.050148984852     1.119243252531    -0.886432378906     1.007825032230

  Basis Set: AUG-CC-PVTZ
    Blend: AUG-CC-PVTZ
  Basis Set: (AUG-CC-PVTZ AUX)
    Blend: AUG-CC-PVTZ-JKFIT
	 Reference Energy          =    -532.6833531102329289 [Eh]
	 Singles Energy            =      -0.0000000000000000 [Eh]
	 Same-Spin Energy          =      -0.5141709158461938 [Eh]
	 Opposite-Spin Energy      =      -1.6236798920230193 [Eh]
	 Correlation Energy        =      -2.1378508078692131 [Eh]
	 Total Energy              =    -534.8212039181021282 [Eh]

	 ================> DF-SCS-MP2 Energies <==================
	-----------------------------------------------------------
	 SCS Same-Spin Scale       =       0.3333333333333333 [-]
	 SCS Opposite-Spin Scale   =       1.2000000000000000 [-]
	 SCS Same-Spin Energy      =      -0.1713903052820646 [Eh]
	 SCS Opposite-Spin Energy  =      -1.9484158704276231 [Eh]
	 SCS Correlation Energy    =      -2.1198061757096878 [Eh]
	 SCS Total Energy          =    -534.8031592859425700 [Eh]
	-----------------------------------------------------------

  Dipole Moment: [D]
     X:    -0.3629      Y:     0.5891      Z:     0.0004     Total:     0.6919

*** Psi4 exiting successfully. Buy a developer a beer!
