                               Psi4 1.4a3.dev225

  ==> Input File <==

--------------------------------------------------------------------------
#psi4
#
memory 32 gb

molecule  {
0 1
  O        1.7312310    -0.2769730     0.0000590
  O       -1.7178379     0.2554406     0.0000177
  O        0.5576720     1.6786530    -0.0001670
  O       -0.5576690    -1.6786520    -0.0003240
  C        2.9581590     0.5011960     0.0001010
  C       -2.9581610    -0.5011970    -0.0000370
  C        4.0961590    -0.4920900     0.0002650
  C       -4.0961600     0.4920910     0.0001910
  C        0.6121100     0.4612570    -0.0000760
  C       -0.6121090    -0.4612570    -0.0001440
  H        2.9624380     1.1440920    -0.8842080
  H        2.9622950     1.1442210     0.8843180
  H       -2.9624180    -1.1440100    -0.8844060
  H       -2.9623190    -1.1443030     0.8841200
  H        5.0512870     0.0405180     0.0003010
  H        4.0503980    -1.1272370     0.8870460
  H        4.0505370    -1.1273680    -0.8864290
  H       -5.0512890    -0.0405160     0.0001540
  H       -4.0504200     1.1271560     0.8870320
  H       -4.0505160     1.1274510    -0.8864430
units angstrom
no_reorient  #important for SAPT in psi4, default
symmetry c1  #important for SAPT in psi4, default
}

set PROPERTIES_ORIGIN ["COM"]
properties('MP2/aug-cc-pvtz', properties = ['dipole'])
--------------------------------------------------------------------------

    Molecular point group: c1
  Charge       = 0
  Multiplicity = 1
  Basis Set: AUG-CC-PVTZ
    Blend: AUG-CC-PVTZ
  Basis Set: (AUG-CC-PVTZ AUX)
    Blend: AUG-CC-PVTZ-JKFIT

    Orbital Energies [Eh]
    ---------------------

    Doubly Occupied:

       1A    -20.620007     2A    -20.618731     3A    -20.571387
       4A    -20.566730     5A    -11.406763     6A    -11.404387
       7A    -11.301542     8A    -11.299005     9A    -11.231649
      10A    -11.229419    11A     -1.491197    12A     -1.462329
      13A     -1.381166    14A     -1.365760    15A     -1.063621
      16A     -1.048976    17A     -0.946593    18A     -0.877781
      19A     -0.830611    20A     -0.787939    21A     -0.747828
      22A     -0.704242    23A     -0.702424    24A     -0.685024
      25A     -0.679418    26A     -0.612052    27A     -0.610062
      28A     -0.579156    29A     -0.575473    30A     -0.561274
      31A     -0.549023    32A     -0.524015    33A     -0.522710
      34A     -0.522566    35A     -0.518879    36A     -0.510969
      37A     -0.475111    38A     -0.465314    39A     -0.447093

  @DF-RHF Final Energy:  -532.69737782288155

   => Energetics <=

    Nuclear Repulsion Energy =            541.0575964922849153
    One-Electron Energy =               -1802.5134951038785402
    Two-Electron Energy =                 728.7585207887119623
    Total Energy =                       -532.6973778228815490
  Basis Set: (AUG-CC-PVTZ AUX)
    Blend: AUG-CC-PVTZ-RI
    Molecular point group: c1

    Geometry (in Angstrom), charge = 0, multiplicity = 1:

       Center              X                  Y                   Z               Mass
    ------------   -----------------  -----------------  -----------------  -----------------
         O            1.729764195342    -0.274615107325     0.000069475797    15.994914619570
         O           -1.719304704658     0.257798492675     0.000028175797    15.994914619570
         O            0.556205195342     1.681010892675    -0.000156524203    15.994914619570
         O           -0.559135804658    -1.676294107325    -0.000313524203    15.994914619570
         C            2.956692195342     0.503553892675     0.000111475797    12.000000000000
         C           -2.959627804658    -0.498839107325    -0.000026524203    12.000000000000
         C            4.094692195342    -0.489732107325     0.000275475797    12.000000000000
         C           -4.097626804658     0.494448892675     0.000201475797    12.000000000000
         C            0.610643195342     0.463614892675    -0.000065524203    12.000000000000
         C           -0.613575804658    -0.458899107325    -0.000133524203    12.000000000000
         H            2.960971195342     1.146449892675    -0.884197524203     1.007825032230
         H            2.960828195342     1.146578892675     0.884328475797     1.007825032230
         H           -2.963884804658    -1.141652107325    -0.884395524203     1.007825032230
         H           -2.963785804658    -1.141945107325     0.884130475797     1.007825032230
         H            5.049820195342     0.042875892675     0.000311475797     1.007825032230
         H            4.048931195342    -1.124879107325     0.887056475797     1.007825032230
         H            4.049070195342    -1.125010107325    -0.886418524203     1.007825032230
         H           -5.052755804658    -0.038158107325     0.000164475797     1.007825032230
         H           -4.051886804658     1.129513892675     0.887042475797     1.007825032230
         H           -4.051982804658     1.129808892675    -0.886432524203     1.007825032230

  Basis Set: AUG-CC-PVTZ
    Blend: AUG-CC-PVTZ
  Basis Set: (AUG-CC-PVTZ AUX)
    Blend: AUG-CC-PVTZ-JKFIT
	 Reference Energy          =    -532.6973778228815490 [Eh]
	 Singles Energy            =      -0.0000000000000000 [Eh]
	 Same-Spin Energy          =      -0.5152369870762306 [Eh]
	 Opposite-Spin Energy      =      -1.6255049906106613 [Eh]
	 Correlation Energy        =      -2.1407419776868917 [Eh]
	 Total Energy              =    -534.8381198005683927 [Eh]

	 ================> DF-SCS-MP2 Energies <==================
	-----------------------------------------------------------
	 SCS Same-Spin Scale       =       0.3333333333333333 [-]
	 SCS Opposite-Spin Scale   =       1.2000000000000000 [-]
	 SCS Same-Spin Energy      =      -0.1717456623587435 [Eh]
	 SCS Opposite-Spin Energy  =      -1.9506059887327936 [Eh]
	 SCS Correlation Energy    =      -2.1223516510915372 [Eh]
	 SCS Total Energy          =    -534.8197294739730978 [Eh]
	-----------------------------------------------------------

  Dipole Moment: [D]
     X:    -0.1437      Y:     0.0821      Z:     0.0005     Total:     0.1655

*** Psi4 exiting successfully. Buy a developer a beer!
