                               Psi4 1.4a3.dev225

  ==> Input File <==

--------------------------------------------------------------------------
#psi4
#
memory 32 gb

molecule  {
0 1
  O        1.7243312    -0.2656823     0.0216903
  O       -1.7312320     0.2769720     0.0000220
  O        0.5576720     1.6786530    -0.0001670
  O       -0.5576690    -1.6786520    -0.0003240
  C        2.9581590     0.5011960     0.0001010
  C       -2.9581610    -0.5011970    -0.0000370
  C        4.0961590    -0.4920900     0.0002650
  C       -4.0961600     0.4920910     0.0001910
  C        0.6121100     0.4612570    -0.0000760
  C       -0.6121090    -0.4612570    -0.0001440
  H        2.9624380     1.1440920    -0.8842080
  H        2.9622950     1.1442210     0.8843180
  H       -2.9624180    -1.1440100    -0.8844060
  H       -2.9623190    -1.1443030     0.8841200
  H        5.0512870     0.0405180     0.0003010
  H        4.0503980    -1.1272370     0.8870460
  H        4.0505370    -1.1273680    -0.8864290
  H       -5.0512890    -0.0405160     0.0001540
  H       -4.0504200     1.1271560     0.8870320
  H       -4.0505160     1.1274510    -0.8864430
units angstrom
no_reorient  #important for SAPT in psi4, default
symmetry c1  #important for SAPT in psi4, default
}

set PROPERTIES_ORIGIN ["COM"]
properties('MP2/aug-cc-pvtz', properties = ['dipole'])
--------------------------------------------------------------------------

    Molecular point group: c1
  Charge       = 0
  Multiplicity = 1
  Basis Set: AUG-CC-PVTZ
    Blend: AUG-CC-PVTZ
  Basis Set: (AUG-CC-PVTZ AUX)
    Blend: AUG-CC-PVTZ-JKFIT

    Orbital Energies [Eh]
    ---------------------

    Doubly Occupied:

       1A    -20.619729     2A    -20.619104     3A    -20.571718
       4A    -20.569348     5A    -11.407289     6A    -11.405980
       7A    -11.300548     8A    -11.299271     9A    -11.230777
      10A    -11.229644    11A     -1.489145    12A     -1.460925
      13A     -1.381845    14A     -1.366287    15A     -1.062662
      16A     -1.048426    17A     -0.946293    18A     -0.876626
      19A     -0.830990    20A     -0.787577    21A     -0.746526
      22A     -0.703344    23A     -0.702995    24A     -0.684589
      25A     -0.679750    26A     -0.611784    27A     -0.609620
      28A     -0.578582    29A     -0.575835    30A     -0.560679
      31A     -0.548445    32A     -0.524082    33A     -0.523149
      34A     -0.522573    35A     -0.519703    36A     -0.511117
      37A     -0.475462    38A     -0.465730    39A     -0.447647

  @DF-RHF Final Energy:  -532.69663501198511

   => Energetics <=

    Nuclear Repulsion Energy =            540.7872109120896766
    One-Electron Energy =               -1801.9760980503385781
    Two-Electron Energy =                 728.4922521262637929
    Total Energy =                       -532.6966350119851086
  Basis Set: (AUG-CC-PVTZ AUX)
    Blend: AUG-CC-PVTZ-RI
    Molecular point group: c1

    Geometry (in Angstrom), charge = 0, multiplicity = 1:

       Center              X                  Y                   Z               Mass
    ------------   -----------------  -----------------  -----------------  -----------------
         O            1.725086796035    -0.266918780895     0.019331444498    15.994914619570
         O           -1.730476403965     0.275735519105    -0.002336855502    15.994914619570
         O            0.558427596035     1.677416519105    -0.002525855502    15.994914619570
         O           -0.556913403965    -1.679888480895    -0.002682855502    15.994914619570
         C            2.958914596035     0.499959519105    -0.002257855502    12.000000000000
         C           -2.957405403965    -0.502433480895    -0.002395855502    12.000000000000
         C            4.096914596035    -0.493326480895    -0.002093855502    12.000000000000
         C           -4.095404403965     0.490854519105    -0.002167855502    12.000000000000
         C            0.612865596035     0.460020519105    -0.002434855502    12.000000000000
         C           -0.611353403965    -0.462493480895    -0.002502855502    12.000000000000
         H            2.963193596035     1.142855519105    -0.886566855502     1.007825032230
         H            2.963050596035     1.142984519105     0.881959144498     1.007825032230
         H           -2.961662403965    -1.145246480895    -0.886764855502     1.007825032230
         H           -2.961563403965    -1.145539480895     0.881761144498     1.007825032230
         H            5.052042596035     0.039281519105    -0.002057855502     1.007825032230
         H            4.051153596035    -1.128473480895     0.884687144498     1.007825032230
         H            4.051292596035    -1.128604480895    -0.888787855502     1.007825032230
         H           -5.050533403965    -0.041752480895    -0.002204855502     1.007825032230
         H           -4.049664403965     1.125919519105     0.884673144498     1.007825032230
         H           -4.049760403965     1.126214519105    -0.888801855502     1.007825032230

  Basis Set: AUG-CC-PVTZ
    Blend: AUG-CC-PVTZ
  Basis Set: (AUG-CC-PVTZ AUX)
    Blend: AUG-CC-PVTZ-JKFIT
	 Reference Energy          =    -532.6966350119851086 [Eh]
	 Singles Energy            =      -0.0000000000000000 [Eh]
	 Same-Spin Energy          =      -0.5154298755598388 [Eh]
	 Opposite-Spin Energy      =      -1.6260697322141804 [Eh]
	 Correlation Energy        =      -2.1414996077740192 [Eh]
	 Total Energy              =    -534.8381346197591029 [Eh]

	 ================> DF-SCS-MP2 Energies <==================
	-----------------------------------------------------------
	 SCS Same-Spin Scale       =       0.3333333333333333 [-]
	 SCS Opposite-Spin Scale   =       1.2000000000000000 [-]
	 SCS Same-Spin Energy      =      -0.1718099585199462 [Eh]
	 SCS Opposite-Spin Energy  =      -1.9512836786570165 [Eh]
	 SCS Correlation Energy    =      -2.1230936371769626 [Eh]
	 SCS Total Energy          =    -534.8197286491620162 [Eh]
	-----------------------------------------------------------

  Dipole Moment: [D]
     X:     0.0730      Y:    -0.0421      Z:    -0.0232     Total:     0.0874

*** Psi4 exiting successfully. Buy a developer a beer!
