                               Psi4 1.4a3.dev225

  ==> Input File <==

--------------------------------------------------------------------------
#psi4
#
memory 32 gb

molecule  {
0 1
  O        1.7312310    -0.2769730     0.0000590
  O       -1.7312320     0.2769720     0.0000220
  O        0.5576720     1.6786530    -0.0001670
  O       -0.5576690    -1.6786520    -0.0003240
  C        2.9715531     0.4796646     0.0001035
  C       -2.9581610    -0.5011970    -0.0000370
  C        4.0961590    -0.4920900     0.0002650
  C       -4.0961600     0.4920910     0.0001910
  C        0.6121100     0.4612570    -0.0000760
  C       -0.6121090    -0.4612570    -0.0001440
  H        2.9624380     1.1440920    -0.8842080
  H        2.9622950     1.1442210     0.8843180
  H       -2.9624180    -1.1440100    -0.8844060
  H       -2.9623190    -1.1443030     0.8841200
  H        5.0512870     0.0405180     0.0003010
  H        4.0503980    -1.1272370     0.8870460
  H        4.0505370    -1.1273680    -0.8864290
  H       -5.0512890    -0.0405160     0.0001540
  H       -4.0504200     1.1271560     0.8870320
  H       -4.0505160     1.1274510    -0.8864430
units angstrom
no_reorient  #important for SAPT in psi4, default
symmetry c1  #important for SAPT in psi4, default
}

set PROPERTIES_ORIGIN ["COM"]
properties('MP2/aug-cc-pvtz', properties = ['dipole'])
--------------------------------------------------------------------------

    Molecular point group: c1
  Charge       = 0
  Multiplicity = 1
  Basis Set: AUG-CC-PVTZ
    Blend: AUG-CC-PVTZ
  Basis Set: (AUG-CC-PVTZ AUX)
    Blend: AUG-CC-PVTZ-JKFIT

    Orbital Energies [Eh]
    ---------------------

    Doubly Occupied:

       1A    -20.619423     2A    -20.618604     3A    -20.571903
       4A    -20.571769     5A    -11.408019     6A    -11.407448
       7A    -11.300785     8A    -11.299489     9A    -11.229816
      10A    -11.229485    11A     -1.486967    12A     -1.458731
      13A     -1.382286    14A     -1.366542    15A     -1.064229
      16A     -1.049958    17A     -0.946948    18A     -0.875171
      19A     -0.829698    20A     -0.786513    21A     -0.745333
      22A     -0.703397    23A     -0.701612    24A     -0.682948
      25A     -0.679820    26A     -0.611828    27A     -0.609429
      28A     -0.578295    29A     -0.576880    30A     -0.562619
      31A     -0.550568    32A     -0.525316    33A     -0.523451
      34A     -0.521451    35A     -0.520253    36A     -0.509686
      37A     -0.474314    38A     -0.464224    39A     -0.448086

  @DF-RHF Final Energy:  -532.69486161079158

   => Energetics <=

    Nuclear Repulsion Energy =            540.5315745155720606
    One-Electron Energy =               -1801.4662831852904219
    Two-Electron Energy =                 728.2398470589268982
    Total Energy =                       -532.6948616107915768
  Basis Set: (AUG-CC-PVTZ AUX)
    Blend: AUG-CC-PVTZ-RI
    Molecular point group: c1

    Geometry (in Angstrom), charge = 0, multiplicity = 1:

       Center              X                  Y                   Z               Mass
    ------------   -----------------  -----------------  -----------------  -----------------
         O            1.730130545144    -0.275204025140     0.000068799502    15.994914619570
         O           -1.732332454856     0.278740974860     0.000031799502    15.994914619570
         O            0.556571545144     1.680421974860    -0.000157200498    15.994914619570
         O           -0.558769454856    -1.676883025140    -0.000314200498    15.994914619570
         C            2.970452645144     0.481433574860     0.000113299502    12.000000000000
         C           -2.959261454856    -0.499428025140    -0.000027200498    12.000000000000
         C            4.095058545144    -0.490321025140     0.000274799502    12.000000000000
         C           -4.097260454856     0.493859974860     0.000200799502    12.000000000000
         C            0.611009545144     0.463025974860    -0.000066200498    12.000000000000
         C           -0.613209454856    -0.459488025140    -0.000134200498    12.000000000000
         H            2.961337545144     1.145860974860    -0.884198200498     1.007825032230
         H            2.961194545144     1.145989974860     0.884327799502     1.007825032230
         H           -2.963518454856    -1.142241025140    -0.884396200498     1.007825032230
         H           -2.963419454856    -1.142534025140     0.884129799502     1.007825032230
         H            5.050186545144     0.042286974860     0.000310799502     1.007825032230
         H            4.049297545144    -1.125468025140     0.887055799502     1.007825032230
         H            4.049436545144    -1.125599025140    -0.886419200498     1.007825032230
         H           -5.052389454856    -0.038747025140     0.000163799502     1.007825032230
         H           -4.051520454856     1.128924974860     0.887041799502     1.007825032230
         H           -4.051616454856     1.129219974860    -0.886433200498     1.007825032230

  Basis Set: AUG-CC-PVTZ
    Blend: AUG-CC-PVTZ
  Basis Set: (AUG-CC-PVTZ AUX)
    Blend: AUG-CC-PVTZ-JKFIT
	 Reference Energy          =    -532.6948616107915768 [Eh]
	 Singles Energy            =      -0.0000000000000000 [Eh]
	 Same-Spin Energy          =      -0.5157934538349489 [Eh]
	 Opposite-Spin Energy      =      -1.6267432664794039 [Eh]
	 Correlation Energy        =      -2.1425367203143528 [Eh]
	 Total Energy              =    -534.8373983311058737 [Eh]

	 ================> DF-SCS-MP2 Energies <==================
	-----------------------------------------------------------
	 SCS Same-Spin Scale       =       0.3333333333333333 [-]
	 SCS Opposite-Spin Scale   =       1.2000000000000000 [-]
	 SCS Same-Spin Energy      =      -0.1719311512783163 [Eh]
	 SCS Opposite-Spin Energy  =      -1.9520919197752846 [Eh]
	 SCS Correlation Energy    =      -2.1240230710536010 [Eh]
	 SCS Total Energy          =    -534.8188846818451339 [Eh]
	-----------------------------------------------------------

  Dipole Moment: [D]
     X:     0.0428      Y:    -0.0318      Z:     0.0005     Total:     0.0533

*** Psi4 exiting successfully. Buy a developer a beer!
