                               Psi4 1.4a3.dev225

  ==> Input File <==

--------------------------------------------------------------------------
#psi4
#
memory 32 gb

molecule  {
0 1
  O        1.7312310    -0.2769730     0.0000590
  O       -1.7312320     0.2769720     0.0000220
  O        0.5576720     1.6786530    -0.0001670
  O       -0.5576690    -1.6786520    -0.0003240
  C        2.9581590     0.5011960     0.0001010
  C       -2.9581610    -0.5011970    -0.0000370
  C        4.0961590    -0.4920900     0.0002650
  C       -4.0961600     0.4920910     0.0001910
  C        0.6121100     0.4612570    -0.0000760
  C       -0.6121090    -0.4612570    -0.0001440
  H        2.9624380     1.1440920    -0.8842080
  H        2.9622950     1.1442210     0.8843180
  H       -2.9624180    -1.1440100    -0.8844060
  H       -2.9623190    -1.1443030     0.8841200
  H        5.0512870     0.0405180     0.0003010
  H        4.0503980    -1.1272370     0.8870460
  H        4.0505370    -1.1273680    -0.8864290
  H       -5.0173993    -0.0889832    -0.0978532
  H       -4.0504200     1.1271560     0.8870320
  H       -4.0505160     1.1274510    -0.8864430
units angstrom
no_reorient  #important for SAPT in psi4, default
symmetry c1  #important for SAPT in psi4, default
}

set PROPERTIES_ORIGIN ["COM"]
properties('MP2/aug-cc-pvtz', properties = ['dipole'])
--------------------------------------------------------------------------

    Molecular point group: c1
  Charge       = 0
  Multiplicity = 1
  Basis Set: AUG-CC-PVTZ
    Blend: AUG-CC-PVTZ
  Basis Set: (AUG-CC-PVTZ AUX)
    Blend: AUG-CC-PVTZ-JKFIT

    Orbital Energies [Eh]
    ---------------------

    Doubly Occupied:

       1A    -20.619376     2A    -20.618917     3A    -20.571933
       4A    -20.571845     5A    -11.407770     6A    -11.407182
       7A    -11.299471     8A    -11.298986     9A    -11.230166
      10A    -11.229825    11A     -1.487202    12A     -1.459011
      13A     -1.382338    14A     -1.366576    15A     -1.062100
      16A     -1.048096    17A     -0.945998    18A     -0.874906
      19A     -0.830915    20A     -0.787239    21A     -0.744758
      22A     -0.703671    23A     -0.702297    24A     -0.684023
      25A     -0.680137    26A     -0.611577    27A     -0.609767
      28A     -0.580615    29A     -0.575996    30A     -0.559268
      31A     -0.545624    32A     -0.524702    33A     -0.523797
      34A     -0.522224    35A     -0.519979    36A     -0.510973
      37A     -0.475717    38A     -0.466006    39A     -0.447869

  @DF-RHF Final Energy:  -532.69446251367037

   => Energetics <=

    Nuclear Repulsion Energy =            540.5781528964514564
    One-Electron Energy =               -1801.5675259218173778
    Two-Electron Energy =                 728.2949105116955479
    Total Energy =                       -532.6944625136703735
  Basis Set: (AUG-CC-PVTZ AUX)
    Blend: AUG-CC-PVTZ-RI
    Molecular point group: c1

    Geometry (in Angstrom), charge = 0, multiplicity = 1:

       Center              X                  Y                   Z               Mass
    ------------   -----------------  -----------------  -----------------  -----------------
         O            1.730997148760    -0.276638595472     0.000745271665    15.994914619570
         O           -1.731465851240     0.277306404528     0.000708271665    15.994914619570
         O            0.557438148760     1.678987404528     0.000519271665    15.994914619570
         O           -0.557902851240    -1.678317595472     0.000362271665    15.994914619570
         C            2.957925148760     0.501530404528     0.000787271665    12.000000000000
         C           -2.958394851240    -0.500862595472     0.000649271665    12.000000000000
         C            4.095925148760    -0.491755595472     0.000951271665    12.000000000000
         C           -4.096393851240     0.492425404528     0.000877271665    12.000000000000
         C            0.611876148760     0.461591404528     0.000610271665    12.000000000000
         C           -0.612342851240    -0.460922595472     0.000542271665    12.000000000000
         H            2.962204148760     1.144426404528    -0.883521728335     1.007825032230
         H            2.962061148760     1.144555404528     0.885004271665     1.007825032230
         H           -2.962651851240    -1.143675595472    -0.883719728335     1.007825032230
         H           -2.962552851240    -1.143968595472     0.884806271665     1.007825032230
         H            5.051053148760     0.040852404528     0.000987271665     1.007825032230
         H            4.050164148760    -1.126902595472     0.887732271665     1.007825032230
         H            4.050303148760    -1.127033595472    -0.885742728335     1.007825032230
         H           -5.017633151240    -0.088648795472    -0.097166928335     1.007825032230
         H           -4.050653851240     1.127490404528     0.887718271665     1.007825032230
         H           -4.050749851240     1.127785404528    -0.885756728335     1.007825032230

  Basis Set: AUG-CC-PVTZ
    Blend: AUG-CC-PVTZ
  Basis Set: (AUG-CC-PVTZ AUX)
    Blend: AUG-CC-PVTZ-JKFIT
	 Reference Energy          =    -532.6944625136703735 [Eh]
	 Singles Energy            =      -0.0000000000000000 [Eh]
	 Same-Spin Energy          =      -0.5157157693380622 [Eh]
	 Opposite-Spin Energy      =      -1.6267961701030162 [Eh]
	 Correlation Energy        =      -2.1425119394410785 [Eh]
	 Total Energy              =    -534.8369744531114520 [Eh]

	 ================> DF-SCS-MP2 Energies <==================
	-----------------------------------------------------------
	 SCS Same-Spin Scale       =       0.3333333333333333 [-]
	 SCS Opposite-Spin Scale   =       1.2000000000000000 [-]
	 SCS Same-Spin Energy      =      -0.1719052564460207 [Eh]
	 SCS Opposite-Spin Energy  =      -1.9521554041236193 [Eh]
	 SCS Correlation Energy    =      -2.1240606605696399 [Eh]
	 SCS Total Energy          =    -534.8185231742399992 [Eh]
	-----------------------------------------------------------

  Dipole Moment: [D]
     X:     0.0052      Y:    -0.0050      Z:    -0.0349     Total:     0.0356

*** Psi4 exiting successfully. Buy a developer a beer!
