                               Psi4 1.4a3.dev225

  ==> Input File <==

--------------------------------------------------------------------------
#psi4
#
memory 32 gb

molecule  {
0 1
  O        1.7312310    -0.2769730     0.0000590
  O       -1.7312320     0.2769720     0.0000220
  O        0.5576720     1.6786530    -0.0001670
  O       -0.5576690    -1.6786520    -0.0003240
  C        2.9581590     0.5011960     0.0001010
  C       -2.9581610    -0.5011970    -0.0000370
  C        4.0961590    -0.4920900     0.0002650
  C       -4.0961600     0.4920910     0.0001910
  C        0.6121100     0.4612570    -0.0000760
  C       -0.7718362    -0.5816199    -0.0001529
  H        2.9624380     1.1440920    -0.8842080
  H        2.9622950     1.1442210     0.8843180
  H       -2.9624180    -1.1440100    -0.8844060
  H       -2.9623190    -1.1443030     0.8841200
  H        5.0512870     0.0405180     0.0003010
  H        4.0503980    -1.1272370     0.8870460
  H        4.0505370    -1.1273680    -0.8864290
  H       -5.0512890    -0.0405160     0.0001540
  H       -4.0504200     1.1271560     0.8870320
  H       -4.0505160     1.1274510    -0.8864430
units angstrom
no_reorient  #important for SAPT in psi4, default
symmetry c1  #important for SAPT in psi4, default
}

set PROPERTIES_ORIGIN ["COM"]
properties('MP2/aug-cc-pvtz', properties = ['dipole'])
--------------------------------------------------------------------------

    Molecular point group: c1
  Charge       = 0
  Multiplicity = 1
  Basis Set: AUG-CC-PVTZ
    Blend: AUG-CC-PVTZ
  Basis Set: (AUG-CC-PVTZ AUX)
    Blend: AUG-CC-PVTZ-JKFIT

    Orbital Energies [Eh]
    ---------------------

    Doubly Occupied:

       1A    -20.636699     2A    -20.602647     3A    -20.582651
       4A    -20.546897     5A    -11.404877     6A    -11.377568
       7A    -11.309786     8A    -11.288221     9A    -11.236754
      10A    -11.222596    11A     -1.526000    12A     -1.449981
      13A     -1.446996    14A     -1.351228    15A     -1.063052
      16A     -1.039294    17A     -0.912307    18A     -0.871176
      19A     -0.824316    20A     -0.788425    21A     -0.737036
      22A     -0.724506    23A     -0.722570    24A     -0.676410
      25A     -0.670275    26A     -0.623009    27A     -0.618928
      28A     -0.577788    29A     -0.575334    30A     -0.564430
      31A     -0.546913    32A     -0.541562    33A     -0.541043
      34A     -0.520083    35A     -0.508168    36A     -0.505807
      37A     -0.495186    38A     -0.455475    39A     -0.400047

  @DF-RHF Final Energy:  -532.66224340706106

   => Energetics <=

    Nuclear Repulsion Energy =            540.7748203640787779
    One-Electron Energy =               -1801.9020470732964441
    Two-Electron Energy =                 728.4649833021566110
    Total Energy =                       -532.6622434070610552
  Basis Set: (AUG-CC-PVTZ AUX)
    Blend: AUG-CC-PVTZ-RI
    Molecular point group: c1

    Geometry (in Angstrom), charge = 0, multiplicity = 1:

       Center              X                  Y                   Z               Mass
    ------------   -----------------  -----------------  -----------------  -----------------
         O            1.744354051540    -0.267084108802     0.000069736117    15.994914619570
         O           -1.718108948460     0.286860891198     0.000032736117    15.994914619570
         O            0.570795051540     1.688541891198    -0.000156263883    15.994914619570
         O           -0.544545948460    -1.668763108802    -0.000313263883    15.994914619570
         C            2.971282051540     0.511084891198     0.000111736117    12.000000000000
         C           -2.945037948460    -0.491308108802    -0.000026263883    12.000000000000
         C            4.109282051540    -0.482201108802     0.000275736117    12.000000000000
         C           -4.083036948460     0.501979891198     0.000201736117    12.000000000000
         C            0.625233051540     0.471145891198    -0.000065263883    12.000000000000
         C           -0.758713148460    -0.571731008802    -0.000142163883    12.000000000000
         H            2.975561051540     1.153980891198    -0.884197263883     1.007825032230
         H            2.975418051540     1.154109891198     0.884328736117     1.007825032230
         H           -2.949294948460    -1.134121108802    -0.884395263883     1.007825032230
         H           -2.949195948460    -1.134414108802     0.884130736117     1.007825032230
         H            5.064410051540     0.050406891198     0.000311736117     1.007825032230
         H            4.063521051540    -1.117348108802     0.887056736117     1.007825032230
         H            4.063660051540    -1.117479108802    -0.886418263883     1.007825032230
         H           -5.038165948460    -0.030627108802     0.000164736117     1.007825032230
         H           -4.037296948460     1.137044891198     0.887042736117     1.007825032230
         H           -4.037392948460     1.137339891198    -0.886432263883     1.007825032230

  Basis Set: AUG-CC-PVTZ
    Blend: AUG-CC-PVTZ
  Basis Set: (AUG-CC-PVTZ AUX)
    Blend: AUG-CC-PVTZ-JKFIT
	 Reference Energy          =    -532.6622434070610552 [Eh]
	 Singles Energy            =      -0.0000000000000000 [Eh]
	 Same-Spin Energy          =      -0.5139883416385478 [Eh]
	 Opposite-Spin Energy      =      -1.6221052184711289 [Eh]
	 Correlation Energy        =      -2.1360935601096767 [Eh]
	 Total Energy              =    -534.7983369671707123 [Eh]

	 ================> DF-SCS-MP2 Energies <==================
	-----------------------------------------------------------
	 SCS Same-Spin Scale       =       0.3333333333333333 [-]
	 SCS Opposite-Spin Scale   =       1.2000000000000000 [-]
	 SCS Same-Spin Energy      =      -0.1713294472128493 [Eh]
	 SCS Opposite-Spin Energy  =      -1.9465262621653545 [Eh]
	 SCS Correlation Energy    =      -2.1178557093782038 [Eh]
	 SCS Total Energy          =    -534.7800991164392599 [Eh]
	-----------------------------------------------------------

  Dipole Moment: [D]
     X:    -1.1928      Y:    -0.6894      Z:     0.0004     Total:     1.3777

*** Psi4 exiting successfully. Buy a developer a beer!
