                               Psi4 1.4a3.dev225

  ==> Input File <==

--------------------------------------------------------------------------
#psi4
#
memory 32 gb

molecule  {
0 1
  O        1.7312310    -0.2769730     0.0000590
  O       -1.7312320     0.2769720     0.0000220
  O        0.5576720     1.6786530    -0.0001670
  O       -0.5576690    -1.6786520    -0.0003240
  C        2.9159354     0.4744160     0.0000996
  C       -2.9581610    -0.5011970    -0.0000370
  C        4.0961590    -0.4920900     0.0002650
  C       -4.0961600     0.4920910     0.0001910
  C        0.6121100     0.4612570    -0.0000760
  C       -0.6121090    -0.4612570    -0.0001440
  H        2.9624380     1.1440920    -0.8842080
  H        2.9622950     1.1442210     0.8843180
  H       -2.9624180    -1.1440100    -0.8844060
  H       -2.9623190    -1.1443030     0.8841200
  H        5.0512870     0.0405180     0.0003010
  H        4.0503980    -1.1272370     0.8870460
  H        4.0505370    -1.1273680    -0.8864290
  H       -5.0512890    -0.0405160     0.0001540
  H       -4.0504200     1.1271560     0.8870320
  H       -4.0505160     1.1274510    -0.8864430
units angstrom
no_reorient  #important for SAPT in psi4, default
symmetry c1  #important for SAPT in psi4, default
}

set PROPERTIES_ORIGIN ["COM"]
properties('MP2/aug-cc-pvtz', properties = ['dipole'])
--------------------------------------------------------------------------

    Molecular point group: c1
  Charge       = 0
  Multiplicity = 1
  Basis Set: AUG-CC-PVTZ
    Blend: AUG-CC-PVTZ
  Basis Set: (AUG-CC-PVTZ AUX)
    Blend: AUG-CC-PVTZ-JKFIT

    Orbital Energies [Eh]
    ---------------------

    Doubly Occupied:

       1A    -20.625174     2A    -20.621114     3A    -20.575966
       4A    -20.574092     5A    -11.411379     6A    -11.409907
       7A    -11.300702     8A    -11.298246     9A    -11.230739
      10A    -11.228212    11A     -1.494982    12A     -1.466122
      13A     -1.387420    14A     -1.371675    15A     -1.062222
      16A     -1.045862    17A     -0.948896    18A     -0.877878
      19A     -0.829546    20A     -0.791390    21A     -0.750040
      22A     -0.706934    23A     -0.705953    24A     -0.686215
      25A     -0.683800    26A     -0.617010    27A     -0.607770
      28A     -0.578698    29A     -0.577655    30A     -0.561277
      31A     -0.551357    32A     -0.525068    33A     -0.523263
      34A     -0.522974    35A     -0.512858    36A     -0.511036
      37A     -0.475053    38A     -0.464364    39A     -0.451146

  @DF-RHF Final Energy:  -532.69422753991375

   => Energetics <=

    Nuclear Repulsion Energy =            541.3840962271606259
    One-Electron Energy =               -1803.0286576203909590
    Two-Electron Energy =                 728.9503338533165788
    Total Energy =                       -532.6942275399137543
  Basis Set: (AUG-CC-PVTZ AUX)
    Blend: AUG-CC-PVTZ-RI
    Molecular point group: c1

    Geometry (in Angstrom), charge = 0, multiplicity = 1:

       Center              X                  Y                   Z               Mass
    ------------   -----------------  -----------------  -----------------  -----------------
         O            1.734700050523    -0.274772804397     0.000069119923    15.994914619570
         O           -1.727762949477     0.279172195603     0.000032119923    15.994914619570
         O            0.561141050523     1.680853195603    -0.000156880077    15.994914619570
         O           -0.554199949477    -1.676451804397    -0.000313880077    15.994914619570
         C            2.919404450523     0.476616195603     0.000109719923    12.000000000000
         C           -2.954691949477    -0.498996804397    -0.000026880077    12.000000000000
         C            4.099628050523    -0.489889804397     0.000275119923    12.000000000000
         C           -4.092690949477     0.494291195603     0.000201119923    12.000000000000
         C            0.615579050523     0.463457195603    -0.000065880077    12.000000000000
         C           -0.608639949477    -0.459056804397    -0.000133880077    12.000000000000
         H            2.965907050523     1.146292195603    -0.884197880077     1.007825032230
         H            2.965764050523     1.146421195603     0.884328119923     1.007825032230
         H           -2.958948949477    -1.141809804397    -0.884395880077     1.007825032230
         H           -2.958849949477    -1.142102804397     0.884130119923     1.007825032230
         H            5.054756050523     0.042718195603     0.000311119923     1.007825032230
         H            4.053867050523    -1.125036804397     0.887056119923     1.007825032230
         H            4.054006050523    -1.125167804397    -0.886418880077     1.007825032230
         H           -5.047819949477    -0.038315804397     0.000164119923     1.007825032230
         H           -4.046950949477     1.129356195603     0.887042119923     1.007825032230
         H           -4.047046949477     1.129651195603    -0.886432880077     1.007825032230

  Basis Set: AUG-CC-PVTZ
    Blend: AUG-CC-PVTZ
  Basis Set: (AUG-CC-PVTZ AUX)
    Blend: AUG-CC-PVTZ-JKFIT
	 Reference Energy          =    -532.6942275399137543 [Eh]
	 Singles Energy            =      -0.0000000000000000 [Eh]
	 Same-Spin Energy          =      -0.5156330377136424 [Eh]
	 Opposite-Spin Energy      =      -1.6263071280911197 [Eh]
	 Correlation Energy        =      -2.1419401658047619 [Eh]
	 Total Energy              =    -534.8361677057184806 [Eh]

	 ================> DF-SCS-MP2 Energies <==================
	-----------------------------------------------------------
	 SCS Same-Spin Scale       =       0.3333333333333333 [-]
	 SCS Opposite-Spin Scale   =       1.2000000000000000 [-]
	 SCS Same-Spin Energy      =      -0.1718776792378808 [Eh]
	 SCS Opposite-Spin Energy  =      -1.9515685537093435 [Eh]
	 SCS Correlation Energy    =      -2.1234462329472241 [Eh]
	 SCS Total Energy          =    -534.8176737728609851 [Eh]
	-----------------------------------------------------------

  Dipole Moment: [D]
     X:    -0.2368      Y:    -0.0352      Z:     0.0005     Total:     0.2394

*** Psi4 exiting successfully. Buy a developer a beer!
