                               Psi4 1.4a3.dev225

  ==> Input File <==

--------------------------------------------------------------------------
#psi4
#
memory 32 gb

molecule  {
0 1
  O        1.7312310    -0.2769730     0.0000590
  O       -1.7312320     0.2769720     0.0000220
  O        0.5576720     1.6786530    -0.0001670
  O       -0.5576690    -1.6786520    -0.0003240
  C        2.9581590     0.5011960     0.0001010
  C       -2.9581610    -0.5011970    -0.0000370
  C        4.0961590    -0.4920900     0.0002650
  C       -4.0961600     0.4920910     0.0001910
  C        0.6121100     0.4612570    -0.0000760
  C       -0.6121090    -0.4612570    -0.0001440
  H        2.9624380     1.1440920    -0.8842080
  H        2.9622950     1.1442210     0.8843180
  H       -2.9624180    -1.1440100    -0.8844060
  H       -2.9623190    -1.1443030     0.8841200
  H        5.0512870     0.0405180     0.0003010
  H        4.0503980    -1.1272370     0.8870460
  H        4.0505370    -1.1273680    -0.8864290
  H       -4.9639502     0.0081866     0.0001574
  H       -4.0504200     1.1271560     0.8870320
  H       -4.0505160     1.1274510    -0.8864430
units angstrom
no_reorient  #important for SAPT in psi4, default
symmetry c1  #important for SAPT in psi4, default
}

set PROPERTIES_ORIGIN ["COM"]
properties('MP2/aug-cc-pvtz', properties = ['dipole'])
--------------------------------------------------------------------------

    Molecular point group: c1
  Charge       = 0
  Multiplicity = 1
  Basis Set: AUG-CC-PVTZ
    Blend: AUG-CC-PVTZ
  Basis Set: (AUG-CC-PVTZ AUX)
    Blend: AUG-CC-PVTZ-JKFIT

    Orbital Energies [Eh]
    ---------------------

    Doubly Occupied:

       1A    -20.619234     2A    -20.618875     3A    -20.571749
       4A    -20.571631     5A    -11.407606     6A    -11.407011
       7A    -11.299356     8A    -11.298786     9A    -11.229731
      10A    -11.217376    11A     -1.487011    12A     -1.458815
      13A     -1.382137    14A     -1.366372    15A     -1.063614
      16A     -1.049773    17A     -0.949045    18A     -0.879632
      19A     -0.832432    20A     -0.786996    21A     -0.745930
      22A     -0.703450    23A     -0.702015    24A     -0.683612
      25A     -0.680082    26A     -0.610851    27A     -0.608920
      28A     -0.584399    29A     -0.577310    30A     -0.568949
      31A     -0.550464    32A     -0.523717    33A     -0.523120
      34A     -0.522110    35A     -0.520459    36A     -0.510865
      37A     -0.475489    38A     -0.465784    39A     -0.447991

  @DF-RHF Final Energy:  -532.68955114832511

   => Energetics <=

    Nuclear Repulsion Energy =            540.9916256300145960
    One-Electron Energy =               -1802.3569604171800620
    Two-Electron Energy =                 728.6757836388403575
    Total Energy =                       -532.6895511483251084
  Basis Set: (AUG-CC-PVTZ AUX)
    Blend: AUG-CC-PVTZ-RI
    Molecular point group: c1

    Geometry (in Angstrom), charge = 0, multiplicity = 1:

       Center              X                  Y                   Z               Mass
    ------------   -----------------  -----------------  -----------------  -----------------
         O            1.730628340653    -0.277309084031     0.000068981440    15.994914619570
         O           -1.731834659347     0.276635915969     0.000031981440    15.994914619570
         O            0.557069340653     1.678316915969    -0.000157018560    15.994914619570
         O           -0.558271659347    -1.678988084031    -0.000314018560    15.994914619570
         C            2.957556340653     0.500859915969     0.000110981440    12.000000000000
         C           -2.958763659347    -0.501533084031    -0.000027018560    12.000000000000
         C            4.095556340653    -0.492426084031     0.000274981440    12.000000000000
         C           -4.096762659347     0.491754915969     0.000200981440    12.000000000000
         C            0.611507340653     0.460920915969    -0.000066018560    12.000000000000
         C           -0.612711659347    -0.461593084031    -0.000134018560    12.000000000000
         H            2.961835340653     1.143755915969    -0.884198018560     1.007825032230
         H            2.961692340653     1.143884915969     0.884327981440     1.007825032230
         H           -2.963020659347    -1.144346084031    -0.884396018560     1.007825032230
         H           -2.962921659347    -1.144639084031     0.884129981440     1.007825032230
         H            5.050684340653     0.040181915969     0.000310981440     1.007825032230
         H            4.049795340653    -1.127573084031     0.887055981440     1.007825032230
         H            4.049934340653    -1.127704084031    -0.886419018560     1.007825032230
         H           -4.964552859347     0.007850515969     0.000167381440     1.007825032230
         H           -4.051022659347     1.126819915969     0.887041981440     1.007825032230
         H           -4.051118659347     1.127114915969    -0.886433018560     1.007825032230

  Basis Set: AUG-CC-PVTZ
    Blend: AUG-CC-PVTZ
  Basis Set: (AUG-CC-PVTZ AUX)
    Blend: AUG-CC-PVTZ-JKFIT
	 Reference Energy          =    -532.6895511483251084 [Eh]
	 Singles Energy            =      -0.0000000000000000 [Eh]
	 Same-Spin Energy          =      -0.5157227227040929 [Eh]
	 Opposite-Spin Energy      =      -1.6262597104769889 [Eh]
	 Correlation Energy        =      -2.1419824331810817 [Eh]
	 Total Energy              =    -534.8315335815061644 [Eh]

	 ================> DF-SCS-MP2 Energies <==================
	-----------------------------------------------------------
	 SCS Same-Spin Scale       =       0.3333333333333333 [-]
	 SCS Opposite-Spin Scale   =       1.2000000000000000 [-]
	 SCS Same-Spin Energy      =      -0.1719075742346976 [Eh]
	 SCS Opposite-Spin Energy  =      -1.9515116525723866 [Eh]
	 SCS Correlation Energy    =      -2.1234192268070844 [Eh]
	 SCS Total Energy          =    -534.8129703751321813 [Eh]
	-----------------------------------------------------------

  Dipole Moment: [D]
     X:    -0.0462      Y:    -0.0125      Z:     0.0005     Total:     0.0479

*** Psi4 exiting successfully. Buy a developer a beer!
