                               Psi4 1.4a3.dev225

  ==> Input File <==

--------------------------------------------------------------------------
#psi4
#
memory 32 gb

molecule  {
0 1
  O        1.7312310    -0.2769730     0.0000590
  O       -1.7312320     0.2769720     0.0000220
  O        0.5576720     1.6786530    -0.0001670
  O       -0.5576690    -1.6786520    -0.0003240
  C        2.9581590     0.5011960     0.0001010
  C       -2.9581610    -0.5011970    -0.0000370
  C        4.0961590    -0.4920900     0.0002650
  C       -4.0961600     0.4920910     0.0001910
  C        0.6121100     0.4612570    -0.0000760
  C       -0.6121090    -0.4612570    -0.0001440
  H        2.9624380     1.1440920    -0.8842080
  H        2.9622950     1.1442210     0.8843180
  H       -2.9624180    -1.1440100    -0.8844060
  H       -2.9623190    -1.1443030     0.8841200
  H        5.0512870     0.0405180     0.0003010
  H        4.0503980    -1.1272370     0.8870460
  H        4.0505370    -1.1273680    -0.8864290
  H       -5.0512890    -0.0405160     0.0001540
  H       -4.0504200     1.1271560     0.8870320
  H       -4.0421543     1.2438455    -1.0488696
units angstrom
no_reorient  #important for SAPT in psi4, default
symmetry c1  #important for SAPT in psi4, default
}

set PROPERTIES_ORIGIN ["COM"]
properties('MP2/aug-cc-pvtz', properties = ['dipole'])
--------------------------------------------------------------------------

    Molecular point group: c1
  Charge       = 0
  Multiplicity = 1
  Basis Set: AUG-CC-PVTZ
    Blend: AUG-CC-PVTZ
  Basis Set: (AUG-CC-PVTZ AUX)
    Blend: AUG-CC-PVTZ-JKFIT

    Orbital Energies [Eh]
    ---------------------

    Doubly Occupied:

       1A    -20.620134     2A    -20.619653     3A    -20.572536
       4A    -20.572219     5A    -11.408381     6A    -11.407753
       7A    -11.302265     8A    -11.299657     9A    -11.252493
      10A    -11.229975    11A     -1.487804    12A     -1.459636
      13A     -1.382861    14A     -1.367121    15A     -1.060850
      16A     -1.045620    17A     -0.943506    18A     -0.870946
      19A     -0.828586    20A     -0.787540    21A     -0.745259
      22A     -0.704055    23A     -0.702206    24A     -0.683435
      25A     -0.680196    26A     -0.611758    27A     -0.605519
      28A     -0.578200    29A     -0.569486    30A     -0.559375
      31A     -0.549136    32A     -0.525729    33A     -0.523922
      34A     -0.520979    35A     -0.516024    36A     -0.495093
      37A     -0.474354    38A     -0.465357    39A     -0.448441

  @DF-RHF Final Energy:  -532.67564691874782

   => Energetics <=

    Nuclear Repulsion Energy =            539.7822203533798984
    One-Electron Energy =               -1799.9596118110416683
    Two-Electron Energy =                 727.5017445389139539
    Total Energy =                       -532.6756469187478160
  Basis Set: (AUG-CC-PVTZ AUX)
    Blend: AUG-CC-PVTZ-RI
    Molecular point group: c1

    Geometry (in Angstrom), charge = 0, multiplicity = 1:

       Center              X                  Y                   Z               Mass
    ------------   -----------------  -----------------  -----------------  -----------------
         O            1.731173296410    -0.277776169941     0.001189776755    15.994914619570
         O           -1.731289703590     0.276168830059     0.001152776755    15.994914619570
         O            0.557614296410     1.677849830059     0.000963776755    15.994914619570
         O           -0.557726703590    -1.679455169941     0.000806776755    15.994914619570
         C            2.958101296410     0.500392830059     0.001231776755    12.000000000000
         C           -2.958218703590    -0.502000169941     0.001093776755    12.000000000000
         C            4.096101296410    -0.492893169941     0.001395776755    12.000000000000
         C           -4.096217703590     0.491287830059     0.001321776755    12.000000000000
         C            0.612052296410     0.460453830059     0.001054776755    12.000000000000
         C           -0.612166703590    -0.462060169941     0.000986776755    12.000000000000
         H            2.962380296410     1.143288830059    -0.883077223245     1.007825032230
         H            2.962237296410     1.143417830059     0.885448776755     1.007825032230
         H           -2.962475703590    -1.144813169941    -0.883275223245     1.007825032230
         H           -2.962376703590    -1.145106169941     0.885250776755     1.007825032230
         H            5.051229296410     0.039714830059     0.001431776755     1.007825032230
         H            4.050340296410    -1.128040169941     0.888176776755     1.007825032230
         H            4.050479296410    -1.128171169941    -0.885298223245     1.007825032230
         H           -5.051346703590    -0.041319169941     0.001284776755     1.007825032230
         H           -4.050477703590     1.126352830059     0.888162776755     1.007825032230
         H           -4.042212003590     1.243042330059    -1.047738823245     1.007825032230

  Basis Set: AUG-CC-PVTZ
    Blend: AUG-CC-PVTZ
  Basis Set: (AUG-CC-PVTZ AUX)
    Blend: AUG-CC-PVTZ-JKFIT
	 Reference Energy          =    -532.6756469187478160 [Eh]
	 Singles Energy            =      -0.0000000000000000 [Eh]
	 Same-Spin Energy          =      -0.5155494899333468 [Eh]
	 Opposite-Spin Energy      =      -1.6281566366981570 [Eh]
	 Correlation Energy        =      -2.1437061266315038 [Eh]
	 Total Energy              =    -534.8193530453793301 [Eh]

	 ================> DF-SCS-MP2 Energies <==================
	-----------------------------------------------------------
	 SCS Same-Spin Scale       =       0.3333333333333333 [-]
	 SCS Opposite-Spin Scale   =       1.2000000000000000 [-]
	 SCS Same-Spin Energy      =      -0.1718498299777823 [Eh]
	 SCS Opposite-Spin Energy  =      -1.9537879640377884 [Eh]
	 SCS Correlation Energy    =      -2.1256377940155708 [Eh]
	 SCS Total Energy          =    -534.8012847127633904 [Eh]
	-----------------------------------------------------------

  Dipole Moment: [D]
     X:     0.0352      Y:    -0.0720      Z:     0.0844     Total:     0.1164

*** Psi4 exiting successfully. Buy a developer a beer!
