                               Psi4 1.4a3.dev225

  ==> Input File <==

--------------------------------------------------------------------------
#psi4
#
memory 32 gb

molecule  {
0 1
  O        1.7312310    -0.2769730     0.0000590
  O       -1.7312320     0.2769720     0.0000220
  O        0.5576720     1.6786530    -0.0001670
  O       -0.5576690    -1.6786520    -0.0003240
  C        2.9581590     0.5011960     0.0001010
  C       -2.9581610    -0.5011970    -0.0000370
  C        4.0961590    -0.4920900     0.0002650
  C       -4.0961600     0.4920910     0.0001910
  C        0.6121100     0.4612570    -0.0000760
  C       -0.6121090    -0.4612570    -0.0001440
  H        2.9624380     1.1440920    -0.8842080
  H        2.9622950     1.1442210     0.8843180
  H       -2.9624180    -1.1440100    -0.8844060
  H       -2.9623190    -1.1443030     0.8841200
  H        5.0512870     0.0405180     0.0003010
  H        4.0440038    -1.2162130     0.8156251
  H        4.0505370    -1.1273680    -0.8864290
  H       -5.0512890    -0.0405160     0.0001540
  H       -4.0504200     1.1271560     0.8870320
  H       -4.0505160     1.1274510    -0.8864430
units angstrom
no_reorient  #important for SAPT in psi4, default
symmetry c1  #important for SAPT in psi4, default
}

set PROPERTIES_ORIGIN ["COM"]
properties('MP2/aug-cc-pvtz', properties = ['dipole'])
--------------------------------------------------------------------------

    Molecular point group: c1
  Charge       = 0
  Multiplicity = 1
  Basis Set: AUG-CC-PVTZ
    Blend: AUG-CC-PVTZ
  Basis Set: (AUG-CC-PVTZ AUX)
    Blend: AUG-CC-PVTZ-JKFIT

    Orbital Energies [Eh]
    ---------------------

    Doubly Occupied:

       1A    -20.619702     2A    -20.619570     3A    -20.572206
       4A    -20.572164     5A    -11.408133     6A    -11.407563
       7A    -11.300397     8A    -11.299603     9A    -11.229918
      10A    -11.229544    11A     -1.487554    12A     -1.459374
      13A     -1.382648    14A     -1.366899    15A     -1.061707
      16A     -1.047486    17A     -0.946077    18A     -0.876060
      19A     -0.832260    20A     -0.787596    21A     -0.745257
      22A     -0.703965    23A     -0.702159    24A     -0.683388
      25A     -0.680447    26A     -0.612923    27A     -0.607471
      28A     -0.579255    29A     -0.574836    30A     -0.561381
      31A     -0.547880    32A     -0.528451    33A     -0.523878
      34A     -0.520711    35A     -0.519717    36A     -0.508430
      37A     -0.475607    38A     -0.466047    39A     -0.448316

  @DF-RHF Final Energy:  -532.69449933128840

   => Energetics <=

    Nuclear Repulsion Energy =            540.4773117478408722
    One-Electron Energy =               -1801.3504650841409784
    Two-Electron Energy =                 728.1786540050118219
    Total Energy =                       -532.6944993312883980
  Basis Set: (AUG-CC-PVTZ AUX)
    Blend: AUG-CC-PVTZ-RI
    Molecular point group: c1

    Geometry (in Angstrom), charge = 0, multiplicity = 1:

       Center              X                  Y                   Z               Mass
    ------------   -----------------  -----------------  -----------------  -----------------
         O            1.731275114693    -0.276359077690     0.000561821561    15.994914619570
         O           -1.731187885307     0.277585922310     0.000524821561    15.994914619570
         O            0.557716114693     1.679266922310     0.000335821561    15.994914619570
         O           -0.557624885307    -1.678038077690     0.000178821561    15.994914619570
         C            2.958203114693     0.501809922310     0.000603821561    12.000000000000
         C           -2.958116885307    -0.500583077690     0.000465821561    12.000000000000
         C            4.096203114693    -0.491476077690     0.000767821561    12.000000000000
         C           -4.096115885307     0.492704922310     0.000693821561    12.000000000000
         C            0.612154114693     0.461870922310     0.000426821561    12.000000000000
         C           -0.612064885307    -0.460643077690     0.000358821561    12.000000000000
         H            2.962482114693     1.144705922310    -0.883705178439     1.007825032230
         H            2.962339114693     1.144834922310     0.884820821561     1.007825032230
         H           -2.962373885307    -1.143396077690    -0.883903178439     1.007825032230
         H           -2.962274885307    -1.143689077690     0.884622821561     1.007825032230
         H            5.051331114693     0.041131922310     0.000803821561     1.007825032230
         H            4.044047914693    -1.215599077690     0.816127921561     1.007825032230
         H            4.050581114693    -1.126754077690    -0.885926178439     1.007825032230
         H           -5.051244885307    -0.039902077690     0.000656821561     1.007825032230
         H           -4.050375885307     1.127769922310     0.887534821561     1.007825032230
         H           -4.050471885307     1.128064922310    -0.885940178439     1.007825032230

  Basis Set: AUG-CC-PVTZ
    Blend: AUG-CC-PVTZ
  Basis Set: (AUG-CC-PVTZ AUX)
    Blend: AUG-CC-PVTZ-JKFIT
	 Reference Energy          =    -532.6944993312883980 [Eh]
	 Singles Energy            =      -0.0000000000000000 [Eh]
	 Same-Spin Energy          =      -0.5156654512996102 [Eh]
	 Opposite-Spin Energy      =      -1.6266843725792723 [Eh]
	 Correlation Energy        =      -2.1423498238788827 [Eh]
	 Total Energy              =    -534.8368491551673287 [Eh]

	 ================> DF-SCS-MP2 Energies <==================
	-----------------------------------------------------------
	 SCS Same-Spin Scale       =       0.3333333333333333 [-]
	 SCS Opposite-Spin Scale   =       1.2000000000000000 [-]
	 SCS Same-Spin Energy      =      -0.1718884837665367 [Eh]
	 SCS Opposite-Spin Energy  =      -1.9520212470951268 [Eh]
	 SCS Correlation Energy    =      -2.1239097308616635 [Eh]
	 SCS Total Energy          =    -534.8184090621500673 [Eh]
	-----------------------------------------------------------

  Dipole Moment: [D]
     X:    -0.0215      Y:    -0.0274      Z:    -0.0173     Total:     0.0389

*** Psi4 exiting successfully. Buy a developer a beer!
