                               Psi4 1.4a3.dev225

  ==> Input File <==

--------------------------------------------------------------------------
#psi4
#
memory 32 gb

molecule  {
0 1
  O        1.7312310    -0.2769730     0.0000590
  O       -1.8192941     0.4009581     0.0000474
  O        0.5576720     1.6786530    -0.0001670
  O       -0.5576690    -1.6786520    -0.0003240
  C        2.9581590     0.5011960     0.0001010
  C       -2.9581610    -0.5011970    -0.0000370
  C        4.0961590    -0.4920900     0.0002650
  C       -4.0961600     0.4920910     0.0001910
  C        0.6121100     0.4612570    -0.0000760
  C       -0.6121090    -0.4612570    -0.0001440
  H        2.9624380     1.1440920    -0.8842080
  H        2.9622950     1.1442210     0.8843180
  H       -2.9624180    -1.1440100    -0.8844060
  H       -2.9623190    -1.1443030     0.8841200
  H        5.0512870     0.0405180     0.0003010
  H        4.0503980    -1.1272370     0.8870460
  H        4.0505370    -1.1273680    -0.8864290
  H       -5.0512890    -0.0405160     0.0001540
  H       -4.0504200     1.1271560     0.8870320
  H       -4.0505160     1.1274510    -0.8864430
units angstrom
no_reorient  #important for SAPT in psi4, default
symmetry c1  #important for SAPT in psi4, default
}

set PROPERTIES_ORIGIN ["COM"]
properties('MP2/aug-cc-pvtz', properties = ['dipole'])
--------------------------------------------------------------------------

    Molecular point group: c1
  Charge       = 0
  Multiplicity = 1
  Basis Set: AUG-CC-PVTZ
    Blend: AUG-CC-PVTZ
  Basis Set: (AUG-CC-PVTZ AUX)
    Blend: AUG-CC-PVTZ-JKFIT

    Orbital Energies [Eh]
    ---------------------

    Doubly Occupied:

       1A    -20.623934     2A    -20.615306     3A    -20.600102
       4A    -20.576325     5A    -11.424729     6A    -11.413647
       7A    -11.302662     8A    -11.289318     9A    -11.232482
      10A    -11.219993    11A     -1.483603    12A     -1.441997
      13A     -1.384190    14A     -1.365303    15A     -1.060247
      16A     -1.032573    17A     -0.945606    18A     -0.863859
      19A     -0.835669    20A     -0.786318    21A     -0.728394
      22A     -0.710975    23A     -0.699929    24A     -0.682874
      25A     -0.674015    26A     -0.608946    27A     -0.606802
      28A     -0.581563    29A     -0.570892    30A     -0.559285
      31A     -0.543011    32A     -0.527533    33A     -0.525558
      34A     -0.522867    35A     -0.515118    36A     -0.514873
      37A     -0.477701    38A     -0.468514    39A     -0.450072

  @DF-RHF Final Energy:  -532.66744380910109

   => Energetics <=

    Nuclear Repulsion Energy =            537.3668594755674803
    One-Electron Energy =               -1795.1350310835848632
    Two-Electron Energy =                 725.1007277989162958
    Total Energy =                       -532.6674438091010870
  Basis Set: (AUG-CC-PVTZ AUX)
    Blend: AUG-CC-PVTZ-RI
    Molecular point group: c1

    Geometry (in Angstrom), charge = 0, multiplicity = 1:

       Center              X                  Y                   Z               Mass
    ------------   -----------------  -----------------  -----------------  -----------------
         O            1.740874742316    -0.290550841358     0.000066223327    15.994914619570
         O           -1.809650357684     0.387380258642     0.000054623327    15.994914619570
         O            0.567315742316     1.665075158642    -0.000159776673    15.994914619570
         O           -0.548025257684    -1.692229841358    -0.000316776673    15.994914619570
         C            2.967802742316     0.487618158642     0.000108223327    12.000000000000
         C           -2.948517257684    -0.514774841358    -0.000029776673    12.000000000000
         C            4.105802742316    -0.505667841358     0.000272223327    12.000000000000
         C           -4.086516257684     0.478513158642     0.000198223327    12.000000000000
         C            0.621753742316     0.447679158642    -0.000068776673    12.000000000000
         C           -0.602465257684    -0.474834841358    -0.000136776673    12.000000000000
         H            2.972081742316     1.130514158642    -0.884200776673     1.007825032230
         H            2.971938742316     1.130643158642     0.884325223327     1.007825032230
         H           -2.952774257684    -1.157587841358    -0.884398776673     1.007825032230
         H           -2.952675257684    -1.157880841358     0.884127223327     1.007825032230
         H            5.060930742316     0.026940158642     0.000308223327     1.007825032230
         H            4.060041742316    -1.140814841358     0.887053223327     1.007825032230
         H            4.060180742316    -1.140945841358    -0.886421776673     1.007825032230
         H           -5.041645257684    -0.054093841358     0.000161223327     1.007825032230
         H           -4.040776257684     1.113578158642     0.887039223327     1.007825032230
         H           -4.040872257684     1.113873158642    -0.886435776673     1.007825032230

  Basis Set: AUG-CC-PVTZ
    Blend: AUG-CC-PVTZ
  Basis Set: (AUG-CC-PVTZ AUX)
    Blend: AUG-CC-PVTZ-JKFIT
	 Reference Energy          =    -532.6674438091010870 [Eh]
	 Singles Energy            =      -0.0000000000000000 [Eh]
	 Same-Spin Energy          =      -0.5184863706120650 [Eh]
	 Opposite-Spin Energy      =      -1.6346130426875152 [Eh]
	 Correlation Energy        =      -2.1530994132995804 [Eh]
	 Total Energy              =    -534.8205432224007154 [Eh]

	 ================> DF-SCS-MP2 Energies <==================
	-----------------------------------------------------------
	 SCS Same-Spin Scale       =       0.3333333333333333 [-]
	 SCS Opposite-Spin Scale   =       1.2000000000000000 [-]
	 SCS Same-Spin Energy      =      -0.1728287902040217 [Eh]
	 SCS Opposite-Spin Energy  =      -1.9615356512250182 [Eh]
	 SCS Correlation Energy    =      -2.1343644414290397 [Eh]
	 SCS Total Energy          =    -534.8018082505301436 [Eh]
	-----------------------------------------------------------

  Dipole Moment: [D]
     X:     0.8809      Y:    -0.4555      Z:     0.0004     Total:     0.9917

*** Psi4 exiting successfully. Buy a developer a beer!
