                               Psi4 1.4a3.dev225

  ==> Input File <==

--------------------------------------------------------------------------
#psi4
#
memory 32 gb

molecule  {
0 1
  O        1.7312310    -0.2769730     0.0000590
  O       -1.7312320     0.2769720     0.0000220
  O        0.5576720     1.6786530    -0.0001670
  O       -0.5576690    -1.6786520    -0.0003240
  C        2.9845693     0.4579028     0.0001059
  C       -2.9581610    -0.5011970    -0.0000370
  C        4.0961590    -0.4920900     0.0002650
  C       -4.0961600     0.4920910     0.0001910
  C        0.6121100     0.4612570    -0.0000760
  C       -0.6121090    -0.4612570    -0.0001440
  H        2.9624380     1.1440920    -0.8842080
  H        2.9622950     1.1442210     0.8843180
  H       -2.9624180    -1.1440100    -0.8844060
  H       -2.9623190    -1.1443030     0.8841200
  H        5.0512870     0.0405180     0.0003010
  H        4.0503980    -1.1272370     0.8870460
  H        4.0505370    -1.1273680    -0.8864290
  H       -5.0512890    -0.0405160     0.0001540
  H       -4.0504200     1.1271560     0.8870320
  H       -4.0505160     1.1274510    -0.8864430
units angstrom
no_reorient  #important for SAPT in psi4, default
symmetry c1  #important for SAPT in psi4, default
}

set PROPERTIES_ORIGIN ["COM"]
properties('MP2/aug-cc-pvtz', properties = ['dipole'])
--------------------------------------------------------------------------

    Molecular point group: c1
  Charge       = 0
  Multiplicity = 1
  Basis Set: AUG-CC-PVTZ
    Blend: AUG-CC-PVTZ
  Basis Set: (AUG-CC-PVTZ AUX)
    Blend: AUG-CC-PVTZ-JKFIT

    Orbital Energies [Eh]
    ---------------------

    Doubly Occupied:

       1A    -20.619375     2A    -20.617775     3A    -20.571769
       4A    -20.571517     5A    -11.408068     6A    -11.407482
       7A    -11.302181     8A    -11.299444     9A    -11.229765
      10A    -11.229057    11A     -1.486554    12A     -1.458246
      13A     -1.382081    14A     -1.366339    15A     -1.067669
      16A     -1.051565    17A     -0.947877    18A     -0.874964
      19A     -0.828006    20A     -0.785643    21A     -0.745589
      22A     -0.703081    23A     -0.700955    24A     -0.681937
      25A     -0.679549    26A     -0.612722    27A     -0.609626
      28A     -0.578772    29A     -0.577526    30A     -0.566726
      31A     -0.552693    32A     -0.525226    33A     -0.523025
      34A     -0.520539    35A     -0.520049    36A     -0.507891
      37A     -0.473140    38A     -0.461457    39A     -0.448018

  @DF-RHF Final Energy:  -532.69246724941956

   => Energetics <=

    Nuclear Repulsion Energy =            540.5633393236648772
    One-Electron Energy =               -1801.5238159816540247
    Two-Electron Energy =                 728.2680094085695828
    Total Energy =                       -532.6924672494195647
  Basis Set: (AUG-CC-PVTZ AUX)
    Blend: AUG-CC-PVTZ-RI
    Molecular point group: c1

    Geometry (in Angstrom), charge = 0, multiplicity = 1:

       Center              X                  Y                   Z               Mass
    ------------   -----------------  -----------------  -----------------  -----------------
         O            1.729061144648    -0.273416093202     0.000068602320    15.994914619570
         O           -1.733401855352     0.280528906798     0.000031602320    15.994914619570
         O            0.555502144648     1.682209906798    -0.000157397680    15.994914619570
         O           -0.559838855352    -1.675095093202    -0.000314397680    15.994914619570
         C            2.982399444648     0.461459706798     0.000115502320    12.000000000000
         C           -2.960330855352    -0.497640093202    -0.000027397680    12.000000000000
         C            4.093989144648    -0.488533093202     0.000274602320    12.000000000000
         C           -4.098329855352     0.495647906798     0.000200602320    12.000000000000
         C            0.609940144648     0.464813906798    -0.000066397680    12.000000000000
         C           -0.614278855352    -0.457700093202    -0.000134397680    12.000000000000
         H            2.960268144648     1.147648906798    -0.884198397680     1.007825032230
         H            2.960125144648     1.147777906798     0.884327602320     1.007825032230
         H           -2.964587855352    -1.140453093202    -0.884396397680     1.007825032230
         H           -2.964488855352    -1.140746093202     0.884129602320     1.007825032230
         H            5.049117144648     0.044074906798     0.000310602320     1.007825032230
         H            4.048228144648    -1.123680093202     0.887055602320     1.007825032230
         H            4.048367144648    -1.123811093202    -0.886419397680     1.007825032230
         H           -5.053458855352    -0.036959093202     0.000163602320     1.007825032230
         H           -4.052589855352     1.130712906798     0.887041602320     1.007825032230
         H           -4.052685855352     1.131007906798    -0.886433397680     1.007825032230

  Basis Set: AUG-CC-PVTZ
    Blend: AUG-CC-PVTZ
  Basis Set: (AUG-CC-PVTZ AUX)
    Blend: AUG-CC-PVTZ-JKFIT
	 Reference Energy          =    -532.6924672494195647 [Eh]
	 Singles Energy            =      -0.0000000000000000 [Eh]
	 Same-Spin Energy          =      -0.5160036386636722 [Eh]
	 Opposite-Spin Energy      =      -1.6269133491467154 [Eh]
	 Correlation Energy        =      -2.1429169878103878 [Eh]
	 Total Energy              =    -534.8353842372299596 [Eh]

	 ================> DF-SCS-MP2 Energies <==================
	-----------------------------------------------------------
	 SCS Same-Spin Scale       =       0.3333333333333333 [-]
	 SCS Opposite-Spin Scale   =       1.2000000000000000 [-]
	 SCS Same-Spin Energy      =      -0.1720012128878907 [Eh]
	 SCS Opposite-Spin Energy  =      -1.9522960189760583 [Eh]
	 SCS Correlation Energy    =      -2.1242972318639488 [Eh]
	 SCS Total Energy          =    -534.8167644812834851 [Eh]
	-----------------------------------------------------------

  Dipole Moment: [D]
     X:     0.0850      Y:    -0.0652      Z:     0.0005     Total:     0.1071

*** Psi4 exiting successfully. Buy a developer a beer!
