                               Psi4 1.4a3.dev225

  ==> Input File <==

--------------------------------------------------------------------------
#psi4
#
memory 32 gb

molecule  {
0 1
  O        1.7312310    -0.2769730     0.0000590
  O       -1.7312320     0.2769720     0.0000220
  O        0.5576720     1.6786530    -0.0001670
  O       -0.5576690    -1.6786520    -0.0003240
  C        2.9581590     0.5011960     0.0001010
  C       -2.9581610    -0.5011970    -0.0000370
  C        4.0961590    -0.4920900     0.0002650
  C       -4.0961600     0.4920910     0.0001910
  C        0.6121100     0.4612570    -0.0000760
  C       -0.6919726    -0.5214385    -0.0001484
  H        2.9624380     1.1440920    -0.8842080
  H        2.9622950     1.1442210     0.8843180
  H       -2.9624180    -1.1440100    -0.8844060
  H       -2.9623190    -1.1443030     0.8841200
  H        5.0512870     0.0405180     0.0003010
  H        4.0503980    -1.1272370     0.8870460
  H        4.0505370    -1.1273680    -0.8864290
  H       -5.0512890    -0.0405160     0.0001540
  H       -4.0504200     1.1271560     0.8870320
  H       -4.0505160     1.1274510    -0.8864430
units angstrom
no_reorient  #important for SAPT in psi4, default
symmetry c1  #important for SAPT in psi4, default
}

set PROPERTIES_ORIGIN ["COM"]
properties('MP2/aug-cc-pvtz', properties = ['dipole'])
--------------------------------------------------------------------------

    Molecular point group: c1
  Charge       = 0
  Multiplicity = 1
  Basis Set: AUG-CC-PVTZ
    Blend: AUG-CC-PVTZ
  Basis Set: (AUG-CC-PVTZ AUX)
    Blend: AUG-CC-PVTZ-JKFIT

    Orbital Energies [Eh]
    ---------------------

    Doubly Occupied:

       1A    -20.626956     2A    -20.612176     3A    -20.574427
       4A    -20.560607     5A    -11.403440     6A    -11.396159
       7A    -11.303791     8A    -11.294611     9A    -11.232837
      10A    -11.226688    11A     -1.501796    12A     -1.458900
      13A     -1.411763    14A     -1.363167    15A     -1.059868
      16A     -1.045442    17A     -0.924930    18A     -0.874282
      19A     -0.824494    20A     -0.789837    21A     -0.741224
      22A     -0.709906    23A     -0.708756    24A     -0.683032
      25A     -0.679654    26A     -0.615650    27A     -0.612504
      28A     -0.579860    29A     -0.573966    30A     -0.560490
      31A     -0.546442    32A     -0.533432    33A     -0.528790
      34A     -0.524059    35A     -0.517296    36A     -0.511353
      37A     -0.484350    38A     -0.463364    39A     -0.428091

  @DF-RHF Final Energy:  -532.69129707554396

   => Energetics <=

    Nuclear Repulsion Energy =            540.6243340158986257
    One-Electron Energy =               -1801.6544787525995162
    Two-Electron Energy =                 728.3388476611570468
    Total Energy =                       -532.6912970755439574
  Basis Set: (AUG-CC-PVTZ AUX)
    Blend: AUG-CC-PVTZ-RI
    Molecular point group: c1

    Geometry (in Angstrom), charge = 0, multiplicity = 1:

       Center              X                  Y                   Z               Mass
    ------------   -----------------  -----------------  -----------------  -----------------
         O            1.737792522569    -0.272028564094     0.000069366401    15.994914619570
         O           -1.724670477431     0.281916435906     0.000032366401    15.994914619570
         O            0.564233522569     1.683597435906    -0.000156633599    15.994914619570
         O           -0.551107477431    -1.673707564094    -0.000313633599    15.994914619570
         C            2.964720522569     0.506140435906     0.000111366401    12.000000000000
         C           -2.951599477431    -0.496252564094    -0.000026633599    12.000000000000
         C            4.102720522569    -0.487145564094     0.000275366401    12.000000000000
         C           -4.089598477431     0.497035435906     0.000201366401    12.000000000000
         C            0.618671522569     0.466201435906    -0.000065633599    12.000000000000
         C           -0.685411077431    -0.516494064094    -0.000138033599    12.000000000000
         H            2.968999522569     1.149036435906    -0.884197633599     1.007825032230
         H            2.968856522569     1.149165435906     0.884328366401     1.007825032230
         H           -2.955856477431    -1.139065564094    -0.884395633599     1.007825032230
         H           -2.955757477431    -1.139358564094     0.884130366401     1.007825032230
         H            5.057848522569     0.045462435906     0.000311366401     1.007825032230
         H            4.056959522569    -1.122292564094     0.887056366401     1.007825032230
         H            4.057098522569    -1.122423564094    -0.886418633599     1.007825032230
         H           -5.044727477431    -0.035571564094     0.000164366401     1.007825032230
         H           -4.043858477431     1.132100435906     0.887042366401     1.007825032230
         H           -4.043954477431     1.132395435906    -0.886432633599     1.007825032230

  Basis Set: AUG-CC-PVTZ
    Blend: AUG-CC-PVTZ
  Basis Set: (AUG-CC-PVTZ AUX)
    Blend: AUG-CC-PVTZ-JKFIT
	 Reference Energy          =    -532.6912970755439574 [Eh]
	 Singles Energy            =      -0.0000000000000000 [Eh]
	 Same-Spin Energy          =      -0.5142244757161095 [Eh]
	 Opposite-Spin Energy      =      -1.6231915356085902 [Eh]
	 Correlation Energy        =      -2.1374160113246998 [Eh]
	 Total Energy              =    -534.8287130868686745 [Eh]

	 ================> DF-SCS-MP2 Energies <==================
	-----------------------------------------------------------
	 SCS Same-Spin Scale       =       0.3333333333333333 [-]
	 SCS Opposite-Spin Scale   =       1.2000000000000000 [-]
	 SCS Same-Spin Energy      =      -0.1714081585720365 [Eh]
	 SCS Opposite-Spin Energy  =      -1.9478298427303082 [Eh]
	 SCS Correlation Energy    =      -2.1192380013023446 [Eh]
	 SCS Total Energy          =    -534.8105350768463495 [Eh]
	-----------------------------------------------------------

  Dipole Moment: [D]
     X:    -0.5179      Y:    -0.2859      Z:     0.0005     Total:     0.5916

*** Psi4 exiting successfully. Buy a developer a beer!
