                               Psi4 1.4a3.dev225

  ==> Input File <==

--------------------------------------------------------------------------
#psi4
#
memory 32 gb

molecule  {
0 1
  O        1.7312310    -0.2769730     0.0000590
  O       -1.7312320     0.2769720     0.0000220
  O        0.5576720     1.6786530    -0.0001670
  O       -0.5576690    -1.6786520    -0.0003240
  C        2.9443912     0.5224903     0.0000985
  C       -2.9581610    -0.5011970    -0.0000370
  C        4.0961590    -0.4920900     0.0002650
  C       -4.0961600     0.4920910     0.0001910
  C        0.6121100     0.4612570    -0.0000760
  C       -0.6121090    -0.4612570    -0.0001440
  H        2.9624380     1.1440920    -0.8842080
  H        2.9622950     1.1442210     0.8843180
  H       -2.9624180    -1.1440100    -0.8844060
  H       -2.9623190    -1.1443030     0.8841200
  H        5.0512870     0.0405180     0.0003010
  H        4.0503980    -1.1272370     0.8870460
  H        4.0505370    -1.1273680    -0.8864290
  H       -5.0512890    -0.0405160     0.0001540
  H       -4.0504200     1.1271560     0.8870320
  H       -4.0505160     1.1274510    -0.8864430
units angstrom
no_reorient  #important for SAPT in psi4, default
symmetry c1  #important for SAPT in psi4, default
}

set PROPERTIES_ORIGIN ["COM"]
properties('MP2/aug-cc-pvtz', properties = ['dipole'])
--------------------------------------------------------------------------

    Molecular point group: c1
  Charge       = 0
  Multiplicity = 1
  Basis Set: AUG-CC-PVTZ
    Blend: AUG-CC-PVTZ
  Basis Set: (AUG-CC-PVTZ AUX)
    Blend: AUG-CC-PVTZ-JKFIT

    Orbital Energies [Eh]
    ---------------------

    Doubly Occupied:

       1A    -20.620410     2A    -20.619551     3A    -20.572361
       4A    -20.572209     5A    -11.408016     6A    -11.407446
       7A    -11.299598     8A    -11.298454     9A    -11.230210
      10A    -11.229933    11A     -1.487911    12A     -1.459765
      13A     -1.382767    14A     -1.367011    15A     -1.060331
      16A     -1.044956    17A     -0.945082    18A     -0.875727
      19A     -0.833045    20A     -0.787890    21A     -0.744912
      22A     -0.704110    23A     -0.703416    24A     -0.685170
      25A     -0.680439    26A     -0.611068    27A     -0.609512
      28A     -0.577499    29A     -0.575842    30A     -0.558853
      31A     -0.545472    32A     -0.524170    33A     -0.523876
      34A     -0.520755    35A     -0.520338    36A     -0.512702
      37A     -0.477617    38A     -0.467417    39A     -0.448264

  @DF-RHF Final Energy:  -532.69512412093172

   => Energetics <=

    Nuclear Repulsion Energy =            540.4947259431216935
    One-Electron Energy =               -1801.3914861747900886
    Two-Electron Energy =                 728.2016361107366720
    Total Energy =                       -532.6951241209317232
  Basis Set: (AUG-CC-PVTZ AUX)
    Blend: AUG-CC-PVTZ-RI
    Molecular point group: c1

    Geometry (in Angstrom), charge = 0, multiplicity = 1:

       Center              X                  Y                   Z               Mass
    ------------   -----------------  -----------------  -----------------  -----------------
         O            1.732362144943    -0.278722550116     0.000069210298    15.994914619570
         O           -1.730100855057     0.275222449884     0.000032210298    15.994914619570
         O            0.558803144943     1.676903449884    -0.000156789702    15.994914619570
         O           -0.556537855057    -1.680401550116    -0.000313789702    15.994914619570
         C            2.945522344943     0.520740749884     0.000108710298    12.000000000000
         C           -2.957029855057    -0.502946550116    -0.000026789702    12.000000000000
         C            4.097290144943    -0.493839550116     0.000275210298    12.000000000000
         C           -4.095028855057     0.490341449884     0.000201210298    12.000000000000
         C            0.613241144943     0.459507449884    -0.000065789702    12.000000000000
         C           -0.610977855057    -0.463006550116    -0.000133789702    12.000000000000
         H            2.963569144943     1.142342449884    -0.884197789702     1.007825032230
         H            2.963426144943     1.142471449884     0.884328210298     1.007825032230
         H           -2.961286855057    -1.145759550116    -0.884395789702     1.007825032230
         H           -2.961187855057    -1.146052550116     0.884130210298     1.007825032230
         H            5.052418144943     0.038768449884     0.000311210298     1.007825032230
         H            4.051529144943    -1.128986550116     0.887056210298     1.007825032230
         H            4.051668144943    -1.129117550116    -0.886418789702     1.007825032230
         H           -5.050157855057    -0.042265550116     0.000164210298     1.007825032230
         H           -4.049288855057     1.125406449884     0.887042210298     1.007825032230
         H           -4.049384855057     1.125701449884    -0.886432789702     1.007825032230

  Basis Set: AUG-CC-PVTZ
    Blend: AUG-CC-PVTZ
  Basis Set: (AUG-CC-PVTZ AUX)
    Blend: AUG-CC-PVTZ-JKFIT
	 Reference Energy          =    -532.6951241209317232 [Eh]
	 Singles Energy            =      -0.0000000000000000 [Eh]
	 Same-Spin Energy          =      -0.5155353629253967 [Eh]
	 Opposite-Spin Energy      =      -1.6267011872151351 [Eh]
	 Correlation Energy        =      -2.1422365501405318 [Eh]
	 Total Energy              =    -534.8373606710722470 [Eh]

	 ================> DF-SCS-MP2 Energies <==================
	-----------------------------------------------------------
	 SCS Same-Spin Scale       =       0.3333333333333333 [-]
	 SCS Opposite-Spin Scale   =       1.2000000000000000 [-]
	 SCS Same-Spin Energy      =      -0.1718451209751322 [Eh]
	 SCS Opposite-Spin Energy  =      -1.9520414246581621 [Eh]
	 SCS Correlation Energy    =      -2.1238865456332943 [Eh]
	 SCS Total Energy          =    -534.8190106665649637 [Eh]
	-----------------------------------------------------------

  Dipole Moment: [D]
     X:    -0.0436      Y:     0.0302      Z:     0.0005     Total:     0.0530

*** Psi4 exiting successfully. Buy a developer a beer!
