                               Psi4 1.4a3.dev225

  ==> Input File <==

--------------------------------------------------------------------------
#psi4
#
memory 32 gb

molecule  {
0 1
  O        1.7312310    -0.2769730     0.0000590
  O       -1.7312320     0.2769720     0.0000220
  O        0.5576720     1.6786530    -0.0001670
  O       -0.5576690    -1.6786520    -0.0003240
  C        2.9581590     0.5011960     0.0001010
  C       -2.9581610    -0.5011970    -0.0000370
  C        4.0961590    -0.4920900     0.0002650
  C       -4.0961600     0.4920910     0.0001910
  C        0.6121100     0.4612570    -0.0000760
  C       -0.6121090    -0.4612570    -0.0001440
  H        2.9624380     1.1440920    -0.8842080
  H        2.9622950     1.1442210     0.8843180
  H       -2.9624180    -1.1440100    -0.8844060
  H       -2.9623190    -1.1443030     0.8841200
  H        5.0512870     0.0405180     0.0003010
  H        4.0515144    -1.1117036     0.8980245
  H        4.0505370    -1.1273680    -0.8864290
  H       -5.0512890    -0.0405160     0.0001540
  H       -4.0504200     1.1271560     0.8870320
  H       -4.0505160     1.1274510    -0.8864430
units angstrom
no_reorient  #important for SAPT in psi4, default
symmetry c1  #important for SAPT in psi4, default
}

set PROPERTIES_ORIGIN ["COM"]
properties('MP2/aug-cc-pvtz', properties = ['dipole'])
--------------------------------------------------------------------------

    Molecular point group: c1
  Charge       = 0
  Multiplicity = 1
  Basis Set: AUG-CC-PVTZ
    Blend: AUG-CC-PVTZ
  Basis Set: (AUG-CC-PVTZ AUX)
    Blend: AUG-CC-PVTZ-JKFIT

    Orbital Energies [Eh]
    ---------------------

    Doubly Occupied:

       1A    -20.619467     2A    -20.619448     3A    -20.572032
       4A    -20.572024     5A    -11.407982     6A    -11.407413
       7A    -11.299530     8A    -11.299404     9A    -11.229932
      10A    -11.229865    11A     -1.487396    12A     -1.459216
      13A     -1.382492    14A     -1.366745    15A     -1.061868
      16A     -1.047756    17A     -0.946016    18A     -0.875337
      19A     -0.831248    20A     -0.787201    21A     -0.745084
      22A     -0.703704    23A     -0.702478    24A     -0.684160
      25A     -0.680066    26A     -0.611076    27A     -0.609763
      28A     -0.578359    29A     -0.575893    30A     -0.559950
      31A     -0.547738    32A     -0.523925    33A     -0.523349
      34A     -0.522753    35A     -0.520391    36A     -0.511585
      37A     -0.475868    38A     -0.466153    39A     -0.448144

  @DF-RHF Final Energy:  -532.69567312739048

   => Energetics <=

    Nuclear Repulsion Energy =            540.5147799330989073
    One-Electron Energy =               -1801.4352822009695956
    Two-Electron Energy =                 728.2248291404802103
    Total Energy =                       -532.6956731273904779
  Basis Set: (AUG-CC-PVTZ AUX)
    Blend: AUG-CC-PVTZ-RI
    Molecular point group: c1

    Geometry (in Angstrom), charge = 0, multiplicity = 1:

       Center              X                  Y                   Z               Mass
    ------------   -----------------  -----------------  -----------------  -----------------
         O            1.731223290243    -0.277080210769    -0.000006748663    15.994914619570
         O           -1.731239709757     0.276864789231    -0.000043748663    15.994914619570
         O            0.557664290243     1.678545789231    -0.000232748663    15.994914619570
         O           -0.557676709757    -1.678759210769    -0.000389748663    15.994914619570
         C            2.958151290243     0.501088789231     0.000035251337    12.000000000000
         C           -2.958168709757    -0.501304210769    -0.000102748663    12.000000000000
         C            4.096151290243    -0.492197210769     0.000199251337    12.000000000000
         C           -4.096167709757     0.491983789231     0.000125251337    12.000000000000
         C            0.612102290243     0.461149789231    -0.000141748663    12.000000000000
         C           -0.612116709757    -0.461364210769    -0.000209748663    12.000000000000
         H            2.962430290243     1.143984789231    -0.884273748663     1.007825032230
         H            2.962287290243     1.144113789231     0.884252251337     1.007825032230
         H           -2.962425709757    -1.144117210769    -0.884471748663     1.007825032230
         H           -2.962326709757    -1.144410210769     0.884054251337     1.007825032230
         H            5.051279290243     0.040410789231     0.000235251337     1.007825032230
         H            4.051506690243    -1.111810810769     0.897958751337     1.007825032230
         H            4.050529290243    -1.127475210769    -0.886494748663     1.007825032230
         H           -5.051296709757    -0.040623210769     0.000088251337     1.007825032230
         H           -4.050427709757     1.127048789231     0.886966251337     1.007825032230
         H           -4.050523709757     1.127343789231    -0.886508748663     1.007825032230

  Basis Set: AUG-CC-PVTZ
    Blend: AUG-CC-PVTZ
  Basis Set: (AUG-CC-PVTZ AUX)
    Blend: AUG-CC-PVTZ-JKFIT
	 Reference Energy          =    -532.6956731273904779 [Eh]
	 Singles Energy            =      -0.0000000000000000 [Eh]
	 Same-Spin Energy          =      -0.5156434606630884 [Eh]
	 Opposite-Spin Energy      =      -1.6266872985050458 [Eh]
	 Correlation Energy        =      -2.1423307591681340 [Eh]
	 Total Energy              =    -534.8380038865585675 [Eh]

	 ================> DF-SCS-MP2 Energies <==================
	-----------------------------------------------------------
	 SCS Same-Spin Scale       =       0.3333333333333333 [-]
	 SCS Opposite-Spin Scale   =       1.2000000000000000 [-]
	 SCS Same-Spin Energy      =      -0.1718811535543628 [Eh]
	 SCS Opposite-Spin Energy  =      -1.9520247582060548 [Eh]
	 SCS Correlation Energy    =      -2.1239059117604175 [Eh]
	 SCS Total Energy          =    -534.8195790391508808 [Eh]
	-----------------------------------------------------------

  Dipole Moment: [D]
     X:     0.0035      Y:     0.0044      Z:     0.0027     Total:     0.0063

*** Psi4 exiting successfully. Buy a developer a beer!
