                               Psi4 1.4a3.dev225

  ==> Input File <==

--------------------------------------------------------------------------
#psi4
#
memory 32 gb

molecule  {
0 1
  O        1.7312310    -0.2769730     0.0000590
  O       -1.7312320     0.2769720     0.0000220
  O        0.5576720     1.6786530    -0.0001670
  O       -0.5576690    -1.6786520    -0.0003240
  C        2.9581590     0.5011960     0.0001010
  C       -2.9581610    -0.5011970    -0.0000370
  C        4.0961590    -0.4920900     0.0002650
  C       -4.0961600     0.4920910     0.0001910
  C        0.6121100     0.4612570    -0.0000760
  C       -0.6121090    -0.4612570    -0.0001440
  H        2.9624380     1.1440920    -0.8842080
  H        2.9622950     1.1442210     0.8843180
  H       -2.9624180    -1.1440100    -0.8844060
  H       -2.9623190    -1.1443030     0.8841200
  H        5.0512870     0.0405180     0.0003010
  H        4.0503980    -1.1272370     0.8870460
  H        4.0505370    -1.1273680    -0.8864290
  H       -5.2259665    -0.1379211     0.0001472
  H       -4.0504200     1.1271560     0.8870320
  H       -4.0505160     1.1274510    -0.8864430
units angstrom
no_reorient  #important for SAPT in psi4, default
symmetry c1  #important for SAPT in psi4, default
}

set PROPERTIES_ORIGIN ["COM"]
properties('MP2/aug-cc-pvtz', properties = ['dipole'])
--------------------------------------------------------------------------

    Molecular point group: c1
  Charge       = 0
  Multiplicity = 1
  Basis Set: AUG-CC-PVTZ
    Blend: AUG-CC-PVTZ
  Basis Set: (AUG-CC-PVTZ AUX)
    Blend: AUG-CC-PVTZ-JKFIT

    Orbital Energies [Eh]
    ---------------------

    Doubly Occupied:

       1A    -20.621312     2A    -20.620213     3A    -20.573287
       4A    -20.572931     5A    -11.409270     6A    -11.408534
       7A    -11.301753     8A    -11.300083     9A    -11.252969
      10A    -11.230290    11A     -1.488614    12A     -1.460459
      13A     -1.383624    14A     -1.367907    15A     -1.061244
      16A     -1.045699    17A     -0.943165    18A     -0.870522
      19A     -0.830351    20A     -0.788127    21A     -0.744540
      22A     -0.704657    23A     -0.703672    24A     -0.685314
      25A     -0.680703    26A     -0.612701    27A     -0.610903
      28A     -0.579568    29A     -0.575291    30A     -0.554044
      31A     -0.530142    32A     -0.524938    33A     -0.524417
      34A     -0.523208    35A     -0.512631    36A     -0.509171
      37A     -0.476964    38A     -0.467234    39A     -0.448493

  @DF-RHF Final Energy:  -532.67572860528594

   => Energetics <=

    Nuclear Repulsion Energy =            539.6998242415331788
    One-Electron Energy =               -1799.7532184228457481
    Two-Electron Energy =                 727.3776655760266294
    Total Energy =                       -532.6757286052859399
  Basis Set: (AUG-CC-PVTZ AUX)
    Blend: AUG-CC-PVTZ-RI
    Molecular point group: c1

    Geometry (in Angstrom), charge = 0, multiplicity = 1:

       Center              X                  Y                   Z               Mass
    ------------   -----------------  -----------------  -----------------  -----------------
         O            1.732436298799    -0.276300915431     0.000069051822    15.994914619570
         O           -1.730026701201     0.277644084569     0.000032051822    15.994914619570
         O            0.558877298799     1.679325084569    -0.000156948178    15.994914619570
         O           -0.556463701201    -1.677979915431    -0.000313948178    15.994914619570
         C            2.959364298799     0.501868084569     0.000111051822    12.000000000000
         C           -2.956955701201    -0.500524915431    -0.000026948178    12.000000000000
         C            4.097364298799    -0.491417915431     0.000275051822    12.000000000000
         C           -4.094954701201     0.492763084569     0.000201051822    12.000000000000
         C            0.613315298799     0.461929084569    -0.000065948178    12.000000000000
         C           -0.610903701201    -0.460584915431    -0.000133948178    12.000000000000
         H            2.963643298799     1.144764084569    -0.884197948178     1.007825032230
         H            2.963500298799     1.144893084569     0.884328051822     1.007825032230
         H           -2.961212701201    -1.143337915431    -0.884395948178     1.007825032230
         H           -2.961113701201    -1.143630915431     0.884130051822     1.007825032230
         H            5.052492298799     0.041190084569     0.000311051822     1.007825032230
         H            4.051603298799    -1.126564915431     0.887056051822     1.007825032230
         H            4.051742298799    -1.126695915431    -0.886418948178     1.007825032230
         H           -5.224761201201    -0.137249015431     0.000157251822     1.007825032230
         H           -4.049214701201     1.127828084569     0.887042051822     1.007825032230
         H           -4.049310701201     1.128123084569    -0.886432948178     1.007825032230

  Basis Set: AUG-CC-PVTZ
    Blend: AUG-CC-PVTZ
  Basis Set: (AUG-CC-PVTZ AUX)
    Blend: AUG-CC-PVTZ-JKFIT
	 Reference Energy          =    -532.6757286052859399 [Eh]
	 Singles Energy            =      -0.0000000000000000 [Eh]
	 Same-Spin Energy          =      -0.5154997733676462 [Eh]
	 Opposite-Spin Energy      =      -1.6281116829318261 [Eh]
	 Correlation Energy        =      -2.1436114562994724 [Eh]
	 Total Energy              =    -534.8193400615854216 [Eh]

	 ================> DF-SCS-MP2 Energies <==================
	-----------------------------------------------------------
	 SCS Same-Spin Scale       =       0.3333333333333333 [-]
	 SCS Opposite-Spin Scale   =       1.2000000000000000 [-]
	 SCS Same-Spin Energy      =      -0.1718332577892154 [Eh]
	 SCS Opposite-Spin Energy  =      -1.9537340195181911 [Eh]
	 SCS Correlation Energy    =      -2.1255672773074066 [Eh]
	 SCS Total Energy          =    -534.8012958825933083 [Eh]
	-----------------------------------------------------------

  Dipole Moment: [D]
     X:     0.1353      Y:     0.0365      Z:     0.0005     Total:     0.1402

*** Psi4 exiting successfully. Buy a developer a beer!
