                               Psi4 1.4a3.dev225

  ==> Input File <==

--------------------------------------------------------------------------
#psi4
#
memory 32 gb

molecule  {
0 1
  O        1.7178073    -0.2541580     0.0433150
  O       -1.7312320     0.2769720     0.0000220
  O        0.5576720     1.6786530    -0.0001670
  O       -0.5576690    -1.6786520    -0.0003240
  C        2.9581590     0.5011960     0.0001010
  C       -2.9581610    -0.5011970    -0.0000370
  C        4.0961590    -0.4920900     0.0002650
  C       -4.0961600     0.4920910     0.0001910
  C        0.6121100     0.4612570    -0.0000760
  C       -0.6121090    -0.4612570    -0.0001440
  H        2.9624380     1.1440920    -0.8842080
  H        2.9622950     1.1442210     0.8843180
  H       -2.9624180    -1.1440100    -0.8844060
  H       -2.9623190    -1.1443030     0.8841200
  H        5.0512870     0.0405180     0.0003010
  H        4.0503980    -1.1272370     0.8870460
  H        4.0505370    -1.1273680    -0.8864290
  H       -5.0512890    -0.0405160     0.0001540
  H       -4.0504200     1.1271560     0.8870320
  H       -4.0505160     1.1274510    -0.8864430
units angstrom
no_reorient  #important for SAPT in psi4, default
symmetry c1  #important for SAPT in psi4, default
}

set PROPERTIES_ORIGIN ["COM"]
properties('MP2/aug-cc-pvtz', properties = ['dipole'])
--------------------------------------------------------------------------

    Molecular point group: c1
  Charge       = 0
  Multiplicity = 1
  Basis Set: AUG-CC-PVTZ
    Blend: AUG-CC-PVTZ
  Basis Set: (AUG-CC-PVTZ AUX)
    Blend: AUG-CC-PVTZ-JKFIT

    Orbital Energies [Eh]
    ---------------------

    Doubly Occupied:

       1A    -20.619884     2A    -20.618755     3A    -20.571425
       4A    -20.566709     5A    -11.406807     6A    -11.404376
       7A    -11.301524     8A    -11.299022     9A    -11.231655
      10A    -11.229429    11A     -1.491200    12A     -1.462350
      13A     -1.381142    14A     -1.365738    15A     -1.063597
      16A     -1.048977    17A     -0.946616    18A     -0.877806
      19A     -0.830615    20A     -0.787917    21A     -0.747862
      22A     -0.704247    23A     -0.702381    24A     -0.685038
      25A     -0.679375    26A     -0.612397    27A     -0.609742
      28A     -0.579297    29A     -0.575361    30A     -0.561298
      31A     -0.549089    32A     -0.524037    33A     -0.522897
      34A     -0.522341    35A     -0.518850    36A     -0.510935
      37A     -0.474994    38A     -0.465255    39A     -0.447111

  @DF-RHF Final Energy:  -532.69709651656513

   => Energetics <=

    Nuclear Repulsion Energy =            541.0528225022561628
    One-Electron Energy =               -1802.5037423935054903
    Two-Electron Energy =                 728.7538233746840888
    Total Energy =                       -532.6970965165651251
  Basis Set: (AUG-CC-PVTZ AUX)
    Blend: AUG-CC-PVTZ-RI
    Molecular point group: c1

    Geometry (in Angstrom), charge = 0, multiplicity = 1:

       Center              X                  Y                   Z               Mass
    ------------   -----------------  -----------------  -----------------  -----------------
         O            1.719277333373    -0.256656515906     0.038588006867    15.994914619570
         O           -1.729761966627     0.274473484094    -0.004704993133    15.994914619570
         O            0.559142033373     1.676154484094    -0.004893993133    15.994914619570
         O           -0.556198966627    -1.681150515906    -0.005050993133    15.994914619570
         C            2.959629033373     0.498697484094    -0.004625993133    12.000000000000
         C           -2.956690966627    -0.503695515906    -0.004763993133    12.000000000000
         C            4.097629033373    -0.494588515906    -0.004461993133    12.000000000000
         C           -4.094689966627     0.489592484094    -0.004535993133    12.000000000000
         C            0.613580033373     0.458758484094    -0.004802993133    12.000000000000
         C           -0.610638966627    -0.463755515906    -0.004870993133    12.000000000000
         H            2.963908033373     1.141593484094    -0.888934993133     1.007825032230
         H            2.963765033373     1.141722484094     0.879591006867     1.007825032230
         H           -2.960947966627    -1.146508515906    -0.889132993133     1.007825032230
         H           -2.960848966627    -1.146801515906     0.879393006867     1.007825032230
         H            5.052757033373     0.038019484094    -0.004425993133     1.007825032230
         H            4.051868033373    -1.129735515906     0.882319006867     1.007825032230
         H            4.052007033373    -1.129866515906    -0.891155993133     1.007825032230
         H           -5.049818966627    -0.043014515906    -0.004572993133     1.007825032230
         H           -4.048949966627     1.124657484094     0.882305006867     1.007825032230
         H           -4.049045966627     1.124952484094    -0.891169993133     1.007825032230

  Basis Set: AUG-CC-PVTZ
    Blend: AUG-CC-PVTZ
  Basis Set: (AUG-CC-PVTZ AUX)
    Blend: AUG-CC-PVTZ-JKFIT
	 Reference Energy          =    -532.6970965165651251 [Eh]
	 Singles Energy            =      -0.0000000000000000 [Eh]
	 Same-Spin Energy          =      -0.5152363278765533 [Eh]
	 Opposite-Spin Energy      =      -1.6255028655360699 [Eh]
	 Correlation Energy        =      -2.1407391934126232 [Eh]
	 Total Energy              =    -534.8378357099777531 [Eh]

	 ================> DF-SCS-MP2 Energies <==================
	-----------------------------------------------------------
	 SCS Same-Spin Scale       =       0.3333333333333333 [-]
	 SCS Opposite-Spin Scale   =       1.2000000000000000 [-]
	 SCS Same-Spin Energy      =      -0.1717454426255177 [Eh]
	 SCS Opposite-Spin Energy  =      -1.9506034386432838 [Eh]
	 SCS Correlation Energy    =      -2.1223488812688016 [Eh]
	 SCS Total Energy          =    -534.8194453978338743 [Eh]
	-----------------------------------------------------------

  Dipole Moment: [D]
     X:     0.1417      Y:    -0.0836      Z:    -0.0462     Total:     0.1709

*** Psi4 exiting successfully. Buy a developer a beer!
