                               Psi4 1.4a3.dev225

  ==> Input File <==

--------------------------------------------------------------------------
#psi4
#
memory 32 gb

molecule  {
0 1
  O        1.7312310    -0.2769730     0.0000590
  O       -1.7312320     0.2769720     0.0000220
  O        0.5576720     1.6786530    -0.0001670
  O       -0.5576690    -1.6786520    -0.0003240
  C        2.9581590     0.5011960     0.0001010
  C       -2.9581610    -0.5011970    -0.0000370
  C        4.0961590    -0.4920900     0.0002650
  C       -4.0961600     0.4920910     0.0001910
  C        0.6121100     0.4612570    -0.0000760
  C       -0.6121090    -0.4612570    -0.0001440
  H        2.9624380     1.1440920    -0.8842080
  H        2.9622950     1.1442210     0.8843180
  H       -2.9624180    -1.1440100    -0.8844060
  H       -2.9623190    -1.1443030     0.8841200
  H        5.0512870     0.0405180     0.0003010
  H        4.0503980    -1.1272370     0.8870460
  H        4.0588947    -1.0109885    -0.7239914
  H       -5.0512890    -0.0405160     0.0001540
  H       -4.0504200     1.1271560     0.8870320
  H       -4.0505160     1.1274510    -0.8864430
units angstrom
no_reorient  #important for SAPT in psi4, default
symmetry c1  #important for SAPT in psi4, default
}

set PROPERTIES_ORIGIN ["COM"]
properties('MP2/aug-cc-pvtz', properties = ['dipole'])
--------------------------------------------------------------------------

    Molecular point group: c1
  Charge       = 0
  Multiplicity = 1
  Basis Set: AUG-CC-PVTZ
    Blend: AUG-CC-PVTZ
  Basis Set: (AUG-CC-PVTZ AUX)
    Blend: AUG-CC-PVTZ-JKFIT

    Orbital Energies [Eh]
    ---------------------

    Doubly Occupied:

       1A    -20.619420     2A    -20.619250     3A    -20.571997
       4A    -20.571865     5A    -11.407882     6A    -11.407303
       7A    -11.299497     8A    -11.297934     9A    -11.229832
      10A    -11.205480    11A     -1.487277    12A     -1.459094
      13A     -1.382393    14A     -1.366647    15A     -1.067973
      16A     -1.052031    17A     -0.952602    18A     -0.884863
      19A     -0.835603    20A     -0.787359    21A     -0.745559
      22A     -0.704283    23A     -0.703037    24A     -0.686224
      25A     -0.680197    26A     -0.623739    27A     -0.610214
      28A     -0.588331    29A     -0.576230    30A     -0.560715
      31A     -0.547205    32A     -0.533654    33A     -0.523791
      34A     -0.522330    35A     -0.520370    36A     -0.512985
      37A     -0.476114    38A     -0.466257    39A     -0.448055

  @DF-RHF Final Energy:  -532.66093365603274

   => Energetics <=

    Nuclear Repulsion Energy =            541.4442091615842401
    One-Electron Energy =               -1803.1391090599415747
    Two-Electron Energy =                 729.0339662423245954
    Total Energy =                       -532.6609336560327392
  Basis Set: (AUG-CC-PVTZ AUX)
    Blend: AUG-CC-PVTZ-RI
    Molecular point group: c1

    Geometry (in Angstrom), charge = 0, multiplicity = 1:

       Center              X                  Y                   Z               Mass
    ------------   -----------------  -----------------  -----------------  -----------------
         O            1.731173324011    -0.277776066439    -0.001051842857    15.994914619570
         O           -1.731289675989     0.276168933561    -0.001088842857    15.994914619570
         O            0.557614324011     1.677849933561    -0.001277842857    15.994914619570
         O           -0.557726675989    -1.679455066439    -0.001434842857    15.994914619570
         C            2.958101324011     0.500392933561    -0.001009842857    12.000000000000
         C           -2.958218675989    -0.502000066439    -0.001147842857    12.000000000000
         C            4.096101324011    -0.492893066439    -0.000845842857    12.000000000000
         C           -4.096217675989     0.491287933561    -0.000919842857    12.000000000000
         C            0.612052324011     0.460453933561    -0.001186842857    12.000000000000
         C           -0.612166675989    -0.462060066439    -0.001254842857    12.000000000000
         H            2.962380324011     1.143288933561    -0.885318842857     1.007825032230
         H            2.962237324011     1.143417933561     0.883207157143     1.007825032230
         H           -2.962475675989    -1.144813066439    -0.885516842857     1.007825032230
         H           -2.962376675989    -1.145106066439     0.883009157143     1.007825032230
         H            5.051229324011     0.039714933561    -0.000809842857     1.007825032230
         H            4.050340324011    -1.128040066439     0.885935157143     1.007825032230
         H            4.058837024011    -1.011791566439    -0.725102242857     1.007825032230
         H           -5.051346675989    -0.041319066439    -0.000956842857     1.007825032230
         H           -4.050477675989     1.126352933561     0.885921157143     1.007825032230
         H           -4.050573675989     1.126647933561    -0.887553842857     1.007825032230

  Basis Set: AUG-CC-PVTZ
    Blend: AUG-CC-PVTZ
  Basis Set: (AUG-CC-PVTZ AUX)
    Blend: AUG-CC-PVTZ-JKFIT
	 Reference Energy          =    -532.6609336560327392 [Eh]
	 Singles Energy            =      -0.0000000000000000 [Eh]
	 Same-Spin Energy          =      -0.5158422994463675 [Eh]
	 Opposite-Spin Energy      =      -1.6261827722578786 [Eh]
	 Correlation Energy        =      -2.1420250717042459 [Eh]
	 Total Energy              =    -534.8029587277369501 [Eh]

	 ================> DF-SCS-MP2 Energies <==================
	-----------------------------------------------------------
	 SCS Same-Spin Scale       =       0.3333333333333333 [-]
	 SCS Opposite-Spin Scale   =       1.2000000000000000 [-]
	 SCS Same-Spin Energy      =      -0.1719474331487892 [Eh]
	 SCS Opposite-Spin Energy  =      -1.9514193267094542 [Eh]
	 SCS Correlation Energy    =      -2.1233667598582433 [Eh]
	 SCS Total Energy          =    -534.7843004158910389 [Eh]
	-----------------------------------------------------------

  Dipole Moment: [D]
     X:     0.0215      Y:    -0.0377      Z:    -0.0433     Total:     0.0613

*** Psi4 exiting successfully. Buy a developer a beer!
