                               Psi4 1.4a3.dev225

  ==> Input File <==

--------------------------------------------------------------------------
#psi4
#
memory 32 gb

molecule  {
0 1
  O        1.7312310    -0.2769730     0.0000590
  O       -1.7312320     0.2769720     0.0000220
  O        0.5576720     1.6786530    -0.0001670
  O       -0.5576690    -1.6786520    -0.0003240
  C        2.9581590     0.5011960     0.0001010
  C       -2.9581610    -0.5011970    -0.0000370
  C        4.0961590    -0.4920900     0.0002650
  C       -4.0961600     0.4920910     0.0001910
  C        0.6121100     0.4612570    -0.0000760
  C       -0.5961363    -0.4492207    -0.0001431
  H        2.9624380     1.1440920    -0.8842080
  H        2.9622950     1.1442210     0.8843180
  H       -2.9624180    -1.1440100    -0.8844060
  H       -2.9623190    -1.1443030     0.8841200
  H        5.0512870     0.0405180     0.0003010
  H        4.0503980    -1.1272370     0.8870460
  H        4.0505370    -1.1273680    -0.8864290
  H       -5.0512890    -0.0405160     0.0001540
  H       -4.0504200     1.1271560     0.8870320
  H       -4.0505160     1.1274510    -0.8864430
units angstrom
no_reorient  #important for SAPT in psi4, default
symmetry c1  #important for SAPT in psi4, default
}

set PROPERTIES_ORIGIN ["COM"]
properties('MP2/aug-cc-pvtz', properties = ['dipole'])
--------------------------------------------------------------------------

    Molecular point group: c1
  Charge       = 0
  Multiplicity = 1
  Basis Set: AUG-CC-PVTZ
    Blend: AUG-CC-PVTZ
  Basis Set: (AUG-CC-PVTZ AUX)
    Blend: AUG-CC-PVTZ-JKFIT

    Orbital Energies [Eh]
    ---------------------

    Doubly Occupied:

       1A    -20.620734     2A    -20.618160     3A    -20.574160
       4A    -20.572144     5A    -11.409471     6A    -11.408807
       7A    -11.300394     8A    -11.298838     9A    -11.230427
      10A    -11.229357    11A     -1.486789    12A     -1.457056
      13A     -1.381200    14A     -1.363002    15A     -1.063142
      16A     -1.047570    17A     -0.951107    18A     -0.875529
      19A     -0.832954    20A     -0.786853    21A     -0.745428
      22A     -0.704097    23A     -0.702378    24A     -0.683228
      25A     -0.678574    26A     -0.610440    27A     -0.609615
      28A     -0.577057    29A     -0.576726    30A     -0.560328
      31A     -0.548147    32A     -0.524817    33A     -0.522703
      34A     -0.522425    35A     -0.518955    36A     -0.510070
      37A     -0.475491    38A     -0.465125    39A     -0.451147

  @DF-RHF Final Energy:  -532.69328307078047

   => Energetics <=

    Nuclear Repulsion Energy =            540.4962774788182287
    One-Electron Energy =               -1801.3902299798050990
    Two-Electron Energy =                 728.2006694302064034
    Total Energy =                       -532.6932830707804669
  Basis Set: (AUG-CC-PVTZ AUX)
    Blend: AUG-CC-PVTZ-RI
    Molecular point group: c1

    Geometry (in Angstrom), charge = 0, multiplicity = 1:

       Center              X                  Y                   Z               Mass
    ------------   -----------------  -----------------  -----------------  -----------------
         O            1.729918689447    -0.277961920302     0.000068930957    15.994914619570
         O           -1.732544310553     0.275983079698     0.000031930957    15.994914619570
         O            0.556359689447     1.677664079698    -0.000157069043    15.994914619570
         O           -0.558981310553    -1.679640920302    -0.000314069043    15.994914619570
         C            2.956846689447     0.500207079698     0.000110930957    12.000000000000
         C           -2.959473310553    -0.502185920302    -0.000027069043    12.000000000000
         C            4.094846689447    -0.493078920302     0.000274930957    12.000000000000
         C           -4.097472310553     0.491102079698     0.000200930957    12.000000000000
         C            0.610797689447     0.460268079698    -0.000066069043    12.000000000000
         C           -0.597448610553    -0.450209620302    -0.000133169043    12.000000000000
         H            2.961125689447     1.143103079698    -0.884198069043     1.007825032230
         H            2.960982689447     1.143232079698     0.884327930957     1.007825032230
         H           -2.963730310553    -1.144998920302    -0.884396069043     1.007825032230
         H           -2.963631310553    -1.145291920302     0.884129930957     1.007825032230
         H            5.049974689447     0.039529079698     0.000310930957     1.007825032230
         H            4.049085689447    -1.128225920302     0.887055930957     1.007825032230
         H            4.049224689447    -1.128356920302    -0.886419069043     1.007825032230
         H           -5.052601310553    -0.041504920302     0.000163930957     1.007825032230
         H           -4.051732310553     1.126167079698     0.887041930957     1.007825032230
         H           -4.051828310553     1.126462079698    -0.886433069043     1.007825032230

  Basis Set: AUG-CC-PVTZ
    Blend: AUG-CC-PVTZ
  Basis Set: (AUG-CC-PVTZ AUX)
    Blend: AUG-CC-PVTZ-JKFIT
	 Reference Energy          =    -532.6932830707804669 [Eh]
	 Singles Energy            =      -0.0000000000000000 [Eh]
	 Same-Spin Energy          =      -0.5160850049232191 [Eh]
	 Opposite-Spin Energy      =      -1.6277138392067318 [Eh]
	 Correlation Energy        =      -2.1437988441299511 [Eh]
	 Total Energy              =    -534.8370819149104136 [Eh]

	 ================> DF-SCS-MP2 Energies <==================
	-----------------------------------------------------------
	 SCS Same-Spin Scale       =       0.3333333333333333 [-]
	 SCS Opposite-Spin Scale   =       1.2000000000000000 [-]
	 SCS Same-Spin Energy      =      -0.1720283349744063 [Eh]
	 SCS Opposite-Spin Energy  =      -1.9532566070480781 [Eh]
	 SCS Correlation Energy    =      -2.1252849420224846 [Eh]
	 SCS Total Energy          =    -534.8185680128029844 [Eh]
	-----------------------------------------------------------

  Dipole Moment: [D]
     X:     0.0884      Y:     0.0436      Z:     0.0005     Total:     0.0985

*** Psi4 exiting successfully. Buy a developer a beer!
