                               Psi4 1.4a3.dev225

  ==> Input File <==

--------------------------------------------------------------------------
#psi4
#
memory 32 gb

molecule  {
0 1
  O        1.7312310    -0.2769730     0.0000590
  O       -1.7312320     0.2769720     0.0000220
  O        0.5576720     1.6786530    -0.0001670
  O       -0.5576690    -1.6786520    -0.0003240
  C        2.9581590     0.5011960     0.0001010
  C       -2.9581610    -0.5011970    -0.0000370
  C        4.0961590    -0.4920900     0.0002650
  C       -4.0961600     0.4920910     0.0001910
  C        0.6121100     0.4612570    -0.0000760
  C       -0.6098753    -0.5112071    -0.0001514
  H        2.9624380     1.1440920    -0.8842080
  H        2.9622950     1.1442210     0.8843180
  H       -2.9624180    -1.1440100    -0.8844060
  H       -2.9623190    -1.1443030     0.8841200
  H        5.0512870     0.0405180     0.0003010
  H        4.0503980    -1.1272370     0.8870460
  H        4.0505370    -1.1273680    -0.8864290
  H       -5.0512890    -0.0405160     0.0001540
  H       -4.0504200     1.1271560     0.8870320
  H       -4.0505160     1.1274510    -0.8864430
units angstrom
no_reorient  #important for SAPT in psi4, default
symmetry c1  #important for SAPT in psi4, default
}

set PROPERTIES_ORIGIN ["COM"]
properties('MP2/aug-cc-pvtz', properties = ['dipole'])
--------------------------------------------------------------------------

    Molecular point group: c1
  Charge       = 0
  Multiplicity = 1
  Basis Set: AUG-CC-PVTZ
    Blend: AUG-CC-PVTZ
  Basis Set: (AUG-CC-PVTZ AUX)
    Blend: AUG-CC-PVTZ-JKFIT

    Orbital Energies [Eh]
    ---------------------

    Doubly Occupied:

       1A    -20.618480     2A    -20.611392     3A    -20.580655
       4A    -20.570126     5A    -11.406081     6A    -11.404650
       7A    -11.298881     8A    -11.295572     9A    -11.229832
      10A    -11.227462    11A     -1.491489    12A     -1.461417
      13A     -1.394789    14A     -1.369142    15A     -1.058186
      16A     -1.043711    17A     -0.938678    18A     -0.871432
      19A     -0.828083    20A     -0.784480    21A     -0.741449
      22A     -0.711288    23A     -0.700646    24A     -0.683673
      25A     -0.681899    26A     -0.611640    27A     -0.610554
      28A     -0.579595    29A     -0.576994    30A     -0.559374
      31A     -0.547661    32A     -0.525950    33A     -0.525912
      34A     -0.522919    35A     -0.521650    36A     -0.515494
      37A     -0.476247    38A     -0.466364    39A     -0.443380

  @DF-RHF Final Energy:  -532.69488378122162

   => Energetics <=

    Nuclear Repulsion Energy =            540.5183972729414563
    One-Electron Energy =               -1801.4521058561067548
    Two-Electron Energy =                 728.2388248019436787
    Total Energy =                       -532.6948837812216198
  Basis Set: (AUG-CC-PVTZ AUX)
    Blend: AUG-CC-PVTZ-RI
    Molecular point group: c1

    Geometry (in Angstrom), charge = 0, multiplicity = 1:

       Center              X                  Y                   Z               Mass
    ------------   -----------------  -----------------  -----------------  -----------------
         O            1.731047474607    -0.272869167666     0.000069612878    15.994914619570
         O           -1.731415525393     0.281075832334     0.000032612878    15.994914619570
         O            0.557488474607     1.682756832334    -0.000156387122    15.994914619570
         O           -0.557852525393    -1.674548167666    -0.000313387122    15.994914619570
         C            2.957975474607     0.505299832334     0.000111612878    12.000000000000
         C           -2.958344525393    -0.497093167666    -0.000026387122    12.000000000000
         C            4.095975474607    -0.487986167666     0.000275612878    12.000000000000
         C           -4.096343525393     0.496194832334     0.000201612878    12.000000000000
         C            0.611926474607     0.465360832334    -0.000065387122    12.000000000000
         C           -0.610058825393    -0.507103267666    -0.000140787122    12.000000000000
         H            2.962254474607     1.148195832334    -0.884197387122     1.007825032230
         H            2.962111474607     1.148324832334     0.884328612878     1.007825032230
         H           -2.962601525393    -1.139906167666    -0.884395387122     1.007825032230
         H           -2.962502525393    -1.140199167666     0.884130612878     1.007825032230
         H            5.051103474607     0.044621832334     0.000311612878     1.007825032230
         H            4.050214474607    -1.123133167666     0.887056612878     1.007825032230
         H            4.050353474607    -1.123264167666    -0.886418387122     1.007825032230
         H           -5.051472525393    -0.036412167666     0.000164612878     1.007825032230
         H           -4.050603525393     1.131259832334     0.887042612878     1.007825032230
         H           -4.050699525393     1.131554832334    -0.886432387122     1.007825032230

  Basis Set: AUG-CC-PVTZ
    Blend: AUG-CC-PVTZ
  Basis Set: (AUG-CC-PVTZ AUX)
    Blend: AUG-CC-PVTZ-JKFIT
	 Reference Energy          =    -532.6948837812216198 [Eh]
	 Singles Energy            =      -0.0000000000000000 [Eh]
	 Same-Spin Energy          =      -0.5148353042965705 [Eh]
	 Opposite-Spin Energy      =      -1.6250253297491888 [Eh]
	 Correlation Energy        =      -2.1398606340457595 [Eh]
	 Total Energy              =    -534.8347444152673233 [Eh]

	 ================> DF-SCS-MP2 Energies <==================
	-----------------------------------------------------------
	 SCS Same-Spin Scale       =       0.3333333333333333 [-]
	 SCS Opposite-Spin Scale   =       1.2000000000000000 [-]
	 SCS Same-Spin Energy      =      -0.1716117680988568 [Eh]
	 SCS Opposite-Spin Energy  =      -1.9500303956990264 [Eh]
	 SCS Correlation Energy    =      -2.1216421637978833 [Eh]
	 SCS Total Energy          =    -534.8165259450195208 [Eh]
	-----------------------------------------------------------

  Dipole Moment: [D]
     X:     0.1819      Y:    -0.2797      Z:     0.0004     Total:     0.3337

*** Psi4 exiting successfully. Buy a developer a beer!
