                               Psi4 1.4a3.dev225

  ==> Input File <==

--------------------------------------------------------------------------
#psi4
#
memory 32 gb

molecule  {
0 1
  O        1.7312310    -0.2769730     0.0000590
  O       -1.7312320     0.2769720     0.0000220
  O        0.5576720     1.6786530    -0.0001670
  O       -0.5576690    -1.6786520    -0.0003240
  C        2.9581590     0.5011960     0.0001010
  C       -2.9581610    -0.5011970    -0.0000370
  C        4.0961590    -0.4920900     0.0002650
  C       -4.0961600     0.4920910     0.0001910
  C        0.6121100     0.4612570    -0.0000760
  C       -0.5322454    -0.4010755    -0.0001396
  H        2.9624380     1.1440920    -0.8842080
  H        2.9622950     1.1442210     0.8843180
  H       -2.9624180    -1.1440100    -0.8844060
  H       -2.9623190    -1.1443030     0.8841200
  H        5.0512870     0.0405180     0.0003010
  H        4.0503980    -1.1272370     0.8870460
  H        4.0505370    -1.1273680    -0.8864290
  H       -5.0512890    -0.0405160     0.0001540
  H       -4.0504200     1.1271560     0.8870320
  H       -4.0505160     1.1274510    -0.8864430
units angstrom
no_reorient  #important for SAPT in psi4, default
symmetry c1  #important for SAPT in psi4, default
}

set PROPERTIES_ORIGIN ["COM"]
properties('MP2/aug-cc-pvtz', properties = ['dipole'])
--------------------------------------------------------------------------

    Molecular point group: c1
  Charge       = 0
  Multiplicity = 1
  Basis Set: AUG-CC-PVTZ
    Blend: AUG-CC-PVTZ
  Basis Set: (AUG-CC-PVTZ AUX)
    Blend: AUG-CC-PVTZ-JKFIT

    Orbital Energies [Eh]
    ---------------------

    Doubly Occupied:

       1A    -20.625203     2A    -20.613157     3A    -20.582318
       4A    -20.574046     5A    -11.414974     6A    -11.412997
       7A    -11.303493     8A    -11.296358     9A    -11.232449
      10A    -11.227459    11A     -1.489588    12A     -1.443092
      13A     -1.384959    14A     -1.339617    15A     -1.071433
      16A     -1.046106    17A     -0.973035    18A     -0.875754
      19A     -0.838664    20A     -0.786500    21A     -0.744565
      22A     -0.708437    23A     -0.704800    24A     -0.678079
      25A     -0.669272    26A     -0.612206    27A     -0.607692
      28A     -0.579807    29A     -0.570858    30A     -0.561530
      31A     -0.548968    32A     -0.528379    33A     -0.524580
      34A     -0.517963    35A     -0.512677    36A     -0.503335
      37A     -0.477331    38A     -0.459547    39A     -0.457137

  @DF-RHF Final Energy:  -532.67149345564007

   => Energetics <=

    Nuclear Repulsion Energy =            540.5004884831375875
    One-Electron Energy =               -1801.3472353646454849
    Two-Electron Energy =                 728.1752534258678224
    Total Energy =                       -532.6714934556400749
  Basis Set: (AUG-CC-PVTZ AUX)
    Blend: AUG-CC-PVTZ-RI
    Molecular point group: c1

    Geometry (in Angstrom), charge = 0, multiplicity = 1:

       Center              X                  Y                   Z               Mass
    ------------   -----------------  -----------------  -----------------  -----------------
         O            1.724669464627    -0.281917491108     0.000068643400    15.994914619570
         O           -1.737793535373     0.272027508892     0.000031643400    15.994914619570
         O            0.551110464627     1.673708508892    -0.000157356600    15.994914619570
         O           -0.564230535373    -1.683596491108    -0.000314356600    15.994914619570
         C            2.951597464627     0.496251508892     0.000110643400    12.000000000000
         C           -2.964722535373    -0.506141491108    -0.000027356600    12.000000000000
         C            4.089597464627    -0.497034491108     0.000274643400    12.000000000000
         C           -4.102721535373     0.487146508892     0.000200643400    12.000000000000
         C            0.605548464627     0.456312508892    -0.000066356600    12.000000000000
         C           -0.538806935373    -0.406019991108    -0.000129956600    12.000000000000
         H            2.955876464627     1.139147508892    -0.884198356600     1.007825032230
         H            2.955733464627     1.139276508892     0.884327643400     1.007825032230
         H           -2.968979535373    -1.148954491108    -0.884396356600     1.007825032230
         H           -2.968880535373    -1.149247491108     0.884129643400     1.007825032230
         H            5.044725464627     0.035573508892     0.000310643400     1.007825032230
         H            4.043836464627    -1.132181491108     0.887055643400     1.007825032230
         H            4.043975464627    -1.132312491108    -0.886419356600     1.007825032230
         H           -5.057850535373    -0.045460491108     0.000163643400     1.007825032230
         H           -4.056981535373     1.122211508892     0.887041643400     1.007825032230
         H           -4.057077535373     1.122506508892    -0.886433356600     1.007825032230

  Basis Set: AUG-CC-PVTZ
    Blend: AUG-CC-PVTZ
  Basis Set: (AUG-CC-PVTZ AUX)
    Blend: AUG-CC-PVTZ-JKFIT
	 Reference Energy          =    -532.6714934556400749 [Eh]
	 Singles Energy            =      -0.0000000000000000 [Eh]
	 Same-Spin Energy          =      -0.5184832937260428 [Eh]
	 Opposite-Spin Energy      =      -1.6331782093141454 [Eh]
	 Correlation Energy        =      -2.1516615030401880 [Eh]
	 Total Energy              =    -534.8231549586802203 [Eh]

	 ================> DF-SCS-MP2 Energies <==================
	-----------------------------------------------------------
	 SCS Same-Spin Scale       =       0.3333333333333333 [-]
	 SCS Opposite-Spin Scale   =       1.2000000000000000 [-]
	 SCS Same-Spin Energy      =      -0.1728277645753476 [Eh]
	 SCS Opposite-Spin Energy  =      -1.9598138511769743 [Eh]
	 SCS Correlation Energy    =      -2.1326416157523220 [Eh]
	 SCS Total Energy          =    -534.8041350713923521 [Eh]
	-----------------------------------------------------------

  Dipole Moment: [D]
     X:     0.4019      Y:     0.1743      Z:     0.0005     Total:     0.4381

*** Psi4 exiting successfully. Buy a developer a beer!
