                               Psi4 1.4a3.dev225

  ==> Input File <==

--------------------------------------------------------------------------
#psi4
#
memory 32 gb

molecule  {
0 1
  O        1.7312310    -0.2769730     0.0000590
  O       -1.7312320     0.2769720     0.0000220
  O        0.5576720     1.6786530    -0.0001670
  O       -0.5576690    -1.6786520    -0.0003240
  C        3.0426062     0.5547560     0.0001039
  C       -2.9581610    -0.5011970    -0.0000370
  C        4.0961590    -0.4920900     0.0002650
  C       -4.0961600     0.4920910     0.0001910
  C        0.6121100     0.4612570    -0.0000760
  C       -0.6121090    -0.4612570    -0.0001440
  H        2.9624380     1.1440920    -0.8842080
  H        2.9622950     1.1442210     0.8843180
  H       -2.9624180    -1.1440100    -0.8844060
  H       -2.9623190    -1.1443030     0.8841200
  H        5.0512870     0.0405180     0.0003010
  H        4.0503980    -1.1272370     0.8870460
  H        4.0505370    -1.1273680    -0.8864290
  H       -5.0512890    -0.0405160     0.0001540
  H       -4.0504200     1.1271560     0.8870320
  H       -4.0505160     1.1274510    -0.8864430
units angstrom
no_reorient  #important for SAPT in psi4, default
symmetry c1  #important for SAPT in psi4, default
}

set PROPERTIES_ORIGIN ["COM"]
properties('MP2/aug-cc-pvtz', properties = ['dipole'])
--------------------------------------------------------------------------

    Molecular point group: c1
  Charge       = 0
  Multiplicity = 1
  Basis Set: AUG-CC-PVTZ
    Blend: AUG-CC-PVTZ
  Basis Set: (AUG-CC-PVTZ AUX)
    Blend: AUG-CC-PVTZ-JKFIT

    Orbital Energies [Eh]
    ---------------------

    Doubly Occupied:

       1A    -20.616013     2A    -20.606625     3A    -20.567728
       4A    -20.564271     5A    -11.402965     6A    -11.400163
       7A    -11.305088     8A    -11.297069     9A    -11.234190
      10A    -11.228031    11A     -1.478365    12A     -1.444415
      13A     -1.375307    14A     -1.353817    15A     -1.064939
      16A     -1.049796    17A     -0.940120    18A     -0.873665
      19A     -0.834197    20A     -0.779516    21A     -0.734165
      22A     -0.697795    23A     -0.697746    24A     -0.682738
      25A     -0.672237    26A     -0.612115    27A     -0.604062
      28A     -0.576978    29A     -0.576231    30A     -0.557458
      31A     -0.550508    32A     -0.526850    33A     -0.525599
      34A     -0.519956    35A     -0.514441    36A     -0.512067
      37A     -0.474336    38A     -0.463779    39A     -0.441855

  @DF-RHF Final Energy:  -532.68728896416417

   => Energetics <=

    Nuclear Repulsion Energy =            538.8416938757338812
    One-Electron Energy =               -1798.3435662607732866
    Two-Electron Energy =                 726.8145834208752376
    Total Energy =                       -532.6872889641641677
  Basis Set: (AUG-CC-PVTZ AUX)
    Blend: AUG-CC-PVTZ-RI
    Molecular point group: c1

    Geometry (in Angstrom), charge = 0, multiplicity = 1:

       Center              X                  Y                   Z               Mass
    ------------   -----------------  -----------------  -----------------  -----------------
         O            1.724292879748    -0.281373474008     0.000068766639    15.994914619570
         O           -1.738170120252     0.272571525992     0.000031766639    15.994914619570
         O            0.550733879748     1.674252525992    -0.000157233361    15.994914619570
         O           -0.564607120252    -1.683052474008    -0.000314233361    15.994914619570
         C            3.035668079748     0.550355525992     0.000113666639    12.000000000000
         C           -2.965099120252    -0.505597474008    -0.000027233361    12.000000000000
         C            4.089220879748    -0.496490474008     0.000274766639    12.000000000000
         C           -4.103098120252     0.487690525992     0.000200766639    12.000000000000
         C            0.605171879748     0.456856525992    -0.000066233361    12.000000000000
         C           -0.619047120252    -0.465657474008    -0.000134233361    12.000000000000
         H            2.955499879748     1.139691525992    -0.884198233361     1.007825032230
         H            2.955356879748     1.139820525992     0.884327766639     1.007825032230
         H           -2.969356120252    -1.148410474008    -0.884396233361     1.007825032230
         H           -2.969257120252    -1.148703474008     0.884129766639     1.007825032230
         H            5.044348879748     0.036117525992     0.000310766639     1.007825032230
         H            4.043459879748    -1.131637474008     0.887055766639     1.007825032230
         H            4.043598879748    -1.131768474008    -0.886419233361     1.007825032230
         H           -5.058227120252    -0.044916474008     0.000163766639     1.007825032230
         H           -4.057358120252     1.122755525992     0.887041766639     1.007825032230
         H           -4.057454120252     1.123050525992    -0.886433233361     1.007825032230

  Basis Set: AUG-CC-PVTZ
    Blend: AUG-CC-PVTZ
  Basis Set: (AUG-CC-PVTZ AUX)
    Blend: AUG-CC-PVTZ-JKFIT
	 Reference Energy          =    -532.6872889641641677 [Eh]
	 Singles Energy            =      -0.0000000000000000 [Eh]
	 Same-Spin Energy          =      -0.5160324520952421 [Eh]
	 Opposite-Spin Energy      =      -1.6279467088745370 [Eh]
	 Correlation Energy        =      -2.1439791609697791 [Eh]
	 Total Energy              =    -534.8312681251339882 [Eh]

	 ================> DF-SCS-MP2 Energies <==================
	-----------------------------------------------------------
	 SCS Same-Spin Scale       =       0.3333333333333333 [-]
	 SCS Opposite-Spin Scale   =       1.2000000000000000 [-]
	 SCS Same-Spin Energy      =      -0.1720108173650807 [Eh]
	 SCS Opposite-Spin Energy  =      -1.9535360506494444 [Eh]
	 SCS Correlation Energy    =      -2.1255468680145251 [Eh]
	 SCS Total Energy          =    -534.8128358321787346 [Eh]
	-----------------------------------------------------------

  Dipole Moment: [D]
     X:     0.4736      Y:     0.0575      Z:     0.0005     Total:     0.4771

*** Psi4 exiting successfully. Buy a developer a beer!
