                               Psi4 1.4a3.dev225

  ==> Input File <==

--------------------------------------------------------------------------
#psi4
#
memory 32 gb

molecule  {
0 1
  O        1.7461495    -0.2988400    -0.0431970
  O       -1.7312320     0.2769720     0.0000220
  O        0.5576720     1.6786530    -0.0001670
  O       -0.5576690    -1.6786520    -0.0003240
  C        2.9581590     0.5011960     0.0001010
  C       -2.9581610    -0.5011970    -0.0000370
  C        4.0961590    -0.4920900     0.0002650
  C       -4.0961600     0.4920910     0.0001910
  C        0.6121100     0.4612570    -0.0000760
  C       -0.6121090    -0.4612570    -0.0001440
  H        2.9624380     1.1440920    -0.8842080
  H        2.9622950     1.1442210     0.8843180
  H       -2.9624180    -1.1440100    -0.8844060
  H       -2.9623190    -1.1443030     0.8841200
  H        5.0512870     0.0405180     0.0003010
  H        4.0503980    -1.1272370     0.8870460
  H        4.0505370    -1.1273680    -0.8864290
  H       -5.0512890    -0.0405160     0.0001540
  H       -4.0504200     1.1271560     0.8870320
  H       -4.0505160     1.1274510    -0.8864430
units angstrom
no_reorient  #important for SAPT in psi4, default
symmetry c1  #important for SAPT in psi4, default
}

set PROPERTIES_ORIGIN ["COM"]
properties('MP2/aug-cc-pvtz', properties = ['dipole'])
--------------------------------------------------------------------------

    Molecular point group: c1
  Charge       = 0
  Multiplicity = 1
  Basis Set: AUG-CC-PVTZ
    Blend: AUG-CC-PVTZ
  Basis Set: (AUG-CC-PVTZ AUX)
    Blend: AUG-CC-PVTZ-JKFIT

    Orbital Energies [Eh]
    ---------------------

    Doubly Occupied:

       1A    -20.620316     2A    -20.618734     3A    -20.577594
       4A    -20.572823     5A    -11.411178     6A    -11.408799
       7A    -11.300130     8A    -11.297448     9A    -11.230368
      10A    -11.227990    11A     -1.484988    12A     -1.455232
      13A     -1.383646    14A     -1.367484    15A     -1.060608
      16A     -1.045687    17A     -0.945607    18A     -0.872990
      19A     -0.832228    20A     -0.786712    21A     -0.742038
      22A     -0.705190    23A     -0.701030    24A     -0.682696
      25A     -0.680710    26A     -0.610804    27A     -0.608581
      28A     -0.577682    29A     -0.576029    30A     -0.559423
      31A     -0.546331    32A     -0.524479    33A     -0.523983
      34A     -0.522738    35A     -0.521662    36A     -0.511814
      37A     -0.476340    38A     -0.466830    39A     -0.449130

  @DF-RHF Final Energy:  -532.69251464590684

   => Energetics <=

    Nuclear Repulsion Energy =            539.9167337078920355
    One-Electron Energy =               -1800.2423969233561820
    Two-Electron Energy =                 727.6331485695573065
    Total Energy =                       -532.6925146459068401
  Basis Set: (AUG-CC-PVTZ AUX)
    Blend: AUG-CC-PVTZ-RI
    Molecular point group: c1

    Geometry (in Angstrom), charge = 0, multiplicity = 1:

       Center              X                  Y                   Z               Mass
    ------------   -----------------  -----------------  -----------------  -----------------
         O            1.744515757118    -0.296445355509    -0.038449997066    15.994914619570
         O           -1.732865742882     0.279366644491     0.004769002934    15.994914619570
         O            0.556038257118     1.681047644491     0.004580002934    15.994914619570
         O           -0.559302742882    -1.676257355509     0.004423002934    15.994914619570
         C            2.956525257118     0.503590644491     0.004848002934    12.000000000000
         C           -2.959794742882    -0.498802355509     0.004710002934    12.000000000000
         C            4.094525257118    -0.489695355509     0.005012002934    12.000000000000
         C           -4.097793742882     0.494485644491     0.004938002934    12.000000000000
         C            0.610476257118     0.463651644491     0.004671002934    12.000000000000
         C           -0.613742742882    -0.458862355509     0.004603002934    12.000000000000
         H            2.960804257118     1.146486644491    -0.879460997066     1.007825032230
         H            2.960661257118     1.146615644491     0.889065002934     1.007825032230
         H           -2.964051742882    -1.141615355509    -0.879658997066     1.007825032230
         H           -2.963952742882    -1.141908355509     0.888867002934     1.007825032230
         H            5.049653257118     0.042912644491     0.005048002934     1.007825032230
         H            4.048764257118    -1.124842355509     0.891793002934     1.007825032230
         H            4.048903257118    -1.124973355509    -0.881681997066     1.007825032230
         H           -5.052922742882    -0.038121355509     0.004901002934     1.007825032230
         H           -4.052053742882     1.129550644491     0.891779002934     1.007825032230
         H           -4.052149742882     1.129845644491    -0.881695997066     1.007825032230

  Basis Set: AUG-CC-PVTZ
    Blend: AUG-CC-PVTZ
  Basis Set: (AUG-CC-PVTZ AUX)
    Blend: AUG-CC-PVTZ-JKFIT
	 Reference Energy          =    -532.6925146459068401 [Eh]
	 Singles Energy            =      -0.0000000000000000 [Eh]
	 Same-Spin Energy          =      -0.5160942242835986 [Eh]
	 Opposite-Spin Energy      =      -1.6279849113952696 [Eh]
	 Correlation Energy        =      -2.1440791356788682 [Eh]
	 Total Energy              =    -534.8365937815857478 [Eh]

	 ================> DF-SCS-MP2 Energies <==================
	-----------------------------------------------------------
	 SCS Same-Spin Scale       =       0.3333333333333333 [-]
	 SCS Opposite-Spin Scale   =       1.2000000000000000 [-]
	 SCS Same-Spin Energy      =      -0.1720314080945329 [Eh]
	 SCS Opposite-Spin Energy  =      -1.9535818936743234 [Eh]
	 SCS Correlation Energy    =      -2.1256133017688561 [Eh]
	 SCS Total Energy          =    -534.8181279476757481 [Eh]
	-----------------------------------------------------------

  Dipole Moment: [D]
     X:    -0.1585      Y:     0.0855      Z:     0.0499     Total:     0.1868

*** Psi4 exiting successfully. Buy a developer a beer!
