                               Psi4 1.4a3.dev225

  ==> Input File <==

--------------------------------------------------------------------------
#psi4
#
memory 32 gb

molecule  {
0 1
  O        1.7312310    -0.2769730     0.0000590
  O       -1.7312320     0.2769720     0.0000220
  O        0.5576720     1.6786530    -0.0001670
  O       -0.5576690    -1.6786520    -0.0003240
  C        2.9581590     0.5011960     0.0001010
  C       -2.9581610    -0.5011970    -0.0000370
  C        4.0961590    -0.4920900     0.0002650
  C       -4.0961600     0.4920910     0.0001910
  C        0.6121100     0.4612570    -0.0000760
  C       -0.6121090    -0.4612570    -0.0001440
  H        2.9624380     1.1440920    -0.8842080
  H        2.9622950     1.1442210     0.8843180
  H       -2.9624180    -1.1440100    -0.8844060
  H       -2.9623190    -1.1443030     0.8841200
  H        5.0512870     0.0405180     0.0003010
  H        4.0503980    -1.1272370     0.8870460
  H        4.0505370    -1.1273680    -0.8864290
  H       -4.8766115     0.0568891     0.0001608
  H       -4.0504200     1.1271560     0.8870320
  H       -4.0505160     1.1274510    -0.8864430
units angstrom
no_reorient  #important for SAPT in psi4, default
symmetry c1  #important for SAPT in psi4, default
}

set PROPERTIES_ORIGIN ["COM"]
properties('MP2/aug-cc-pvtz', properties = ['dipole'])
--------------------------------------------------------------------------

    Molecular point group: c1
  Charge       = 0
  Multiplicity = 1
  Basis Set: AUG-CC-PVTZ
    Blend: AUG-CC-PVTZ
  Basis Set: (AUG-CC-PVTZ AUX)
    Blend: AUG-CC-PVTZ-JKFIT

    Orbital Energies [Eh]
    ---------------------

    Doubly Occupied:

       1A    -20.619063     2A    -20.618473     3A    -20.571542
       4A    -20.571344     5A    -11.407344     6A    -11.406700
       7A    -11.299229     8A    -11.298273     9A    -11.229634
      10A    -11.204973    11A     -1.486729    12A     -1.458520
      13A     -1.381877    14A     -1.366098    15A     -1.067873
      16A     -1.051958    17A     -0.953526    18A     -0.884868
      19A     -0.833652    20A     -0.786838    21A     -0.747094
      22A     -0.703271    23A     -0.701740    24A     -0.683325
      25A     -0.680240    26A     -0.610575    27A     -0.608623
      28A     -0.600905    29A     -0.576960    30A     -0.571025
      31A     -0.550992    32A     -0.523587    33A     -0.522659
      34A     -0.521776    35A     -0.520326    36A     -0.510569
      37A     -0.475249    38A     -0.465536    39A     -0.447873

  @DF-RHF Final Energy:  -532.66139904310103

   => Energetics <=

    Nuclear Repulsion Energy =            541.5470108823654982
    One-Electron Energy =               -1803.3751453097154354
    Two-Electron Energy =                 729.1667353842490229
    Total Energy =                       -532.6613990431010279
  Basis Set: (AUG-CC-PVTZ AUX)
    Blend: AUG-CC-PVTZ-RI
    Molecular point group: c1

    Geometry (in Angstrom), charge = 0, multiplicity = 1:

       Center              X                  Y                   Z               Mass
    ------------   -----------------  -----------------  -----------------  -----------------
         O            1.730025688397    -0.277645139771     0.000068957979    15.994914619570
         O           -1.732437311603     0.276299860229     0.000031957979    15.994914619570
         O            0.556466688397     1.677980860229    -0.000157042021    15.994914619570
         O           -0.558874311603    -1.679324139771    -0.000314042021    15.994914619570
         C            2.956953688397     0.500523860229     0.000110957979    12.000000000000
         C           -2.959366311603    -0.501869139771    -0.000027042021    12.000000000000
         C            4.094953688397    -0.492762139771     0.000274957979    12.000000000000
         C           -4.097365311603     0.491418860229     0.000200957979    12.000000000000
         C            0.610904688397     0.460584860229    -0.000066042021    12.000000000000
         C           -0.613314311603    -0.461929139771    -0.000134042021    12.000000000000
         H            2.961232688397     1.143419860229    -0.884198042021     1.007825032230
         H            2.961089688397     1.143548860229     0.884327957979     1.007825032230
         H           -2.963623311603    -1.144682139771    -0.884396042021     1.007825032230
         H           -2.963524311603    -1.144975139771     0.884129957979     1.007825032230
         H            5.050081688397     0.039845860229     0.000310957979     1.007825032230
         H            4.049192688397    -1.127909139771     0.887055957979     1.007825032230
         H            4.049331688397    -1.128040139771    -0.886419042021     1.007825032230
         H           -4.877816811603     0.056216960229     0.000170757979     1.007825032230
         H           -4.051625311603     1.126483860229     0.887041957979     1.007825032230
         H           -4.051721311603     1.126778860229    -0.886433042021     1.007825032230

  Basis Set: AUG-CC-PVTZ
    Blend: AUG-CC-PVTZ
  Basis Set: (AUG-CC-PVTZ AUX)
    Blend: AUG-CC-PVTZ-JKFIT
	 Reference Energy          =    -532.6613990431010279 [Eh]
	 Singles Energy            =      -0.0000000000000000 [Eh]
	 Same-Spin Energy          =      -0.5158618377078421 [Eh]
	 Opposite-Spin Energy      =      -1.6261940120983014 [Eh]
	 Correlation Energy        =      -2.1420558498061437 [Eh]
	 Total Energy              =    -534.8034548929072116 [Eh]

	 ================> DF-SCS-MP2 Energies <==================
	-----------------------------------------------------------
	 SCS Same-Spin Scale       =       0.3333333333333333 [-]
	 SCS Opposite-Spin Scale   =       1.2000000000000000 [-]
	 SCS Same-Spin Energy      =      -0.1719539459026140 [Eh]
	 SCS Opposite-Spin Energy  =      -1.9514328145179616 [Eh]
	 SCS Correlation Energy    =      -2.1233867604205754 [Eh]
	 SCS Total Energy          =    -534.7847858035215722 [Eh]
	-----------------------------------------------------------

  Dipole Moment: [D]
     X:    -0.0766      Y:    -0.0203      Z:     0.0005     Total:     0.0793

*** Psi4 exiting successfully. Buy a developer a beer!
