                               Psi4 1.4a3.dev225

  ==> Input File <==

--------------------------------------------------------------------------
#psi4
#
memory 32 gb

molecule  {
0 1
  O        1.7312310    -0.2769730     0.0000590
  O       -1.7312320     0.2769720     0.0000220
  O        0.5576720     1.6786530    -0.0001670
  O       -0.5576690    -1.6786520    -0.0003240
  C        2.9581590     0.5011960     0.0001010
  C       -2.9581610    -0.5011970    -0.0000370
  C        4.0961590    -0.4920900     0.0002650
  C       -4.0961600     0.4920910     0.0001910
  C        0.6121100     0.4612570    -0.0000760
  C       -0.6121090    -0.4612570    -0.0001440
  H        2.9624380     1.1440920    -0.8842080
  H        2.9622950     1.1442210     0.8843180
  H       -2.9624180    -1.1440100    -0.8844060
  H       -2.9623190    -1.1443030     0.8841200
  H        5.0512870     0.0405180     0.0003010
  H        4.0503980    -1.1272370     0.8870460
  H        4.0505370    -1.1273680    -0.8864290
  H       -5.0338212    -0.0307755     0.0001547
  H       -4.0504200     1.1271560     0.8870320
  H       -4.0505160     1.1274510    -0.8864430
units angstrom
no_reorient  #important for SAPT in psi4, default
symmetry c1  #important for SAPT in psi4, default
}

set PROPERTIES_ORIGIN ["COM"]
properties('MP2/aug-cc-pvtz', properties = ['dipole'])
--------------------------------------------------------------------------

    Molecular point group: c1
  Charge       = 0
  Multiplicity = 1
  Basis Set: AUG-CC-PVTZ
    Blend: AUG-CC-PVTZ
  Basis Set: (AUG-CC-PVTZ AUX)
    Blend: AUG-CC-PVTZ-JKFIT

    Orbital Energies [Eh]
    ---------------------

    Doubly Occupied:

       1A    -20.619426     2A    -20.619344     3A    -20.571982
       4A    -20.571955     5A    -11.407911     6A    -11.407341
       7A    -11.299498     8A    -11.299370     9A    -11.229840
      10A    -11.227406    11A     -1.487326    12A     -1.459143
      13A     -1.382429    14A     -1.366677    15A     -1.062066
      16A     -1.048075    17A     -0.946517    18A     -0.876171
      19A     -0.831575    20A     -0.787196    21A     -0.745242
      22A     -0.703673    23A     -0.702331    24A     -0.683942
      25A     -0.680096    26A     -0.611197    27A     -0.609284
      28A     -0.577738    29A     -0.577025    30A     -0.562304
      31A     -0.548778    32A     -0.523988    33A     -0.523495
      34A     -0.522529    35A     -0.520499    36A     -0.511219
      37A     -0.475768    38A     -0.466068    39A     -0.448129

  @DF-RHF Final Energy:  -532.69572616364258

   => Energetics <=

    Nuclear Repulsion Energy =            540.6004235371233335
    One-Electron Energy =               -1801.6031938262965468
    Two-Electron Energy =                 728.3070441255306378
    Total Energy =                       -532.6957261636425756
  Basis Set: (AUG-CC-PVTZ AUX)
    Blend: AUG-CC-PVTZ-RI
    Molecular point group: c1

    Geometry (in Angstrom), charge = 0, multiplicity = 1:

       Center              X                  Y                   Z               Mass
    ------------   -----------------  -----------------  -----------------  -----------------
         O            1.731110462733    -0.277040238749     0.000069000070    15.994914619570
         O           -1.731352537267     0.276904761251     0.000032000070    15.994914619570
         O            0.557551462733     1.678585761251    -0.000156999930    15.994914619570
         O           -0.557789537267    -1.678719238749    -0.000313999930    15.994914619570
         C            2.958038462733     0.501128761251     0.000111000070    12.000000000000
         C           -2.958281537267    -0.501264238749    -0.000026999930    12.000000000000
         C            4.096038462733    -0.492157238749     0.000275000070    12.000000000000
         C           -4.096280537267     0.492023761251     0.000201000070    12.000000000000
         C            0.611989462733     0.461189761251    -0.000065999930    12.000000000000
         C           -0.612229537267    -0.461324238749    -0.000133999930    12.000000000000
         H            2.962317462733     1.144024761251    -0.884197999930     1.007825032230
         H            2.962174462733     1.144153761251     0.884328000070     1.007825032230
         H           -2.962538537267    -1.144077238749    -0.884395999930     1.007825032230
         H           -2.962439537267    -1.144370238749     0.884130000070     1.007825032230
         H            5.051166462733     0.040450761251     0.000311000070     1.007825032230
         H            4.050277462733    -1.127304238749     0.887056000070     1.007825032230
         H            4.050416462733    -1.127435238749    -0.886418999930     1.007825032230
         H           -5.033941737267    -0.030842738749     0.000164700070     1.007825032230
         H           -4.050540537267     1.127088761251     0.887042000070     1.007825032230
         H           -4.050636537267     1.127383761251    -0.886432999930     1.007825032230

  Basis Set: AUG-CC-PVTZ
    Blend: AUG-CC-PVTZ
  Basis Set: (AUG-CC-PVTZ AUX)
    Blend: AUG-CC-PVTZ-JKFIT
	 Reference Energy          =    -532.6957261636425756 [Eh]
	 Singles Energy            =      -0.0000000000000000 [Eh]
	 Same-Spin Energy          =      -0.5156517936486553 [Eh]
	 Opposite-Spin Energy      =      -1.6265678865809015 [Eh]
	 Correlation Energy        =      -2.1422196802295570 [Eh]
	 Total Energy              =    -534.8379458438721485 [Eh]

	 ================> DF-SCS-MP2 Energies <==================
	-----------------------------------------------------------
	 SCS Same-Spin Scale       =       0.3333333333333333 [-]
	 SCS Opposite-Spin Scale   =       1.2000000000000000 [-]
	 SCS Same-Spin Energy      =      -0.1718839312162184 [Eh]
	 SCS Opposite-Spin Energy  =      -1.9518814638970816 [Eh]
	 SCS Correlation Energy    =      -2.1237653951133000 [Eh]
	 SCS Total Energy          =    -534.8194915587558853 [Eh]
	-----------------------------------------------------------

  Dipole Moment: [D]
     X:    -0.0105      Y:    -0.0028      Z:     0.0005     Total:     0.0109

*** Psi4 exiting successfully. Buy a developer a beer!
