                               Psi4 1.4a3.dev225

  ==> Input File <==

--------------------------------------------------------------------------
#psi4
#
memory 32 gb

molecule  {
0 1
  O        1.7312310    -0.2769730     0.0000590
  O       -1.7312320     0.2769720     0.0000220
  O        0.5576720     1.6786530    -0.0001670
  O       -0.5576690    -1.6786520    -0.0003240
  C        2.9581590     0.5011960     0.0001010
  C       -2.9581610    -0.5011970    -0.0000370
  C        4.0961590    -0.4920900     0.0002650
  C       -4.0961600     0.4920910     0.0001910
  C        0.6121100     0.4612570    -0.0000760
  C       -0.6121090    -0.4612570    -0.0001440
  H        2.9624380     1.1440920    -0.8842080
  H        2.9622950     1.1442210     0.8843180
  H       -2.9624180    -1.1440100    -0.8844060
  H       -2.9623190    -1.1443030     0.8841200
  H        5.0512870     0.0405180     0.0003010
  H        4.0503980    -1.1272370     0.8870460
  H        4.0505370    -1.1273680    -0.8864290
  H       -5.0463588    -0.0490143    -0.0162096
  H       -4.0504200     1.1271560     0.8870320
  H       -4.0505160     1.1274510    -0.8864430
units angstrom
no_reorient  #important for SAPT in psi4, default
symmetry c1  #important for SAPT in psi4, default
}

set PROPERTIES_ORIGIN ["COM"]
properties('MP2/aug-cc-pvtz', properties = ['dipole'])
--------------------------------------------------------------------------

    Molecular point group: c1
  Charge       = 0
  Multiplicity = 1
  Basis Set: AUG-CC-PVTZ
    Blend: AUG-CC-PVTZ
  Basis Set: (AUG-CC-PVTZ AUX)
    Blend: AUG-CC-PVTZ-JKFIT

    Orbital Energies [Eh]
    ---------------------

    Doubly Occupied:

       1A    -20.619466     2A    -20.619394     3A    -20.572032
       4A    -20.572018     5A    -11.407965     6A    -11.407396
       7A    -11.299529     8A    -11.299439     9A    -11.229917
      10A    -11.229865    11A     -1.487384    12A     -1.459202
      13A     -1.382486    14A     -1.366736    15A     -1.061870
      16A     -1.047762    17A     -0.946006    18A     -0.875329
      19A     -0.831303    20A     -0.787253    21A     -0.745049
      22A     -0.703728    23A     -0.702399    24A     -0.684022
      25A     -0.680124    26A     -0.611311    27A     -0.609403
      28A     -0.577978    29A     -0.576493    30A     -0.560093
      31A     -0.547429    32A     -0.524169    33A     -0.523650
      34A     -0.522633    35A     -0.520458    36A     -0.511309
      37A     -0.475830    38A     -0.466128    39A     -0.448126

  @DF-RHF Final Energy:  -532.69568244147467

   => Energetics <=

    Nuclear Repulsion Energy =            540.5192379015405777
    One-Electron Energy =               -1801.4444736637822189
    Two-Electron Energy =                 728.2295533207670815
    Total Energy =                       -532.6956824414746734
  Basis Set: (AUG-CC-PVTZ AUX)
    Blend: AUG-CC-PVTZ-RI
    Molecular point group: c1

    Geometry (in Angstrom), charge = 0, multiplicity = 1:

       Center              X                  Y                   Z               Mass
    ------------   -----------------  -----------------  -----------------  -----------------
         O            1.731196974359    -0.276914387849     0.000181916593    15.994914619570
         O           -1.731266025641     0.277030612151     0.000144916593    15.994914619570
         O            0.557637974359     1.678711612151    -0.000044083407    15.994914619570
         O           -0.557703025641    -1.678593387849    -0.000201083407    15.994914619570
         C            2.958124974359     0.501254612151     0.000223916593    12.000000000000
         C           -2.958195025641    -0.501138387849     0.000085916593    12.000000000000
         C            4.096124974359    -0.492031387849     0.000387916593    12.000000000000
         C           -4.096194025641     0.492149612151     0.000313916593    12.000000000000
         C            0.612075974359     0.461315612151     0.000046916593    12.000000000000
         C           -0.612143025641    -0.461198387849    -0.000021083407    12.000000000000
         H            2.962403974359     1.144150612151    -0.884085083407     1.007825032230
         H            2.962260974359     1.144279612151     0.884440916593     1.007825032230
         H           -2.962452025641    -1.143951387849    -0.884283083407     1.007825032230
         H           -2.962353025641    -1.144244387849     0.884242916593     1.007825032230
         H            5.051252974359     0.040576612151     0.000423916593     1.007825032230
         H            4.050363974359    -1.127178387849     0.887168916593     1.007825032230
         H            4.050502974359    -1.127309387849    -0.886306083407     1.007825032230
         H           -5.046392825641    -0.048955687849    -0.016086683407     1.007825032230
         H           -4.050454025641     1.127214612151     0.887154916593     1.007825032230
         H           -4.050550025641     1.127509612151    -0.886320083407     1.007825032230

  Basis Set: AUG-CC-PVTZ
    Blend: AUG-CC-PVTZ
  Basis Set: (AUG-CC-PVTZ AUX)
    Blend: AUG-CC-PVTZ-JKFIT
	 Reference Energy          =    -532.6956824414746734 [Eh]
	 Singles Energy            =      -0.0000000000000000 [Eh]
	 Same-Spin Energy          =      -0.5156421357010662 [Eh]
	 Opposite-Spin Energy      =      -1.6266827246864684 [Eh]
	 Correlation Energy        =      -2.1423248603875344 [Eh]
	 Total Energy              =    -534.8380073018622625 [Eh]

	 ================> DF-SCS-MP2 Energies <==================
	-----------------------------------------------------------
	 SCS Same-Spin Scale       =       0.3333333333333333 [-]
	 SCS Opposite-Spin Scale   =       1.2000000000000000 [-]
	 SCS Same-Spin Energy      =      -0.1718807119003554 [Eh]
	 SCS Opposite-Spin Energy  =      -1.9520192696237619 [Eh]
	 SCS Correlation Energy    =      -2.1238999815241173 [Eh]
	 SCS Total Energy          =    -534.8195824229987920 [Eh]
	-----------------------------------------------------------

  Dipole Moment: [D]
     X:     0.0007      Y:    -0.0013      Z:    -0.0057     Total:     0.0059

*** Psi4 exiting successfully. Buy a developer a beer!
