                               Psi4 1.4a3.dev225

  ==> Input File <==

--------------------------------------------------------------------------
#psi4
#
memory 32 gb

molecule  {
0 1
  O        1.7312310    -0.2769730     0.0000590
  O       -1.7312320     0.2769720     0.0000220
  O        0.5576720     1.6786530    -0.0001670
  O       -0.5576690    -1.6786520    -0.0003240
  C        2.8700970     0.6251820     0.0000860
  C       -2.9581610    -0.5011970    -0.0000370
  C        4.0961590    -0.4920900     0.0002650
  C       -4.0961600     0.4920910     0.0001910
  C        0.6121100     0.4612570    -0.0000760
  C       -0.6121090    -0.4612570    -0.0001440
  H        2.9624380     1.1440920    -0.8842080
  H        2.9622950     1.1442210     0.8843180
  H       -2.9624180    -1.1440100    -0.8844060
  H       -2.9623190    -1.1443030     0.8841200
  H        5.0512870     0.0405180     0.0003010
  H        4.0503980    -1.1272370     0.8870460
  H        4.0505370    -1.1273680    -0.8864290
  H       -5.0512890    -0.0405160     0.0001540
  H       -4.0504200     1.1271560     0.8870320
  H       -4.0505160     1.1274510    -0.8864430
units angstrom
no_reorient  #important for SAPT in psi4, default
symmetry c1  #important for SAPT in psi4, default
}

set PROPERTIES_ORIGIN ["COM"]
properties('MP2/aug-cc-pvtz', properties = ['dipole'])
--------------------------------------------------------------------------

    Molecular point group: c1
  Charge       = 0
  Multiplicity = 1
  Basis Set: AUG-CC-PVTZ
    Blend: AUG-CC-PVTZ
  Basis Set: (AUG-CC-PVTZ AUX)
    Blend: AUG-CC-PVTZ-JKFIT

    Orbital Energies [Eh]
    ---------------------

    Doubly Occupied:

       1A    -20.625782     2A    -20.620086     3A    -20.574468
       4A    -20.573218     5A    -11.408597     6A    -11.407959
       7A    -11.300020     8A    -11.295718     9A    -11.231000
      10A    -11.230338    11A     -1.491146    12A     -1.462703
      13A     -1.384490    14A     -1.368596    15A     -1.058295
      16A     -1.030951    17A     -0.940633    18A     -0.877702
      19A     -0.840199    20A     -0.789892    21A     -0.744588
      22A     -0.711708    23A     -0.706378    24A     -0.690185
      25A     -0.682288    26A     -0.612928    27A     -0.611954
      28A     -0.577019    29A     -0.575429    30A     -0.556405
      31A     -0.545022    32A     -0.533154    33A     -0.524472
      34A     -0.522188    35A     -0.516263    36A     -0.485856
      37A     -0.481573    38A     -0.470021    39A     -0.448784

  @DF-RHF Final Energy:  -532.67355987129292

   => Energetics <=

    Nuclear Repulsion Energy =            540.5459190942801797
    One-Electron Energy =               -1801.4229411979933957
    Two-Electron Energy =                 728.2034622324202928
    Total Energy =                       -532.6735598712929232
  Basis Set: (AUG-CC-PVTZ AUX)
    Blend: AUG-CC-PVTZ-RI
    Molecular point group: c1

    Geometry (in Angstrom), charge = 0, multiplicity = 1:

       Center              X                  Y                   Z               Mass
    ------------   -----------------  -----------------  -----------------  -----------------
         O            1.738466096501    -0.287159617373     0.000070237288    15.994914619570
         O           -1.723996903499     0.266785382627     0.000033237288    15.994914619570
         O            0.564907096501     1.668466382627    -0.000155762712    15.994914619570
         O           -0.550433903499    -1.688838617373    -0.000312762712    15.994914619570
         C            2.877332096501     0.614995382627     0.000097237288    12.000000000000
         C           -2.950925903499    -0.511383617373    -0.000025762712    12.000000000000
         C            4.103394096501    -0.502276617373     0.000276237288    12.000000000000
         C           -4.088924903499     0.481904382627     0.000202237288    12.000000000000
         C            0.619345096501     0.451070382627    -0.000064762712    12.000000000000
         C           -0.604873903499    -0.471443617373    -0.000132762712    12.000000000000
         H            2.969673096501     1.133905382627    -0.884196762712     1.007825032230
         H            2.969530096501     1.134034382627     0.884329237288     1.007825032230
         H           -2.955182903499    -1.154196617373    -0.884394762712     1.007825032230
         H           -2.955083903499    -1.154489617373     0.884131237288     1.007825032230
         H            5.058522096501     0.030331382627     0.000312237288     1.007825032230
         H            4.057633096501    -1.137423617373     0.887057237288     1.007825032230
         H            4.057772096501    -1.137554617373    -0.886417762712     1.007825032230
         H           -5.044053903499    -0.050702617373     0.000165237288     1.007825032230
         H           -4.043184903499     1.116969382627     0.887043237288     1.007825032230
         H           -4.043280903499     1.117264382627    -0.886431762712     1.007825032230

  Basis Set: AUG-CC-PVTZ
    Blend: AUG-CC-PVTZ
  Basis Set: (AUG-CC-PVTZ AUX)
    Blend: AUG-CC-PVTZ-JKFIT
	 Reference Energy          =    -532.6735598712929232 [Eh]
	 Singles Energy            =      -0.0000000000000000 [Eh]
	 Same-Spin Energy          =      -0.5158235094760242 [Eh]
	 Opposite-Spin Energy      =      -1.6283035779724702 [Eh]
	 Correlation Energy        =      -2.1441270874484943 [Eh]
	 Total Energy              =    -534.8176869587414330 [Eh]

	 ================> DF-SCS-MP2 Energies <==================
	-----------------------------------------------------------
	 SCS Same-Spin Scale       =       0.3333333333333333 [-]
	 SCS Opposite-Spin Scale   =       1.2000000000000000 [-]
	 SCS Same-Spin Energy      =      -0.1719411698253414 [Eh]
	 SCS Opposite-Spin Energy  =      -1.9539642935669641 [Eh]
	 SCS Correlation Energy    =      -2.1259054633923054 [Eh]
	 SCS Total Energy          =    -534.7994653346852374 [Eh]
	-----------------------------------------------------------

  Dipole Moment: [D]
     X:    -0.2771      Y:     0.1610      Z:     0.0005     Total:     0.3205

*** Psi4 exiting successfully. Buy a developer a beer!
