                               Psi4 1.4a3.dev225

  ==> Input File <==

--------------------------------------------------------------------------
#psi4
#
memory 32 gb

molecule  {
0 1
  O        1.7312310    -0.2769730     0.0000590
  O       -1.7048217     0.2336788     0.0000134
  O        0.5576720     1.6786530    -0.0001670
  O       -0.5576690    -1.6786520    -0.0003240
  C        2.9581590     0.5011960     0.0001010
  C       -2.9581610    -0.5011970    -0.0000370
  C        4.0961590    -0.4920900     0.0002650
  C       -4.0961600     0.4920910     0.0001910
  C        0.6121100     0.4612570    -0.0000760
  C       -0.6121090    -0.4612570    -0.0001440
  H        2.9624380     1.1440920    -0.8842080
  H        2.9622950     1.1442210     0.8843180
  H       -2.9624180    -1.1440100    -0.8844060
  H       -2.9623190    -1.1443030     0.8841200
  H        5.0512870     0.0405180     0.0003010
  H        4.0503980    -1.1272370     0.8870460
  H        4.0505370    -1.1273680    -0.8864290
  H       -5.0512890    -0.0405160     0.0001540
  H       -4.0504200     1.1271560     0.8870320
  H       -4.0505160     1.1274510    -0.8864430
units angstrom
no_reorient  #important for SAPT in psi4, default
symmetry c1  #important for SAPT in psi4, default
}

set PROPERTIES_ORIGIN ["COM"]
properties('MP2/aug-cc-pvtz', properties = ['dipole'])
--------------------------------------------------------------------------

    Molecular point group: c1
  Charge       = 0
  Multiplicity = 1
  Basis Set: AUG-CC-PVTZ
    Blend: AUG-CC-PVTZ
  Basis Set: (AUG-CC-PVTZ AUX)
    Blend: AUG-CC-PVTZ-JKFIT

    Orbital Energies [Eh]
    ---------------------

    Doubly Occupied:

       1A    -20.620459     2A    -20.617978     3A    -20.570743
       4A    -20.561238     5A    -11.405755     6A    -11.400998
       7A    -11.303629     8A    -11.298468     9A    -11.233458
      10A    -11.228961    11A     -1.496662    12A     -1.464508
      13A     -1.379663    14A     -1.364414    15A     -1.066011
      16A     -1.049711    17A     -0.947363    18A     -0.880194
      19A     -0.829851    20A     -0.788814    21A     -0.750366
      22A     -0.706626    23A     -0.701132    24A     -0.685676
      25A     -0.678717    26A     -0.612743    27A     -0.610969
      28A     -0.580360    29A     -0.574699    30A     -0.562826
      31A     -0.550033    32A     -0.523805    33A     -0.522522
      34A     -0.521836    35A     -0.516876    36A     -0.510754
      37A     -0.474220    38A     -0.464293    39A     -0.445828

  @DF-RHF Final Energy:  -532.69789154603222

   => Energetics <=

    Nuclear Repulsion Energy =            541.6128500920895021
    One-Electron Energy =               -1803.6151777509758176
    Two-Electron Energy =                 729.3044361128540913
    Total Energy =                       -532.6978915460322241
  Basis Set: (AUG-CC-PVTZ AUX)
    Blend: AUG-CC-PVTZ-RI
    Molecular point group: c1

    Geometry (in Angstrom), charge = 0, multiplicity = 1:

       Center              X                  Y                   Z               Mass
    ------------   -----------------  -----------------  -----------------  -----------------
         O            1.728338781207    -0.272231955766     0.000069946693    15.994914619570
         O           -1.707713918793     0.238419844234     0.000024346693    15.994914619570
         O            0.554779781207     1.683394044234    -0.000156053307    15.994914619570
         O           -0.560561218793    -1.673910955766    -0.000313053307    15.994914619570
         C            2.955266781207     0.505937044234     0.000111946693    12.000000000000
         C           -2.961053218793    -0.496455955766    -0.000026053307    12.000000000000
         C            4.093266781207    -0.487348955766     0.000275946693    12.000000000000
         C           -4.099052218793     0.496832044234     0.000201946693    12.000000000000
         C            0.609217781207     0.465998044234    -0.000065053307    12.000000000000
         C           -0.615001218793    -0.456515955766    -0.000133053307    12.000000000000
         H            2.959545781207     1.148833044234    -0.884197053307     1.007825032230
         H            2.959402781207     1.148962044234     0.884328946693     1.007825032230
         H           -2.965310218793    -1.139268955766    -0.884395053307     1.007825032230
         H           -2.965211218793    -1.139561955766     0.884130946693     1.007825032230
         H            5.048394781207     0.045259044234     0.000311946693     1.007825032230
         H            4.047505781207    -1.122495955766     0.887056946693     1.007825032230
         H            4.047644781207    -1.122626955766    -0.886418053307     1.007825032230
         H           -5.054181218793    -0.035774955766     0.000164946693     1.007825032230
         H           -4.053312218793     1.131897044234     0.887042946693     1.007825032230
         H           -4.053408218793     1.132192044234    -0.886432053307     1.007825032230

  Basis Set: AUG-CC-PVTZ
    Blend: AUG-CC-PVTZ
  Basis Set: (AUG-CC-PVTZ AUX)
    Blend: AUG-CC-PVTZ-JKFIT
	 Reference Energy          =    -532.6978915460322241 [Eh]
	 Singles Energy            =      -0.0000000000000000 [Eh]
	 Same-Spin Energy          =      -0.5148581600538871 [Eh]
	 Opposite-Spin Energy      =      -1.6243822556570271 [Eh]
	 Correlation Energy        =      -2.1392404157109142 [Eh]
	 Total Energy              =    -534.8371319617431254 [Eh]

	 ================> DF-SCS-MP2 Energies <==================
	-----------------------------------------------------------
	 SCS Same-Spin Scale       =       0.3333333333333333 [-]
	 SCS Opposite-Spin Scale   =       1.2000000000000000 [-]
	 SCS Same-Spin Energy      =      -0.1716193866846290 [Eh]
	 SCS Opposite-Spin Energy  =      -1.9492587067884324 [Eh]
	 SCS Correlation Energy    =      -2.1208780934730616 [Eh]
	 SCS Total Energy          =    -534.8187696395052626 [Eh]
	-----------------------------------------------------------

  Dipole Moment: [D]
     X:    -0.2868      Y:     0.1662      Z:     0.0005     Total:     0.3315

*** Psi4 exiting successfully. Buy a developer a beer!
