                               Psi4 1.4a3.dev225

  ==> Input File <==

--------------------------------------------------------------------------
#psi4
#
memory 32 gb

molecule  {
0 1
  O        1.7385045    -0.2880267    -0.0215723
  O       -1.7312320     0.2769720     0.0000220
  O        0.5576720     1.6786530    -0.0001670
  O       -0.5576690    -1.6786520    -0.0003240
  C        2.9581590     0.5011960     0.0001010
  C       -2.9581610    -0.5011970    -0.0000370
  C        4.0961590    -0.4920900     0.0002650
  C       -4.0961600     0.4920910     0.0001910
  C        0.6121100     0.4612570    -0.0000760
  C       -0.6121090    -0.4612570    -0.0001440
  H        2.9624380     1.1440920    -0.8842080
  H        2.9622950     1.1442210     0.8843180
  H       -2.9624180    -1.1440100    -0.8844060
  H       -2.9623190    -1.1443030     0.8841200
  H        5.0512870     0.0405180     0.0003010
  H        4.0503980    -1.1272370     0.8870460
  H        4.0505370    -1.1273680    -0.8864290
  H       -5.0512890    -0.0405160     0.0001540
  H       -4.0504200     1.1271560     0.8870320
  H       -4.0505160     1.1274510    -0.8864430
units angstrom
no_reorient  #important for SAPT in psi4, default
symmetry c1  #important for SAPT in psi4, default
}

set PROPERTIES_ORIGIN ["COM"]
properties('MP2/aug-cc-pvtz', properties = ['dipole'])
--------------------------------------------------------------------------

    Molecular point group: c1
  Charge       = 0
  Multiplicity = 1
  Basis Set: AUG-CC-PVTZ
    Blend: AUG-CC-PVTZ
  Basis Set: (AUG-CC-PVTZ AUX)
    Blend: AUG-CC-PVTZ-JKFIT

    Orbital Energies [Eh]
    ---------------------

    Doubly Occupied:

       1A    -20.619886     2A    -20.619148     3A    -20.574802
       4A    -20.572419     5A    -11.409486     6A    -11.408190
       7A    -11.299826     8A    -11.298505     9A    -11.230114
      10A    -11.228941    11A     -1.486036    12A     -1.457318
      13A     -1.383123    14A     -1.367167    15A     -1.061145
      16A     -1.046796    17A     -0.945785    18A     -0.874211
      19A     -0.831802    20A     -0.786966    21A     -0.743607
      22A     -0.704451    23A     -0.701669    24A     -0.683391
      25A     -0.680459    26A     -0.610980    27A     -0.609038
      28A     -0.577373    29A     -0.576567    30A     -0.559742
      31A     -0.547040    32A     -0.524155    33A     -0.523906
      34A     -0.522700    35A     -0.521142    36A     -0.511555
      37A     -0.476144    38A     -0.466519    39A     -0.448665

  @DF-RHF Final Energy:  -532.69434562663446

   => Energetics <=

    Nuclear Repulsion Energy =            540.2183489461311865
    One-Electron Energy =               -1800.8438483129409633
    Two-Electron Energy =                 727.9311537401754322
    Total Energy =                       -532.6943456266344583
  Basis Set: (AUG-CC-PVTZ AUX)
    Blend: AUG-CC-PVTZ-RI
    Molecular point group: c1

    Geometry (in Angstrom), charge = 0, multiplicity = 1:

       Center              X                  Y                   Z               Mass
    ------------   -----------------  -----------------  -----------------  -----------------
         O            1.737707966984    -0.286816228360    -0.019193434697    15.994914619570
         O           -1.732028533016     0.278182471640     0.002400865303    15.994914619570
         O            0.556875466984     1.679863471640     0.002211865303    15.994914619570
         O           -0.558465533016    -1.677441528360     0.002054865303    15.994914619570
         C            2.957362466984     0.502406471640     0.002479865303    12.000000000000
         C           -2.958957533016    -0.499986528360     0.002341865303    12.000000000000
         C            4.095362466984    -0.490879528360     0.002643865303    12.000000000000
         C           -4.096956533016     0.493301471640     0.002569865303    12.000000000000
         C            0.611313466984     0.462467471640     0.002302865303    12.000000000000
         C           -0.612905533016    -0.460046528360     0.002234865303    12.000000000000
         H            2.961641466984     1.145302471640    -0.881829134697     1.007825032230
         H            2.961498466984     1.145431471640     0.886696865303     1.007825032230
         H           -2.963214533016    -1.142799528360    -0.882027134697     1.007825032230
         H           -2.963115533016    -1.143092528360     0.886498865303     1.007825032230
         H            5.050490466984     0.041728471640     0.002679865303     1.007825032230
         H            4.049601466984    -1.126026528360     0.889424865303     1.007825032230
         H            4.049740466984    -1.126157528360    -0.884050134697     1.007825032230
         H           -5.052085533016    -0.039305528360     0.002532865303     1.007825032230
         H           -4.051216533016     1.128366471640     0.889410865303     1.007825032230
         H           -4.051312533016     1.128661471640    -0.884064134697     1.007825032230

  Basis Set: AUG-CC-PVTZ
    Blend: AUG-CC-PVTZ
  Basis Set: (AUG-CC-PVTZ AUX)
    Blend: AUG-CC-PVTZ-JKFIT
	 Reference Energy          =    -532.6943456266344583 [Eh]
	 Singles Energy            =      -0.0000000000000000 [Eh]
	 Same-Spin Energy          =      -0.5158589523270978 [Eh]
	 Opposite-Spin Energy      =      -1.6273113837078674 [Eh]
	 Correlation Energy        =      -2.1431703360349652 [Eh]
	 Total Energy              =    -534.8375159626693858 [Eh]

	 ================> DF-SCS-MP2 Energies <==================
	-----------------------------------------------------------
	 SCS Same-Spin Scale       =       0.3333333333333333 [-]
	 SCS Opposite-Spin Scale   =       1.2000000000000000 [-]
	 SCS Same-Spin Energy      =      -0.1719529841090326 [Eh]
	 SCS Opposite-Spin Energy  =      -1.9527736604494408 [Eh]
	 SCS Correlation Energy    =      -2.1247266445584732 [Eh]
	 SCS Total Energy          =    -534.8190722711929084 [Eh]
	-----------------------------------------------------------

  Dipole Moment: [D]
     X:    -0.0772      Y:     0.0426      Z:     0.0248     Total:     0.0916

*** Psi4 exiting successfully. Buy a developer a beer!
