                               Psi4 1.4a3.dev225

  ==> Input File <==

--------------------------------------------------------------------------
#psi4
#
memory 32 gb

molecule  {
0 1
  O        1.7312310    -0.2769730     0.0000590
  O       -1.7312320     0.2769720     0.0000220
  O        0.5576720     1.6786530    -0.0001670
  O       -0.5576690    -1.6786520    -0.0003240
  C        2.9581590     0.5011960     0.0001010
  C       -2.9581610    -0.5011970    -0.0000370
  C        4.0961590    -0.4920900     0.0002650
  C       -3.9454833     0.3605747     0.0001608
  C        0.6121100     0.4612570    -0.0000760
  C       -0.6121090    -0.4612570    -0.0001440
  H        2.9624380     1.1440920    -0.8842080
  H        2.9622950     1.1442210     0.8843180
  H       -2.9624180    -1.1440100    -0.8844060
  H       -2.9623190    -1.1443030     0.8841200
  H        5.0512870     0.0405180     0.0003010
  H        4.0503980    -1.1272370     0.8870460
  H        4.0505370    -1.1273680    -0.8864290
  H       -5.0512890    -0.0405160     0.0001540
  H       -4.0504200     1.1271560     0.8870320
  H       -4.0505160     1.1274510    -0.8864430
units angstrom
no_reorient  #important for SAPT in psi4, default
symmetry c1  #important for SAPT in psi4, default
}

set PROPERTIES_ORIGIN ["COM"]
properties('MP2/aug-cc-pvtz', properties = ['dipole'])
--------------------------------------------------------------------------

    Molecular point group: c1
  Charge       = 0
  Multiplicity = 1
  Basis Set: AUG-CC-PVTZ
    Blend: AUG-CC-PVTZ
  Basis Set: (AUG-CC-PVTZ AUX)
    Blend: AUG-CC-PVTZ-JKFIT

    Orbital Energies [Eh]
    ---------------------

    Doubly Occupied:

       1A    -20.619739     2A    -20.619627     3A    -20.572633
       4A    -20.572253     5A    -11.408386     6A    -11.407739
       7A    -11.299626     8A    -11.290002     9A    -11.240832
      10A    -11.229943    11A     -1.488564    12A     -1.460671
      13A     -1.383564    14A     -1.368153    15A     -1.101502
      16A     -1.054391    17A     -0.946047    18A     -0.866120
      19A     -0.825588    20A     -0.791346    21A     -0.746835
      22A     -0.707774    23A     -0.704990    24A     -0.688776
      25A     -0.682185    26A     -0.631214    27A     -0.611489
      28A     -0.588086    29A     -0.575630    30A     -0.569265
      31A     -0.554335    32A     -0.524656    33A     -0.522611
      34A     -0.517093    35A     -0.501009    36A     -0.490628
      37A     -0.471101    38A     -0.456616    39A     -0.446997

  @DF-RHF Final Energy:  -532.64322565981035

   => Energetics <=

    Nuclear Repulsion Energy =            543.9369464676497046
    One-Electron Energy =               -1808.0843109881811870
    Two-Electron Energy =                 731.5041388607211275
    Total Energy =                       -532.6432256598103550
  Basis Set: (AUG-CC-PVTZ AUX)
    Blend: AUG-CC-PVTZ-RI
    Molecular point group: c1

    Geometry (in Angstrom), charge = 0, multiplicity = 1:

       Center              X                  Y                   Z               Mass
    ------------   -----------------  -----------------  -----------------  -----------------
         O            1.718851517438    -0.266167754453     0.000071486108    15.994914619570
         O           -1.743611482562     0.287777245547     0.000034486108    15.994914619570
         O            0.545292517438     1.689458245547    -0.000154513892    15.994914619570
         O           -0.570048482562    -1.667846754453    -0.000311513892    15.994914619570
         C            2.945779517438     0.512001245547     0.000113486108    12.000000000000
         C           -2.970540482562    -0.490391754453    -0.000024513892    12.000000000000
         C            4.083779517438    -0.481284754453     0.000277486108    12.000000000000
         C           -3.957862782562     0.371379945547     0.000173286108    12.000000000000
         C            0.599730517438     0.472062245547    -0.000063513892    12.000000000000
         C           -0.624488482562    -0.450451754453    -0.000131513892    12.000000000000
         H            2.950058517438     1.154897245547    -0.884195513892     1.007825032230
         H            2.949915517438     1.155026245547     0.884330486108     1.007825032230
         H           -2.974797482562    -1.133204754453    -0.884393513892     1.007825032230
         H           -2.974698482562    -1.133497754453     0.884132486108     1.007825032230
         H            5.038907517438     0.051323245547     0.000313486108     1.007825032230
         H            4.038018517438    -1.116431754453     0.887058486108     1.007825032230
         H            4.038157517438    -1.116562754453    -0.886416513892     1.007825032230
         H           -5.063668482562    -0.029710754453     0.000166486108     1.007825032230
         H           -4.062799482562     1.137961245547     0.887044486108     1.007825032230
         H           -4.062895482562     1.138256245547    -0.886430513892     1.007825032230

  Basis Set: AUG-CC-PVTZ
    Blend: AUG-CC-PVTZ
  Basis Set: (AUG-CC-PVTZ AUX)
    Blend: AUG-CC-PVTZ-JKFIT
	 Reference Energy          =    -532.6432256598103550 [Eh]
	 Singles Energy            =      -0.0000000000000000 [Eh]
	 Same-Spin Energy          =      -0.5185697870176241 [Eh]
	 Opposite-Spin Energy      =      -1.6304868501871579 [Eh]
	 Correlation Energy        =      -2.1490566372047821 [Eh]
	 Total Energy              =    -534.7922822970151628 [Eh]

	 ================> DF-SCS-MP2 Energies <==================
	-----------------------------------------------------------
	 SCS Same-Spin Scale       =       0.3333333333333333 [-]
	 SCS Opposite-Spin Scale   =       1.2000000000000000 [-]
	 SCS Same-Spin Energy      =      -0.1728565956725414 [Eh]
	 SCS Opposite-Spin Energy  =      -1.9565842202245893 [Eh]
	 SCS Correlation Energy    =      -2.1294408158971305 [Eh]
	 SCS Total Energy          =    -534.7726664757075241 [Eh]
	-----------------------------------------------------------

  Dipole Moment: [D]
     X:    -0.0658      Y:    -0.0001      Z:     0.0005     Total:     0.0658

*** Psi4 exiting successfully. Buy a developer a beer!
