                               Psi4 1.4a3.dev225

  ==> Input File <==

--------------------------------------------------------------------------
#psi4
#
memory 32 gb

molecule  {
0 1
  O        1.7439444    -0.2573292     0.0000592
  O       -1.7312320     0.2769720     0.0000220
  O        0.5576720     1.6786530    -0.0001670
  O       -0.5576690    -1.6786520    -0.0003240
  C        2.9581590     0.5011960     0.0001010
  C       -2.9581610    -0.5011970    -0.0000370
  C        4.0961590    -0.4920900     0.0002650
  C       -4.0961600     0.4920910     0.0001910
  C        0.6121100     0.4612570    -0.0000760
  C       -0.6121090    -0.4612570    -0.0001440
  H        2.9624380     1.1440920    -0.8842080
  H        2.9622950     1.1442210     0.8843180
  H       -2.9624180    -1.1440100    -0.8844060
  H       -2.9623190    -1.1443030     0.8841200
  H        5.0512870     0.0405180     0.0003010
  H        4.0503980    -1.1272370     0.8870460
  H        4.0505370    -1.1273680    -0.8864290
  H       -5.0512890    -0.0405160     0.0001540
  H       -4.0504200     1.1271560     0.8870320
  H       -4.0505160     1.1274510    -0.8864430
units angstrom
no_reorient  #important for SAPT in psi4, default
symmetry c1  #important for SAPT in psi4, default
}

set PROPERTIES_ORIGIN ["COM"]
properties('MP2/aug-cc-pvtz', properties = ['dipole'])
--------------------------------------------------------------------------

    Molecular point group: c1
  Charge       = 0
  Multiplicity = 1
  Basis Set: AUG-CC-PVTZ
    Blend: AUG-CC-PVTZ
  Basis Set: (AUG-CC-PVTZ AUX)
    Blend: AUG-CC-PVTZ-JKFIT

    Orbital Energies [Eh]
    ---------------------

    Doubly Occupied:

       1A    -20.620540     2A    -20.618543     3A    -20.573312
       4A    -20.572022     5A    -11.409586     6A    -11.408373
       7A    -11.300261     8A    -11.297090     9A    -11.230360
      10A    -11.228976    11A     -1.489308    12A     -1.461873
      13A     -1.383302    14A     -1.368296    15A     -1.062551
      16A     -1.048070    17A     -0.947324    18A     -0.877217
      19A     -0.831087    20A     -0.788312    21A     -0.747596
      22A     -0.704321    23A     -0.704062    24A     -0.685721
      25A     -0.680975    26A     -0.613068    27A     -0.609238
      28A     -0.577906    29A     -0.576920    30A     -0.560355
      31A     -0.549440    32A     -0.524552    33A     -0.523149
      34A     -0.521901    35A     -0.519564    36A     -0.511514
      37A     -0.475242    38A     -0.465297    39A     -0.449331

  @DF-RHF Final Energy:  -532.69641875105367

   => Energetics <=

    Nuclear Repulsion Energy =            540.7148031483905015
    One-Electron Energy =               -1801.7893290256961336
    Two-Electron Energy =                 728.3781071262519617
    Total Energy =                       -532.6964187510536703
  Basis Set: (AUG-CC-PVTZ AUX)
    Blend: AUG-CC-PVTZ-RI
    Molecular point group: c1

    Geometry (in Angstrom), charge = 0, multiplicity = 1:

       Center              X                  Y                   Z               Mass
    ------------   -----------------  -----------------  -----------------  -----------------
         O            1.742552139326    -0.259480435340     0.000069182998    15.994914619570
         O           -1.732624260674     0.274820764660     0.000031982998    15.994914619570
         O            0.556279739326     1.676501764660    -0.000157017002    15.994914619570
         O           -0.559061260674    -1.680803235340    -0.000314017002    15.994914619570
         C            2.956766739326     0.499044764660     0.000110982998    12.000000000000
         C           -2.959553260674    -0.503348235340    -0.000027017002    12.000000000000
         C            4.094766739326    -0.494241235340     0.000274982998    12.000000000000
         C           -4.097552260674     0.489939764660     0.000200982998    12.000000000000
         C            0.610717739326     0.459105764660    -0.000066017002    12.000000000000
         C           -0.613501260674    -0.463408235340    -0.000134017002    12.000000000000
         H            2.961045739326     1.141940764660    -0.884198017002     1.007825032230
         H            2.960902739326     1.142069764660     0.884327982998     1.007825032230
         H           -2.963810260674    -1.146161235340    -0.884396017002     1.007825032230
         H           -2.963711260674    -1.146454235340     0.884129982998     1.007825032230
         H            5.049894739326     0.038366764660     0.000310982998     1.007825032230
         H            4.049005739326    -1.129388235340     0.887055982998     1.007825032230
         H            4.049144739326    -1.129519235340    -0.886419017002     1.007825032230
         H           -5.052681260674    -0.042667235340     0.000163982998     1.007825032230
         H           -4.051812260674     1.125004764660     0.887041982998     1.007825032230
         H           -4.051908260674     1.125299764660    -0.886433017002     1.007825032230

  Basis Set: AUG-CC-PVTZ
    Blend: AUG-CC-PVTZ
  Basis Set: (AUG-CC-PVTZ AUX)
    Blend: AUG-CC-PVTZ-JKFIT
	 Reference Energy          =    -532.6964187510536703 [Eh]
	 Singles Energy            =      -0.0000000000000000 [Eh]
	 Same-Spin Energy          =      -0.5154585578375965 [Eh]
	 Opposite-Spin Energy      =      -1.6260532907266279 [Eh]
	 Correlation Energy        =      -2.1415118485642246 [Eh]
	 Total Energy              =    -534.8379305996179482 [Eh]

	 ================> DF-SCS-MP2 Energies <==================
	-----------------------------------------------------------
	 SCS Same-Spin Scale       =       0.3333333333333333 [-]
	 SCS Opposite-Spin Scale   =       1.2000000000000000 [-]
	 SCS Same-Spin Energy      =      -0.1718195192791988 [Eh]
	 SCS Opposite-Spin Energy  =      -1.9512639488719534 [Eh]
	 SCS Correlation Energy    =      -2.1230834681511523 [Eh]
	 SCS Total Energy          =    -534.8195022192048782 [Eh]
	-----------------------------------------------------------

  Dipole Moment: [D]
     X:    -0.0970      Y:    -0.0413      Z:     0.0005     Total:     0.1054

*** Psi4 exiting successfully. Buy a developer a beer!
