                               Psi4 1.4a3.dev225

  ==> Input File <==

--------------------------------------------------------------------------
#psi4
#
memory 32 gb

molecule  {
0 1
  O        1.7312310    -0.2769730     0.0000590
  O       -1.7312320     0.2769720     0.0000220
  O        0.5576720     1.6786530    -0.0001670
  O       -0.5576690    -1.6786520    -0.0003240
  C        3.1270534     0.6083159     0.0001068
  C       -2.9581610    -0.5011970    -0.0000370
  C        4.0961590    -0.4920900     0.0002650
  C       -4.0961600     0.4920910     0.0001910
  C        0.6121100     0.4612570    -0.0000760
  C       -0.6121090    -0.4612570    -0.0001440
  H        2.9624380     1.1440920    -0.8842080
  H        2.9622950     1.1442210     0.8843180
  H       -2.9624180    -1.1440100    -0.8844060
  H       -2.9623190    -1.1443030     0.8841200
  H        5.0512870     0.0405180     0.0003010
  H        4.0503980    -1.1272370     0.8870460
  H        4.0505370    -1.1273680    -0.8864290
  H       -5.0512890    -0.0405160     0.0001540
  H       -4.0504200     1.1271560     0.8870320
  H       -4.0505160     1.1274510    -0.8864430
units angstrom
no_reorient  #important for SAPT in psi4, default
symmetry c1  #important for SAPT in psi4, default
}

set PROPERTIES_ORIGIN ["COM"]
properties('MP2/aug-cc-pvtz', properties = ['dipole'])
--------------------------------------------------------------------------

    Molecular point group: c1
  Charge       = 0
  Multiplicity = 1
  Basis Set: AUG-CC-PVTZ
    Blend: AUG-CC-PVTZ
  Basis Set: (AUG-CC-PVTZ AUX)
    Blend: AUG-CC-PVTZ-JKFIT

    Orbital Energies [Eh]
    ---------------------

    Doubly Occupied:

       1A    -20.612192     2A    -20.591715     3A    -20.562989
       4A    -20.556329     5A    -11.397664     6A    -11.392075
       7A    -11.314282     8A    -11.294346     9A    -11.239969
      10A    -11.226004    11A     -1.472112    12A     -1.430832
      13A     -1.369621    14A     -1.338937    15A     -1.072944
      16A     -1.048594    17A     -0.934298    18A     -0.875931
      19A     -0.834497    20A     -0.772559    21A     -0.722494
      22A     -0.696451    23A     -0.692031    24A     -0.684289
      25A     -0.663878    26A     -0.611736    27A     -0.604716
      28A     -0.582791    29A     -0.572761    30A     -0.560113
      31A     -0.552913    32A     -0.535524    33A     -0.519569
      34A     -0.510476    35A     -0.510101    36A     -0.500443
      37A     -0.469009    38A     -0.458329    39A     -0.435055

  @DF-RHF Final Energy:  -532.66854874032367

   => Energetics <=

    Nuclear Repulsion Energy =            537.2462683900705542
    One-Electron Energy =               -1795.3884982522272367
    Two-Electron Energy =                 725.4736811218330104
    Total Energy =                       -532.6685487403236721
  Basis Set: (AUG-CC-PVTZ AUX)
    Blend: AUG-CC-PVTZ-RI
    Molecular point group: c1

    Geometry (in Angstrom), charge = 0, multiplicity = 1:

       Center              X                  Y                   Z               Mass
    ------------   -----------------  -----------------  -----------------  -----------------
         O            1.717354765897    -0.285773912199     0.000068528377    15.994914619570
         O           -1.745108234103     0.268171087801     0.000031528377    15.994914619570
         O            0.543795765897     1.669852087801    -0.000157471623    15.994914619570
         O           -0.571545234103    -1.687452912199    -0.000314471623    15.994914619570
         C            3.113177165897     0.599514987801     0.000116328377    12.000000000000
         C           -2.972037234103    -0.509997912199    -0.000027471623    12.000000000000
         C            4.082282765897    -0.500890912199     0.000274528377    12.000000000000
         C           -4.110036234103     0.483290087801     0.000200528377    12.000000000000
         C            0.598233765897     0.452456087801    -0.000066471623    12.000000000000
         C           -0.625985234103    -0.470057912199    -0.000134471623    12.000000000000
         H            2.948561765897     1.135291087801    -0.884198471623     1.007825032230
         H            2.948418765897     1.135420087801     0.884327528377     1.007825032230
         H           -2.976294234103    -1.152810912199    -0.884396471623     1.007825032230
         H           -2.976195234103    -1.153103912199     0.884129528377     1.007825032230
         H            5.037410765897     0.031717087801     0.000310528377     1.007825032230
         H            4.036521765897    -1.136037912199     0.887055528377     1.007825032230
         H            4.036660765897    -1.136168912199    -0.886419471623     1.007825032230
         H           -5.065165234103    -0.049316912199     0.000163528377     1.007825032230
         H           -4.064296234103     1.118355087801     0.887041528377     1.007825032230
         H           -4.064392234103     1.118650087801    -0.886433471623     1.007825032230

  Basis Set: AUG-CC-PVTZ
    Blend: AUG-CC-PVTZ
  Basis Set: (AUG-CC-PVTZ AUX)
    Blend: AUG-CC-PVTZ-JKFIT
	 Reference Energy          =    -532.6685487403236721 [Eh]
	 Singles Energy            =      -0.0000000000000000 [Eh]
	 Same-Spin Energy          =      -0.5167612891955933 [Eh]
	 Opposite-Spin Energy      =      -1.6295713326587866 [Eh]
	 Correlation Energy        =      -2.1463326218543797 [Eh]
	 Total Energy              =    -534.8148813621780846 [Eh]

	 ================> DF-SCS-MP2 Energies <==================
	-----------------------------------------------------------
	 SCS Same-Spin Scale       =       0.3333333333333333 [-]
	 SCS Opposite-Spin Scale   =       1.2000000000000000 [-]
	 SCS Same-Spin Energy      =      -0.1722537630651977 [Eh]
	 SCS Opposite-Spin Energy  =      -1.9554855991905438 [Eh]
	 SCS Correlation Energy    =      -2.1277393622557415 [Eh]
	 SCS Total Energy          =    -534.7962881025794104 [Eh]
	-----------------------------------------------------------

  Dipole Moment: [D]
     X:     0.9492      Y:     0.1024      Z:     0.0005     Total:     0.9547

*** Psi4 exiting successfully. Buy a developer a beer!
