                               Psi4 1.4a3.dev225

  ==> Input File <==

--------------------------------------------------------------------------
#psi4
#
memory 32 gb

molecule  {
0 1
  O        1.7625446    -0.3197322    -0.0864002
  O       -1.7312320     0.2769720     0.0000220
  O        0.5576720     1.6786530    -0.0001670
  O       -0.5576690    -1.6786520    -0.0003240
  C        2.9581590     0.5011960     0.0001010
  C       -2.9581610    -0.5011970    -0.0000370
  C        4.0961590    -0.4920900     0.0002650
  C       -4.0961600     0.4920910     0.0001910
  C        0.6121100     0.4612570    -0.0000760
  C       -0.6121090    -0.4612570    -0.0001440
  H        2.9624380     1.1440920    -0.8842080
  H        2.9622950     1.1442210     0.8843180
  H       -2.9624180    -1.1440100    -0.8844060
  H       -2.9623190    -1.1443030     0.8841200
  H        5.0512870     0.0405180     0.0003010
  H        4.0503980    -1.1272370     0.8870460
  H        4.0505370    -1.1273680    -0.8864290
  H       -5.0512890    -0.0405160     0.0001540
  H       -4.0504200     1.1271560     0.8870320
  H       -4.0505160     1.1274510    -0.8864430
units angstrom
no_reorient  #important for SAPT in psi4, default
symmetry c1  #important for SAPT in psi4, default
}

set PROPERTIES_ORIGIN ["COM"]
properties('MP2/aug-cc-pvtz', properties = ['dipole'])
--------------------------------------------------------------------------

    Molecular point group: c1
  Charge       = 0
  Multiplicity = 1
  Basis Set: AUG-CC-PVTZ
    Blend: AUG-CC-PVTZ
  Basis Set: (AUG-CC-PVTZ AUX)
    Blend: AUG-CC-PVTZ-JKFIT

    Orbital Energies [Eh]
    ---------------------

    Doubly Occupied:

       1A    -20.621249     2A    -20.617689     3A    -20.583246
       4A    -20.573731     5A    -11.414635     6A    -11.410087
       7A    -11.300784     8A    -11.295290     9A    -11.230909
      10A    -11.226036    11A     -1.483745    12A     -1.450906
      13A     -1.384350    14A     -1.367806    15A     -1.059983
      16A     -1.042913    17A     -0.945418    18A     -0.870561
      19A     -0.833096    20A     -0.786342    21A     -0.738732
      22A     -0.706721    23A     -0.700143    24A     -0.682162
      25A     -0.679926    26A     -0.610697    27A     -0.607575
      28A     -0.578870    29A     -0.574422    30A     -0.559053
      31A     -0.545051    32A     -0.525315    33A     -0.524202
      34A     -0.523069    35A     -0.521608    36A     -0.512376
      37A     -0.476455    38A     -0.467249    39A     -0.449929

  @DF-RHF Final Energy:  -532.68749570657474

   => Energetics <=

    Nuclear Repulsion Energy =            539.2831865216375036
    One-Electron Energy =               -1798.9767025993155585
    Two-Electron Energy =                 727.0060203711032045
    Total Energy =                       -532.6874957065747367
  Basis Set: (AUG-CC-PVTZ AUX)
    Blend: AUG-CC-PVTZ-RI
    Molecular point group: c1

    Geometry (in Angstrom), charge = 0, multiplicity = 1:

       Center              X                  Y                   Z               Mass
    ------------   -----------------  -----------------  -----------------  -----------------
         O            1.759115417030    -0.315049634520    -0.076921981201    15.994914619570
         O           -1.734661182970     0.281654565480     0.009500218799    15.994914619570
         O            0.554242817030     1.683335565480     0.009311218799    15.994914619570
         O           -0.561098182970    -1.673969434520     0.009154218799    15.994914619570
         C            2.954729817030     0.505878565480     0.009579218799    12.000000000000
         C           -2.961590182970    -0.496514434520     0.009441218799    12.000000000000
         C            4.092729817030    -0.487407434520     0.009743218799    12.000000000000
         C           -4.099589182970     0.496773565480     0.009669218799    12.000000000000
         C            0.608680817030     0.465939565480     0.009402218799    12.000000000000
         C           -0.615538182970    -0.456574434520     0.009334218799    12.000000000000
         H            2.959008817030     1.148774565480    -0.874729781201     1.007825032230
         H            2.958865817030     1.148903565480     0.893796218799     1.007825032230
         H           -2.965847182970    -1.139327434520    -0.874927781201     1.007825032230
         H           -2.965748182970    -1.139620434520     0.893598218799     1.007825032230
         H            5.047857817030     0.045200565480     0.009779218799     1.007825032230
         H            4.046968817030    -1.122554434520     0.896524218799     1.007825032230
         H            4.047107817030    -1.122685434520    -0.876950781201     1.007825032230
         H           -5.054718182970    -0.035833434520     0.009632218799     1.007825032230
         H           -4.053849182970     1.131838565480     0.896510218799     1.007825032230
         H           -4.053945182970     1.132133565480    -0.876964781201     1.007825032230

  Basis Set: AUG-CC-PVTZ
    Blend: AUG-CC-PVTZ
  Basis Set: (AUG-CC-PVTZ AUX)
    Blend: AUG-CC-PVTZ-JKFIT
	 Reference Energy          =    -532.6874957065747367 [Eh]
	 Singles Energy            =      -0.0000000000000000 [Eh]
	 Same-Spin Energy          =      -0.5166058772746942 [Eh]
	 Opposite-Spin Energy      =      -1.6294365993314768 [Eh]
	 Correlation Energy        =      -2.1460424766061710 [Eh]
	 Total Energy              =    -534.8335381831809627 [Eh]

	 ================> DF-SCS-MP2 Energies <==================
	-----------------------------------------------------------
	 SCS Same-Spin Scale       =       0.3333333333333333 [-]
	 SCS Opposite-Spin Scale   =       1.2000000000000000 [-]
	 SCS Same-Spin Energy      =      -0.1722019590915647 [Eh]
	 SCS Opposite-Spin Energy  =      -1.9553239191977720 [Eh]
	 SCS Correlation Energy    =      -2.1275258782893367 [Eh]
	 SCS Total Energy          =    -534.8150215848640983 [Eh]
	-----------------------------------------------------------

  Dipole Moment: [D]
     X:    -0.3324      Y:     0.1718      Z:     0.1022     Total:     0.3879

*** Psi4 exiting successfully. Buy a developer a beer!
