                               Psi4 1.4a3.dev225

  ==> Input File <==

--------------------------------------------------------------------------
#psi4
#
memory 32 gb

molecule  {
0 1
  O        1.7312310    -0.2769730     0.0000590
  O       -1.7312320     0.2769720     0.0000220
  O        0.5576720     1.6786530    -0.0001670
  O       -0.5576690    -1.6786520    -0.0003240
  C        3.0094526     0.4137142     0.0001108
  C       -2.9581610    -0.5011970    -0.0000370
  C        4.0961590    -0.4920900     0.0002650
  C       -4.0961600     0.4920910     0.0001910
  C        0.6121100     0.4612570    -0.0000760
  C       -0.6121090    -0.4612570    -0.0001440
  H        2.9624380     1.1440920    -0.8842080
  H        2.9622950     1.1442210     0.8843180
  H       -2.9624180    -1.1440100    -0.8844060
  H       -2.9623190    -1.1443030     0.8841200
  H        5.0512870     0.0405180     0.0003010
  H        4.0503980    -1.1272370     0.8870460
  H        4.0505370    -1.1273680    -0.8864290
  H       -5.0512890    -0.0405160     0.0001540
  H       -4.0504200     1.1271560     0.8870320
  H       -4.0505160     1.1274510    -0.8864430
units angstrom
no_reorient  #important for SAPT in psi4, default
symmetry c1  #important for SAPT in psi4, default
}

set PROPERTIES_ORIGIN ["COM"]
properties('MP2/aug-cc-pvtz', properties = ['dipole'])
--------------------------------------------------------------------------

    Molecular point group: c1
  Charge       = 0
  Multiplicity = 1
  Basis Set: AUG-CC-PVTZ
    Blend: AUG-CC-PVTZ
  Basis Set: (AUG-CC-PVTZ AUX)
    Blend: AUG-CC-PVTZ-JKFIT

    Orbital Energies [Eh]
    ---------------------

    Doubly Occupied:

       1A    -20.619303     2A    -20.616266     3A    -20.571531
       4A    -20.571086     5A    -11.408274     6A    -11.407589
       7A    -11.305384     8A    -11.299373     9A    -11.229676
      10A    -11.228116    11A     -1.485834    12A     -1.457337
      13A     -1.381733    14A     -1.365991    15A     -1.077280
      16A     -1.053285    17A     -0.949706    18A     -0.874706
      19A     -0.824733    20A     -0.783469    21A     -0.746175
      22A     -0.702526    23A     -0.700003    24A     -0.680282
      25A     -0.679100    26A     -0.615983    27A     -0.610535
      28A     -0.579800    29A     -0.579138    30A     -0.577415
      31A     -0.554493    32A     -0.524319    33A     -0.520222
      34A     -0.519682    35A     -0.519350    36A     -0.504285
      37A     -0.471743    38A     -0.453446    39A     -0.447922

  @DF-RHF Final Energy:  -532.68274655027085

   => Energetics <=

    Nuclear Repulsion Energy =            540.6545435034257707
    One-Electron Energy =               -1801.6803925122333112
    Two-Electron Energy =                 728.3431024585368050
    Total Energy =                       -532.6827465502708492
  Basis Set: (AUG-CC-PVTZ AUX)
    Blend: AUG-CC-PVTZ-RI
    Molecular point group: c1

    Geometry (in Angstrom), charge = 0, multiplicity = 1:

       Center              X                  Y                   Z               Mass
    ------------   -----------------  -----------------  -----------------  -----------------
         O            1.727016752787    -0.269785593462     0.000068199740    15.994914619570
         O           -1.735446247213     0.284159406538     0.000031199740    15.994914619570
         O            0.553457752787     1.685840406538    -0.000157800260    15.994914619570
         O           -0.561883247213    -1.671464593462    -0.000314800260    15.994914619570
         C            3.005238352787     0.420901606538     0.000119999740    12.000000000000
         C           -2.962375247213    -0.494009593462    -0.000027800260    12.000000000000
         C            4.091944752787    -0.484902593462     0.000274199740    12.000000000000
         C           -4.100374247213     0.499278406538     0.000200199740    12.000000000000
         C            0.607895752787     0.468444406538    -0.000066800260    12.000000000000
         C           -0.616323247213    -0.454069593462    -0.000134800260    12.000000000000
         H            2.958223752787     1.151279406538    -0.884198800260     1.007825032230
         H            2.958080752787     1.151408406538     0.884327199740     1.007825032230
         H           -2.966632247213    -1.136822593462    -0.884396800260     1.007825032230
         H           -2.966533247213    -1.137115593462     0.884129199740     1.007825032230
         H            5.047072752787     0.047705406538     0.000310199740     1.007825032230
         H            4.046183752787    -1.120049593462     0.887055199740     1.007825032230
         H            4.046322752787    -1.120180593462    -0.886419800260     1.007825032230
         H           -5.055503247213    -0.033328593462     0.000163199740     1.007825032230
         H           -4.054634247213     1.134343406538     0.887041199740     1.007825032230
         H           -4.054730247213     1.134638406538    -0.886433800260     1.007825032230

  Basis Set: AUG-CC-PVTZ
    Blend: AUG-CC-PVTZ
  Basis Set: (AUG-CC-PVTZ AUX)
    Blend: AUG-CC-PVTZ-JKFIT
	 Reference Energy          =    -532.6827465502708492 [Eh]
	 Singles Energy            =      -0.0000000000000000 [Eh]
	 Same-Spin Energy          =      -0.5165878627125959 [Eh]
	 Opposite-Spin Energy      =      -1.6275558703126816 [Eh]
	 Correlation Energy        =      -2.1441437330252775 [Eh]
	 Total Energy              =    -534.8268902832961658 [Eh]

	 ================> DF-SCS-MP2 Energies <==================
	-----------------------------------------------------------
	 SCS Same-Spin Scale       =       0.3333333333333333 [-]
	 SCS Opposite-Spin Scale   =       1.2000000000000000 [-]
	 SCS Same-Spin Energy      =      -0.1721959542375320 [Eh]
	 SCS Opposite-Spin Energy  =      -1.9530670443752178 [Eh]
	 SCS Correlation Energy    =      -2.1252629986127496 [Eh]
	 SCS Total Energy          =    -534.8080095488835468 [Eh]
	-----------------------------------------------------------

  Dipole Moment: [D]
     X:     0.1683      Y:    -0.1377      Z:     0.0005     Total:     0.2175

*** Psi4 exiting successfully. Buy a developer a beer!
