                               Psi4 1.4a3.dev225

  ==> Input File <==

--------------------------------------------------------------------------
#psi4
#
memory 32 gb

molecule  {
0 1
  O        1.7312310    -0.2769730     0.0000590
  O       -1.7312320     0.2769720     0.0000220
  O        0.5576720     1.6786530    -0.0001670
  O       -0.5576690    -1.6786520    -0.0003240
  C        2.9581590     0.5011960     0.0001010
  C       -2.9581610    -0.5011970    -0.0000370
  C        4.0961590    -0.4920900     0.0002650
  C       -4.0961600     0.4920910     0.0001910
  C        0.6121100     0.4612570    -0.0000760
  C       -0.6121090    -0.4612570    -0.0001440
  H        2.9624380     1.1440920    -0.8842080
  H        2.9622950     1.1442210     0.8843180
  H       -2.9624180    -1.1440100    -0.8844060
  H       -2.9623190    -1.1443030     0.8841200
  H        5.0512870     0.0405180     0.0003010
  H        4.0482073    -1.1577187     0.8642820
  H        4.0505370    -1.1273680    -0.8864290
  H       -5.0512890    -0.0405160     0.0001540
  H       -4.0504200     1.1271560     0.8870320
  H       -4.0505160     1.1274510    -0.8864430
units angstrom
no_reorient  #important for SAPT in psi4, default
symmetry c1  #important for SAPT in psi4, default
}

set PROPERTIES_ORIGIN ["COM"]
properties('MP2/aug-cc-pvtz', properties = ['dipole'])
--------------------------------------------------------------------------

    Molecular point group: c1
  Charge       = 0
  Multiplicity = 1
  Basis Set: AUG-CC-PVTZ
    Blend: AUG-CC-PVTZ
  Basis Set: (AUG-CC-PVTZ AUX)
    Blend: AUG-CC-PVTZ-JKFIT

    Orbital Energies [Eh]
    ---------------------

    Doubly Occupied:

       1A    -20.619553     2A    -20.619511     3A    -20.572101
       4A    -20.572087     5A    -11.408045     6A    -11.407476
       7A    -11.299818     8A    -11.299560     9A    -11.229887
      10A    -11.229756    11A     -1.487462    12A     -1.459282
      13A     -1.382558    14A     -1.366809    15A     -1.061780
      16A     -1.047617    17A     -0.946021    18A     -0.875616
      19A     -0.831671    20A     -0.787369    21A     -0.745153
      22A     -0.703813    23A     -0.702324    24A     -0.683808
      25A     -0.680224    26A     -0.611791    27A     -0.608693
      28A     -0.577322    29A     -0.576754    30A     -0.560575
      31A     -0.547792    32A     -0.525482    33A     -0.523804
      34A     -0.521592    35A     -0.520572    36A     -0.510625
      37A     -0.475797    38A     -0.466136    39A     -0.448217

  @DF-RHF Final Energy:  -532.69559701307901

   => Energetics <=

    Nuclear Repulsion Energy =            540.4974285326788959
    One-Electron Energy =               -1801.3971440698794595
    Two-Electron Energy =                 728.2041185241215544
    Total Energy =                       -532.6955970130790092
  Basis Set: (AUG-CC-PVTZ AUX)
    Blend: AUG-CC-PVTZ-RI
    Molecular point group: c1

    Geometry (in Angstrom), charge = 0, multiplicity = 1:

       Center              X                  Y                   Z               Mass
    ------------   -----------------  -----------------  -----------------  -----------------
         O            1.731246109810    -0.276762698557     0.000226080469    15.994914619570
         O           -1.731216890190     0.277182301443     0.000189080469    15.994914619570
         O            0.557687109810     1.678863301443     0.000000080469    15.994914619570
         O           -0.557653890190    -1.678441698557    -0.000156919531    15.994914619570
         C            2.958174109810     0.501406301443     0.000268080469    12.000000000000
         C           -2.958145890190    -0.500986698557     0.000130080469    12.000000000000
         C            4.096174109810    -0.491879698557     0.000432080469    12.000000000000
         C           -4.096144890190     0.492301301443     0.000358080469    12.000000000000
         C            0.612125109810     0.461467301443     0.000091080469    12.000000000000
         C           -0.612093890190    -0.461046698557     0.000023080469    12.000000000000
         H            2.962453109810     1.144302301443    -0.884040919531     1.007825032230
         H            2.962310109810     1.144431301443     0.884485080469     1.007825032230
         H           -2.962402890190    -1.143799698557    -0.884238919531     1.007825032230
         H           -2.962303890190    -1.144092698557     0.884287080469     1.007825032230
         H            5.051302109810     0.040728301443     0.000468080469     1.007825032230
         H            4.048222409810    -1.157508398557     0.864449080469     1.007825032230
         H            4.050552109810    -1.127157698557    -0.886261919531     1.007825032230
         H           -5.051273890190    -0.040305698557     0.000321080469     1.007825032230
         H           -4.050404890190     1.127366301443     0.887199080469     1.007825032230
         H           -4.050500890190     1.127661301443    -0.886275919531     1.007825032230

  Basis Set: AUG-CC-PVTZ
    Blend: AUG-CC-PVTZ
  Basis Set: (AUG-CC-PVTZ AUX)
    Blend: AUG-CC-PVTZ-JKFIT
	 Reference Energy          =    -532.6955970130790092 [Eh]
	 Singles Energy            =      -0.0000000000000000 [Eh]
	 Same-Spin Energy          =      -0.5156345494897101 [Eh]
	 Opposite-Spin Energy      =      -1.6266575659361233 [Eh]
	 Correlation Energy        =      -2.1422921154258336 [Eh]
	 Total Energy              =    -534.8378891285047985 [Eh]

	 ================> DF-SCS-MP2 Energies <==================
	-----------------------------------------------------------
	 SCS Same-Spin Scale       =       0.3333333333333333 [-]
	 SCS Opposite-Spin Scale   =       1.2000000000000000 [-]
	 SCS Same-Spin Energy      =      -0.1718781831632367 [Eh]
	 SCS Opposite-Spin Energy  =      -1.9519890791233478 [Eh]
	 SCS Correlation Energy    =      -2.1238672622865846 [Eh]
	 SCS Total Energy          =    -534.8194642753655899 [Eh]
	-----------------------------------------------------------

  Dipole Moment: [D]
     X:    -0.0071      Y:    -0.0090      Z:    -0.0046     Total:     0.0123

*** Psi4 exiting successfully. Buy a developer a beer!
