                               Psi4 1.4a3.dev225

  ==> Input File <==

--------------------------------------------------------------------------
#psi4
#
memory 32 gb

molecule  {
0 1
  O        1.7312310    -0.2769730     0.0000590
  O       -1.7312320     0.2769720     0.0000220
  O        0.5576720     1.6786530    -0.0001670
  O       -0.5576690    -1.6786520    -0.0003240
  C        2.9581590     0.5011960     0.0001010
  C       -2.9581610    -0.5011970    -0.0000370
  C        4.0961590    -0.4920900     0.0002650
  C       -4.0961600     0.4920910     0.0001910
  C        0.6121100     0.4612570    -0.0000760
  C       -0.6121090    -0.4612570    -0.0001440
  H        2.9624380     1.1440920    -0.8842080
  H        2.9622950     1.1442210     0.8843180
  H       -2.9624180    -1.1440100    -0.8844060
  H       -2.9623190    -1.1443030     0.8841200
  H        5.0512870     0.0405180     0.0003010
  H        4.0503980    -1.1272370     0.8870460
  H        4.0526264    -1.0982731    -0.8458196
  H       -5.0512890    -0.0405160     0.0001540
  H       -4.0504200     1.1271560     0.8870320
  H       -4.0505160     1.1274510    -0.8864430
units angstrom
no_reorient  #important for SAPT in psi4, default
symmetry c1  #important for SAPT in psi4, default
}

set PROPERTIES_ORIGIN ["COM"]
properties('MP2/aug-cc-pvtz', properties = ['dipole'])
--------------------------------------------------------------------------

    Molecular point group: c1
  Charge       = 0
  Multiplicity = 1
  Basis Set: AUG-CC-PVTZ
    Blend: AUG-CC-PVTZ
  Basis Set: (AUG-CC-PVTZ AUX)
    Blend: AUG-CC-PVTZ-JKFIT

    Orbital Energies [Eh]
    ---------------------

    Doubly Occupied:

       1A    -20.619458     2A    -20.619390     3A    -20.572028
       4A    -20.571979     5A    -11.407954     6A    -11.407383
       7A    -11.299523     8A    -11.299031     9A    -11.229857
      10A    -11.223791    11A     -1.487363    12A     -1.459181
      13A     -1.382465    14A     -1.366716    15A     -1.062583
      16A     -1.048687    17A     -0.947187    18A     -0.877296
      19A     -0.832376    20A     -0.787253    21A     -0.745162
      22A     -0.703742    23A     -0.702574    24A     -0.684425
      25A     -0.680128    26A     -0.612689    27A     -0.610168
      28A     -0.580493    29A     -0.576497    30A     -0.560316
      31A     -0.547530    32A     -0.526417    33A     -0.523837
      34A     -0.522935    35A     -0.520457    36A     -0.512175
      37A     -0.475946    38A     -0.466187    39A     -0.448124

  @DF-RHF Final Energy:  -532.69464396936121

   => Energetics <=

    Nuclear Repulsion Energy =            540.7186171571721616
    One-Electron Energy =               -1801.8239213866183945
    Two-Electron Energy =                 728.4106602600849101
    Total Energy =                       -532.6946439693612092
  Basis Set: (AUG-CC-PVTZ AUX)
    Blend: AUG-CC-PVTZ-RI
    Molecular point group: c1

    Geometry (in Angstrom), charge = 0, multiplicity = 1:

       Center              X                  Y                   Z               Mass
    ------------   -----------------  -----------------  -----------------  -----------------
         O            1.731216576374    -0.277173787483    -0.000211207039    15.994914619570
         O           -1.731246423626     0.276771212517    -0.000248207039    15.994914619570
         O            0.557657576374     1.678452212517    -0.000437207039    15.994914619570
         O           -0.557683423626    -1.678852787483    -0.000594207039    15.994914619570
         C            2.958144576374     0.500995212517    -0.000169207039    12.000000000000
         C           -2.958175423626    -0.501397787483    -0.000307207039    12.000000000000
         C            4.096144576374    -0.492290787483    -0.000005207039    12.000000000000
         C           -4.096174423626     0.491890212517    -0.000079207039    12.000000000000
         C            0.612095576374     0.461056212517    -0.000346207039    12.000000000000
         C           -0.612123423626    -0.461457787483    -0.000414207039    12.000000000000
         H            2.962423576374     1.143891212517    -0.884478207039     1.007825032230
         H            2.962280576374     1.144020212517     0.884047792961     1.007825032230
         H           -2.962432423626    -1.144210787483    -0.884676207039     1.007825032230
         H           -2.962333423626    -1.144503787483     0.883849792961     1.007825032230
         H            5.051272576374     0.040317212517     0.000030792961     1.007825032230
         H            4.050383576374    -1.127437787483     0.886775792961     1.007825032230
         H            4.052611976374    -1.098473887483    -0.846089807039     1.007825032230
         H           -5.051303423626    -0.040716787483    -0.000116207039     1.007825032230
         H           -4.050434423626     1.126955212517     0.886761792961     1.007825032230
         H           -4.050530423626     1.127250212517    -0.886713207039     1.007825032230

  Basis Set: AUG-CC-PVTZ
    Blend: AUG-CC-PVTZ
  Basis Set: (AUG-CC-PVTZ AUX)
    Blend: AUG-CC-PVTZ-JKFIT
	 Reference Energy          =    -532.6946439693612092 [Eh]
	 Singles Energy            =      -0.0000000000000000 [Eh]
	 Same-Spin Energy          =      -0.5156675919461242 [Eh]
	 Opposite-Spin Energy      =      -1.6264244303554567 [Eh]
	 Correlation Energy        =      -2.1420920223015809 [Eh]
	 Total Energy              =    -534.8367359916627493 [Eh]

	 ================> DF-SCS-MP2 Energies <==================
	-----------------------------------------------------------
	 SCS Same-Spin Scale       =       0.3333333333333333 [-]
	 SCS Opposite-Spin Scale   =       1.2000000000000000 [-]
	 SCS Same-Spin Energy      =      -0.1718891973153747 [Eh]
	 SCS Opposite-Spin Energy  =      -1.9517093164265480 [Eh]
	 SCS Correlation Energy    =      -2.1235985137419227 [Eh]
	 SCS Total Energy          =    -534.8182424831031767 [Eh]
	-----------------------------------------------------------

  Dipole Moment: [D]
     X:     0.0066      Y:    -0.0128      Z:    -0.0145     Total:     0.0204

*** Psi4 exiting successfully. Buy a developer a beer!
