                               Psi4 1.4a3.dev225

  ==> Input File <==

--------------------------------------------------------------------------
#psi4
#
memory 32 gb

molecule  {
0 1
  O        1.7312310    -0.2769730     0.0000590
  O       -1.6799384     0.1894902     0.0000047
  O        0.5576720     1.6786530    -0.0001670
  O       -0.5576690    -1.6786520    -0.0003240
  C        2.9581590     0.5011960     0.0001010
  C       -2.9581610    -0.5011970    -0.0000370
  C        4.0961590    -0.4920900     0.0002650
  C       -4.0961600     0.4920910     0.0001910
  C        0.6121100     0.4612570    -0.0000760
  C       -0.6121090    -0.4612570    -0.0001440
  H        2.9624380     1.1440920    -0.8842080
  H        2.9622950     1.1442210     0.8843180
  H       -2.9624180    -1.1440100    -0.8844060
  H       -2.9623190    -1.1443030     0.8841200
  H        5.0512870     0.0405180     0.0003010
  H        4.0503980    -1.1272370     0.8870460
  H        4.0505370    -1.1273680    -0.8864290
  H       -5.0512890    -0.0405160     0.0001540
  H       -4.0504200     1.1271560     0.8870320
  H       -4.0505160     1.1274510    -0.8864430
units angstrom
no_reorient  #important for SAPT in psi4, default
symmetry c1  #important for SAPT in psi4, default
}

set PROPERTIES_ORIGIN ["COM"]
properties('MP2/aug-cc-pvtz', properties = ['dipole'])
--------------------------------------------------------------------------

    Molecular point group: c1
  Charge       = 0
  Multiplicity = 1
  Basis Set: AUG-CC-PVTZ
    Blend: AUG-CC-PVTZ
  Basis Set: (AUG-CC-PVTZ AUX)
    Blend: AUG-CC-PVTZ-JKFIT

    Orbital Energies [Eh]
    ---------------------

    Doubly Occupied:

       1A    -20.621111     2A    -20.616464     3A    -20.569518
       4A    -20.549768     5A    -11.403757     6A    -11.393920
       7A    -11.308051     8A    -11.297382     9A    -11.237158
      10A    -11.228031    11A     -1.511938    12A     -1.466474
      13A     -1.376633    14A     -1.360564    15A     -1.072081
      16A     -1.050088    17A     -0.949534    18A     -0.885085
      19A     -0.828445    20A     -0.791132    21A     -0.754748
      22A     -0.712947    23A     -0.698651    24A     -0.686148
      25A     -0.677428    26A     -0.613840    27A     -0.613556
      28A     -0.582361    29A     -0.573550    30A     -0.566839
      31A     -0.551181    32A     -0.523200    33A     -0.522677
      34A     -0.520062    35A     -0.511655    36A     -0.510697
      37A     -0.472140    38A     -0.461515    39A     -0.442749

  @DF-RHF Final Energy:  -532.69501179929057

   => Energetics <=

    Nuclear Repulsion Energy =            542.7411462347716906
    One-Electron Energy =               -1805.8461649279058747
    Two-Electron Energy =                 730.4100068938437289
    Total Energy =                       -532.6950117992905689
  Basis Set: (AUG-CC-PVTZ AUX)
    Blend: AUG-CC-PVTZ-RI
    Molecular point group: c1

    Geometry (in Angstrom), charge = 0, multiplicity = 1:

       Center              X                  Y                   Z               Mass
    ------------   -----------------  -----------------  -----------------  -----------------
         O            1.725613791769    -0.267392827985     0.000070899437    15.994914619570
         O           -1.685555608231     0.199070372015     0.000016599437    15.994914619570
         O            0.552054791769     1.688233172015    -0.000155100563    15.994914619570
         O           -0.563286208231    -1.669071827985    -0.000312100563    15.994914619570
         C            2.952541791769     0.510776172015     0.000112899437    12.000000000000
         C           -2.963778208231    -0.491616827985    -0.000025100563    12.000000000000
         C            4.090541791769    -0.482509827985     0.000276899437    12.000000000000
         C           -4.101777208231     0.501671172015     0.000202899437    12.000000000000
         C            0.606492791769     0.470837172015    -0.000064100563    12.000000000000
         C           -0.617726208231    -0.451676827985    -0.000132100563    12.000000000000
         H            2.956820791769     1.153672172015    -0.884196100563     1.007825032230
         H            2.956677791769     1.153801172015     0.884329899437     1.007825032230
         H           -2.968035208231    -1.134429827985    -0.884394100563     1.007825032230
         H           -2.967936208231    -1.134722827985     0.884131899437     1.007825032230
         H            5.045669791769     0.050098172015     0.000312899437     1.007825032230
         H            4.044780791769    -1.117656827985     0.887057899437     1.007825032230
         H            4.044919791769    -1.117787827985    -0.886417100563     1.007825032230
         H           -5.056906208231    -0.030935827985     0.000165899437     1.007825032230
         H           -4.056037208231     1.136736172015     0.887043899437     1.007825032230
         H           -4.056133208231     1.137031172015    -0.886431100563     1.007825032230

  Basis Set: AUG-CC-PVTZ
    Blend: AUG-CC-PVTZ
  Basis Set: (AUG-CC-PVTZ AUX)
    Blend: AUG-CC-PVTZ-JKFIT
	 Reference Energy          =    -532.6950117992905689 [Eh]
	 Singles Energy            =      -0.0000000000000000 [Eh]
	 Same-Spin Energy          =      -0.5141658321692948 [Eh]
	 Opposite-Spin Energy      =      -1.6222754200067742 [Eh]
	 Correlation Energy        =      -2.1364412521760690 [Eh]
	 Total Energy              =    -534.8314530514666103 [Eh]

	 ================> DF-SCS-MP2 Energies <==================
	-----------------------------------------------------------
	 SCS Same-Spin Scale       =       0.3333333333333333 [-]
	 SCS Opposite-Spin Scale   =       1.2000000000000000 [-]
	 SCS Same-Spin Energy      =      -0.1713886107230982 [Eh]
	 SCS Opposite-Spin Energy  =      -1.9467305040081289 [Eh]
	 SCS Correlation Energy    =      -2.1181191147312273 [Eh]
	 SCS Total Energy          =    -534.8131309140218264 [Eh]
	-----------------------------------------------------------

  Dipole Moment: [D]
     X:    -0.5720      Y:     0.3403      Z:     0.0006     Total:     0.6656

*** Psi4 exiting successfully. Buy a developer a beer!
