                               Psi4 1.4a3.dev225

  ==> Input File <==

--------------------------------------------------------------------------
#psi4
#
memory 32 gb

molecule  {
0 1
  O        1.7312310    -0.2769730     0.0000590
  O       -1.7312320     0.2769720     0.0000220
  O        0.5576720     1.6786530    -0.0001670
  O       -0.5576690    -1.6786520    -0.0003240
  C        2.9581590     0.5011960     0.0001010
  C       -2.9581610    -0.5011970    -0.0000370
  C        4.0961590    -0.4920900     0.0002650
  C       -4.0584908     0.4592119     0.0001835
  C        0.6121100     0.4612570    -0.0000760
  C       -0.6121090    -0.4612570    -0.0001440
  H        2.9624380     1.1440920    -0.8842080
  H        2.9622950     1.1442210     0.8843180
  H       -2.9624180    -1.1440100    -0.8844060
  H       -2.9623190    -1.1443030     0.8841200
  H        5.0512870     0.0405180     0.0003010
  H        4.0503980    -1.1272370     0.8870460
  H        4.0505370    -1.1273680    -0.8864290
  H       -5.0512890    -0.0405160     0.0001540
  H       -4.0504200     1.1271560     0.8870320
  H       -4.0505160     1.1274510    -0.8864430
units angstrom
no_reorient  #important for SAPT in psi4, default
symmetry c1  #important for SAPT in psi4, default
}

set PROPERTIES_ORIGIN ["COM"]
properties('MP2/aug-cc-pvtz', properties = ['dipole'])
--------------------------------------------------------------------------

    Molecular point group: c1
  Charge       = 0
  Multiplicity = 1
  Basis Set: AUG-CC-PVTZ
    Blend: AUG-CC-PVTZ
  Basis Set: (AUG-CC-PVTZ AUX)
    Blend: AUG-CC-PVTZ-JKFIT

    Orbital Energies [Eh]
    ---------------------

    Doubly Occupied:

       1A    -20.619550     2A    -20.619526     3A    -20.572209
       4A    -20.572108     5A    -11.408107     6A    -11.407531
       7A    -11.299568     8A    -11.297639     9A    -11.231708
      10A    -11.229894    11A     -1.487664    12A     -1.459550
      13A     -1.382737    14A     -1.367071    15A     -1.067495
      16A     -1.051268    17A     -0.945813    18A     -0.873084
      19A     -0.830631    20A     -0.788109    21A     -0.745562
      22A     -0.704007    23A     -0.703250    24A     -0.685116
      25A     -0.680565    26A     -0.613916    27A     -0.609454
      28A     -0.576529    29A     -0.576384    30A     -0.558891
      31A     -0.551879    32A     -0.527544    33A     -0.523589
      34A     -0.519641    35A     -0.519404    36A     -0.507127
      37A     -0.475236    38A     -0.465777    39A     -0.448154

  @DF-RHF Final Energy:  -532.69264514179417

   => Energetics <=

    Nuclear Repulsion Energy =            541.3122187735540365
    One-Electron Energy =               -1803.0031544428741199
    Two-Electron Energy =                 728.9982905275257963
    Total Energy =                       -532.6926451417941735
  Basis Set: (AUG-CC-PVTZ AUX)
    Blend: AUG-CC-PVTZ-RI
    Molecular point group: c1

    Geometry (in Angstrom), charge = 0, multiplicity = 1:

       Center              X                  Y                   Z               Mass
    ------------   -----------------  -----------------  -----------------  -----------------
         O            1.728136122504    -0.274271707260     0.000069621094    15.994914619570
         O           -1.734326877496     0.279673292740     0.000032621094    15.994914619570
         O            0.554577122504     1.681354292740    -0.000156378906    15.994914619570
         O           -0.560763877496    -1.675950707260    -0.000313378906    15.994914619570
         C            2.955064122504     0.503897292740     0.000111621094    12.000000000000
         C           -2.961255877496    -0.498495707260    -0.000026378906    12.000000000000
         C            4.093064122504    -0.489388707260     0.000275621094    12.000000000000
         C           -4.061585677496     0.461913192740     0.000194121094    12.000000000000
         C            0.609015122504     0.463958292740    -0.000065378906    12.000000000000
         C           -0.615203877496    -0.458555707260    -0.000133378906    12.000000000000
         H            2.959343122504     1.146793292740    -0.884197378906     1.007825032230
         H            2.959200122504     1.146922292740     0.884328621094     1.007825032230
         H           -2.965512877496    -1.141308707260    -0.884395378906     1.007825032230
         H           -2.965413877496    -1.141601707260     0.884130621094     1.007825032230
         H            5.048192122504     0.043219292740     0.000311621094     1.007825032230
         H            4.047303122504    -1.124535707260     0.887056621094     1.007825032230
         H            4.047442122504    -1.124666707260    -0.886418378906     1.007825032230
         H           -5.054383877496    -0.037814707260     0.000164621094     1.007825032230
         H           -4.053514877496     1.129857292740     0.887042621094     1.007825032230
         H           -4.053610877496     1.130152292740    -0.886432378906     1.007825032230

  Basis Set: AUG-CC-PVTZ
    Blend: AUG-CC-PVTZ
  Basis Set: (AUG-CC-PVTZ AUX)
    Blend: AUG-CC-PVTZ-JKFIT
	 Reference Energy          =    -532.6926451417941735 [Eh]
	 Singles Energy            =      -0.0000000000000000 [Eh]
	 Same-Spin Energy          =      -0.5160534850261311 [Eh]
	 Opposite-Spin Energy      =      -1.6270749723350366 [Eh]
	 Correlation Energy        =      -2.1431284573611675 [Eh]
	 Total Energy              =    -534.8357735991553454 [Eh]

	 ================> DF-SCS-MP2 Energies <==================
	-----------------------------------------------------------
	 SCS Same-Spin Scale       =       0.3333333333333333 [-]
	 SCS Opposite-Spin Scale   =       1.2000000000000000 [-]
	 SCS Same-Spin Energy      =      -0.1720178283420437 [Eh]
	 SCS Opposite-Spin Energy  =      -1.9524899668020439 [Eh]
	 SCS Correlation Energy    =      -2.1245077951440874 [Eh]
	 SCS Total Energy          =    -534.8171529369382142 [Eh]
	-----------------------------------------------------------

  Dipole Moment: [D]
     X:    -0.0151      Y:     0.0030      Z:     0.0005     Total:     0.0154

*** Psi4 exiting successfully. Buy a developer a beer!
