                               Psi4 1.4a3.dev225

  ==> Input File <==

--------------------------------------------------------------------------
#psi4
#
memory 32 gb

molecule  {
0 1
  O        1.7563131    -0.2374665     0.0000594
  O       -1.7312320     0.2769720     0.0000220
  O        0.5576720     1.6786530    -0.0001670
  O       -0.5576690    -1.6786520    -0.0003240
  C        2.9581590     0.5011960     0.0001010
  C       -2.9581610    -0.5011970    -0.0000370
  C        4.0961590    -0.4920900     0.0002650
  C       -4.0961600     0.4920910     0.0001910
  C        0.6121100     0.4612570    -0.0000760
  C       -0.6121090    -0.4612570    -0.0001440
  H        2.9624380     1.1440920    -0.8842080
  H        2.9622950     1.1442210     0.8843180
  H       -2.9624180    -1.1440100    -0.8844060
  H       -2.9623190    -1.1443030     0.8841200
  H        5.0512870     0.0405180     0.0003010
  H        4.0503980    -1.1272370     0.8870460
  H        4.0505370    -1.1273680    -0.8864290
  H       -5.0512890    -0.0405160     0.0001540
  H       -4.0504200     1.1271560     0.8870320
  H       -4.0505160     1.1274510    -0.8864430
units angstrom
no_reorient  #important for SAPT in psi4, default
symmetry c1  #important for SAPT in psi4, default
}

set PROPERTIES_ORIGIN ["COM"]
properties('MP2/aug-cc-pvtz', properties = ['dipole'])
--------------------------------------------------------------------------

    Molecular point group: c1
  Charge       = 0
  Multiplicity = 1
  Basis Set: AUG-CC-PVTZ
    Blend: AUG-CC-PVTZ
  Basis Set: (AUG-CC-PVTZ AUX)
    Blend: AUG-CC-PVTZ-JKFIT

    Orbital Energies [Eh]
    ---------------------

    Doubly Occupied:

       1A    -20.621593     2A    -20.617486     3A    -20.574559
       4A    -20.571985     5A    -11.411347     6A    -11.409182
       7A    -11.300978     8A    -11.294699     9A    -11.230844
      10A    -11.228093    11A     -1.491404    12A     -1.464505
      13A     -1.384124    14A     -1.369827    15A     -1.063311
      16A     -1.048492    17A     -0.948630    18A     -0.879147
      19A     -0.830916    20A     -0.789239    21A     -0.750076
      22A     -0.705861    23A     -0.704901    24A     -0.687403
      25A     -0.681775    26A     -0.614931    27A     -0.609169
      28A     -0.577868    29A     -0.577810    30A     -0.560425
      31A     -0.550926    32A     -0.525255    33A     -0.523703
      34A     -0.521975    35A     -0.516440    36A     -0.511730
      37A     -0.475082    38A     -0.463779    39A     -0.450436

  @DF-RHF Final Energy:  -532.69628318711011

   => Energetics <=

    Nuclear Repulsion Energy =            540.9303509135415879
    One-Electron Energy =               -1802.1734573788573925
    Two-Electron Energy =                 728.5468232782056930
    Total Energy =                       -532.6962831871101116
  Basis Set: (AUG-CC-PVTZ AUX)
    Blend: AUG-CC-PVTZ-RI
    Molecular point group: c1

    Geometry (in Angstrom), charge = 0, multiplicity = 1:

       Center              X                  Y                   Z               Mass
    ------------   -----------------  -----------------  -----------------  -----------------
         O            1.753566333417    -0.241792914988     0.000069361096    15.994914619570
         O           -1.733978766583     0.272645585012     0.000031961096    15.994914619570
         O            0.554925233417     1.674326585012    -0.000157038904    15.994914619570
         O           -0.560415766583    -1.682978414988    -0.000314038904    15.994914619570
         C            2.955412233417     0.496869585012     0.000110961096    12.000000000000
         C           -2.960907766583    -0.505523414988    -0.000027038904    12.000000000000
         C            4.093412233417    -0.496416414988     0.000274961096    12.000000000000
         C           -4.098906766583     0.487764585012     0.000200961096    12.000000000000
         C            0.609363233417     0.456930585012    -0.000066038904    12.000000000000
         C           -0.614855766583    -0.465583414988    -0.000134038904    12.000000000000
         H            2.959691233417     1.139765585012    -0.884198038904     1.007825032230
         H            2.959548233417     1.139894585012     0.884327961096     1.007825032230
         H           -2.965164766583    -1.148336414988    -0.884396038904     1.007825032230
         H           -2.965065766583    -1.148629414988     0.884129961096     1.007825032230
         H            5.048540233417     0.036191585012     0.000310961096     1.007825032230
         H            4.047651233417    -1.131563414988     0.887055961096     1.007825032230
         H            4.047790233417    -1.131694414988    -0.886419038904     1.007825032230
         H           -5.054035766583    -0.044842414988     0.000163961096     1.007825032230
         H           -4.053166766583     1.122829585012     0.887041961096     1.007825032230
         H           -4.053262766583     1.123124585012    -0.886433038904     1.007825032230

  Basis Set: AUG-CC-PVTZ
    Blend: AUG-CC-PVTZ
  Basis Set: (AUG-CC-PVTZ AUX)
    Blend: AUG-CC-PVTZ-JKFIT
	 Reference Energy          =    -532.6962831871101116 [Eh]
	 Singles Energy            =      -0.0000000000000000 [Eh]
	 Same-Spin Energy          =      -0.5153105672135242 [Eh]
	 Opposite-Spin Energy      =      -1.6254905737712302 [Eh]
	 Correlation Energy        =      -2.1408011409847543 [Eh]
	 Total Energy              =    -534.8370843280948748 [Eh]

	 ================> DF-SCS-MP2 Energies <==================
	-----------------------------------------------------------
	 SCS Same-Spin Scale       =       0.3333333333333333 [-]
	 SCS Opposite-Spin Scale   =       1.2000000000000000 [-]
	 SCS Same-Spin Energy      =      -0.1717701890711747 [Eh]
	 SCS Opposite-Spin Energy  =      -1.9505886885254762 [Eh]
	 SCS Correlation Energy    =      -2.1223588775966511 [Eh]
	 SCS Total Energy          =    -534.8186420647067507 [Eh]
	-----------------------------------------------------------

  Dipole Moment: [D]
     X:    -0.1946      Y:    -0.0843      Z:     0.0005     Total:     0.2120

*** Psi4 exiting successfully. Buy a developer a beer!
