                               Psi4 1.4a3.dev225

  ==> Input File <==

--------------------------------------------------------------------------
#psi4
#
memory 32 gb

molecule  {
0 1
  O        1.7312310    -0.2769730     0.0000590
  O       -1.7312320     0.2769720     0.0000220
  O        0.5576720     1.6786530    -0.0001670
  O       -0.5576690    -1.6786520    -0.0003240
  C        2.9581590     0.5011960     0.0001010
  C       -2.9581610    -0.5011970    -0.0000370
  C        4.0961590    -0.4920900     0.0002650
  C       -4.0961600     0.4920910     0.0001910
  C        0.6165772     0.3613568    -0.0000685
  C       -0.6121090    -0.4612570    -0.0001440
  H        2.9624380     1.1440920    -0.8842080
  H        2.9622950     1.1442210     0.8843180
  H       -2.9624180    -1.1440100    -0.8844060
  H       -2.9623190    -1.1443030     0.8841200
  H        5.0512870     0.0405180     0.0003010
  H        4.0503980    -1.1272370     0.8870460
  H        4.0505370    -1.1273680    -0.8864290
  H       -5.0512890    -0.0405160     0.0001540
  H       -4.0504200     1.1271560     0.8870320
  H       -4.0505160     1.1274510    -0.8864430
units angstrom
no_reorient  #important for SAPT in psi4, default
symmetry c1  #important for SAPT in psi4, default
}

set PROPERTIES_ORIGIN ["COM"]
properties('MP2/aug-cc-pvtz', properties = ['dipole'])
--------------------------------------------------------------------------

    Molecular point group: c1
  Charge       = 0
  Multiplicity = 1
  Basis Set: AUG-CC-PVTZ
    Blend: AUG-CC-PVTZ
  Basis Set: (AUG-CC-PVTZ AUX)
    Blend: AUG-CC-PVTZ-JKFIT

    Orbital Energies [Eh]
    ---------------------

    Doubly Occupied:

       1A    -20.634789     2A    -20.621102     3A    -20.575433
       4A    -20.554356     5A    -11.411875     6A    -11.409638
       7A    -11.307625     8A    -11.300555     9A    -11.234625
      10A    -11.229806    11A     -1.498490    12A     -1.468868
      13A     -1.378907    14A     -1.316770    15A     -1.072481
      16A     -1.052330    17A     -0.960582    18A     -0.883723
      19A     -0.838182    20A     -0.793926    21A     -0.757128
      22A     -0.709099    23A     -0.700332    24A     -0.688168
      25A     -0.670720    26A     -0.610659    27A     -0.609668
      28A     -0.579960    29A     -0.571307    30A     -0.562886
      31A     -0.552979    32A     -0.526830    33A     -0.523340
      34A     -0.522740    35A     -0.505977    36A     -0.504389
      37A     -0.472802    38A     -0.450550    39A     -0.449158

  @DF-RHF Final Energy:  -532.67367421804545

   => Energetics <=

    Nuclear Repulsion Energy =            540.6703273181034319
    One-Electron Energy =               -1801.6624886605425218
    Two-Electron Energy =                 728.3184871243935277
    Total Energy =                       -532.6736742180454485
  Basis Set: (AUG-CC-PVTZ AUX)
    Blend: AUG-CC-PVTZ-RI
    Molecular point group: c1

    Geometry (in Angstrom), charge = 0, multiplicity = 1:

       Center              X                  Y                   Z               Mass
    ------------   -----------------  -----------------  -----------------  -----------------
         O            1.730863972049    -0.268765307732     0.000068388706    15.994914619570
         O           -1.731599027951     0.285179692268     0.000031388706    15.994914619570
         O            0.557304972049     1.686860692268    -0.000157611294    15.994914619570
         O           -0.558036027951    -1.670444307732    -0.000314611294    15.994914619570
         C            2.957791972049     0.509403692268     0.000110388706    12.000000000000
         C           -2.958528027951    -0.492989307732    -0.000027611294    12.000000000000
         C            4.095791972049    -0.483882307732     0.000274388706    12.000000000000
         C           -4.096527027951     0.500298692268     0.000200388706    12.000000000000
         C            0.616210172049     0.369564492268    -0.000059111294    12.000000000000
         C           -0.612476027951    -0.453049307732    -0.000134611294    12.000000000000
         H            2.962070972049     1.152299692268    -0.884198611294     1.007825032230
         H            2.961927972049     1.152428692268     0.884327388706     1.007825032230
         H           -2.962785027951    -1.135802307732    -0.884396611294     1.007825032230
         H           -2.962686027951    -1.136095307732     0.884129388706     1.007825032230
         H            5.050919972049     0.048725692268     0.000310388706     1.007825032230
         H            4.050030972049    -1.119029307732     0.887055388706     1.007825032230
         H            4.050169972049    -1.119160307732    -0.886419611294     1.007825032230
         H           -5.051656027951    -0.032308307732     0.000163388706     1.007825032230
         H           -4.050787027951     1.135363692268     0.887041388706     1.007825032230
         H           -4.050883027951     1.135658692268    -0.886433611294     1.007825032230

  Basis Set: AUG-CC-PVTZ
    Blend: AUG-CC-PVTZ
  Basis Set: (AUG-CC-PVTZ AUX)
    Blend: AUG-CC-PVTZ-JKFIT
	 Reference Energy          =    -532.6736742180454485 [Eh]
	 Singles Energy            =      -0.0000000000000000 [Eh]
	 Same-Spin Energy          =      -0.5176393613409447 [Eh]
	 Opposite-Spin Energy      =      -1.6308304338959836 [Eh]
	 Correlation Energy        =      -2.1484697952369283 [Eh]
	 Total Energy              =    -534.8221440132823545 [Eh]

	 ================> DF-SCS-MP2 Energies <==================
	-----------------------------------------------------------
	 SCS Same-Spin Scale       =       0.3333333333333333 [-]
	 SCS Opposite-Spin Scale   =       1.2000000000000000 [-]
	 SCS Same-Spin Energy      =      -0.1725464537803149 [Eh]
	 SCS Opposite-Spin Energy  =      -1.9569965206751803 [Eh]
	 SCS Correlation Energy    =      -2.1295429744554952 [Eh]
	 SCS Total Energy          =    -534.8032171925009379 [Eh]
	-----------------------------------------------------------

  Dipole Moment: [D]
     X:     0.3643      Y:    -0.4627      Z:     0.0006     Total:     0.5889

*** Psi4 exiting successfully. Buy a developer a beer!
