                               Psi4 1.4a3.dev225

  ==> Input File <==

--------------------------------------------------------------------------
#psi4
#
memory 32 gb

molecule  {
0 1
  O        1.7312310    -0.2769730     0.0000590
  O       -1.7312320     0.2769720     0.0000220
  O        0.5576720     1.6786530    -0.0001670
  O       -0.5576690    -1.6786520    -0.0003240
  C        2.9581590     0.5011960     0.0001010
  C       -2.9581610    -0.5011970    -0.0000370
  C        4.0961590    -0.4920900     0.0002650
  C       -4.2468367     0.6236073     0.0002212
  C        0.6121100     0.4612570    -0.0000760
  C       -0.6121090    -0.4612570    -0.0001440
  H        2.9624380     1.1440920    -0.8842080
  H        2.9622950     1.1442210     0.8843180
  H       -2.9624180    -1.1440100    -0.8844060
  H       -2.9623190    -1.1443030     0.8841200
  H        5.0512870     0.0405180     0.0003010
  H        4.0503980    -1.1272370     0.8870460
  H        4.0505370    -1.1273680    -0.8864290
  H       -5.0512890    -0.0405160     0.0001540
  H       -4.0504200     1.1271560     0.8870320
  H       -4.0505160     1.1274510    -0.8864430
units angstrom
no_reorient  #important for SAPT in psi4, default
symmetry c1  #important for SAPT in psi4, default
}

set PROPERTIES_ORIGIN ["COM"]
properties('MP2/aug-cc-pvtz', properties = ['dipole'])
--------------------------------------------------------------------------

    Molecular point group: c1
  Charge       = 0
  Multiplicity = 1
  Basis Set: AUG-CC-PVTZ
    Blend: AUG-CC-PVTZ
  Basis Set: (AUG-CC-PVTZ AUX)
    Blend: AUG-CC-PVTZ-JKFIT

    Orbital Energies [Eh]
    ---------------------

    Doubly Occupied:

       1A    -20.619280     2A    -20.619222     3A    -20.571797
       4A    -20.571368     5A    -11.407613     6A    -11.406915
       7A    -11.304320     8A    -11.299404     9A    -11.230470
      10A    -11.229762    11A     -1.486609    12A     -1.458214
      13A     -1.381779    14A     -1.365747    15A     -1.056909
      16A     -1.027466    17A     -0.948043    18A     -0.882898
      19A     -0.832466    20A     -0.784637    21A     -0.743512
      22A     -0.702868    23A     -0.700503    24A     -0.680769
      25A     -0.678672    26A     -0.613519    27A     -0.608092
      28A     -0.593078    29A     -0.587189    30A     -0.565336
      31A     -0.548398    32A     -0.538556    33A     -0.523775
      34A     -0.520710    35A     -0.514365    36A     -0.476209
      37A     -0.467907    38A     -0.466153    39A     -0.445662

  @DF-RHF Final Energy:  -532.66747611309290

   => Energetics <=

    Nuclear Repulsion Energy =            537.5149410290481455
    One-Electron Energy =               -1795.4444563284203014
    Two-Electron Energy =                 725.2620391862793667
    Total Energy =                       -532.6674761130929028
  Basis Set: (AUG-CC-PVTZ AUX)
    Blend: AUG-CC-PVTZ-RI
    Molecular point group: c1

    Geometry (in Angstrom), charge = 0, multiplicity = 1:

       Center              X                  Y                   Z               Mass
    ------------   -----------------  -----------------  -----------------  -----------------
         O            1.743610469758    -0.287778300749     0.000066523693    15.994914619570
         O           -1.718852530242     0.266166699251     0.000029523693    15.994914619570
         O            0.570051469758     1.667847699251    -0.000159476307    15.994914619570
         O           -0.545289530242    -1.689457300749    -0.000316476307    15.994914619570
         C            2.970538469758     0.490390699251     0.000108523693    12.000000000000
         C           -2.945781530242    -0.512002300749    -0.000029476307    12.000000000000
         C            4.108538469758    -0.502895300749     0.000272523693    12.000000000000
         C           -4.234457230242     0.612801999251     0.000228723693    12.000000000000
         C            0.624489469758     0.450451699251    -0.000068476307    12.000000000000
         C           -0.599729530242    -0.472062300749    -0.000136476307    12.000000000000
         H            2.974817469758     1.133286699251    -0.884200476307     1.007825032230
         H            2.974674469758     1.133415699251     0.884325523693     1.007825032230
         H           -2.950038530242    -1.154815300749    -0.884398476307     1.007825032230
         H           -2.949939530242    -1.155108300749     0.884127523693     1.007825032230
         H            5.063666469758     0.029712699251     0.000308523693     1.007825032230
         H            4.062777469758    -1.138042300749     0.887053523693     1.007825032230
         H            4.062916469758    -1.138173300749    -0.886421476307     1.007825032230
         H           -5.038909530242    -0.051321300749     0.000161523693     1.007825032230
         H           -4.038040530242     1.116350699251     0.887039523693     1.007825032230
         H           -4.038136530242     1.116645699251    -0.886435476307     1.007825032230

  Basis Set: AUG-CC-PVTZ
    Blend: AUG-CC-PVTZ
  Basis Set: (AUG-CC-PVTZ AUX)
    Blend: AUG-CC-PVTZ-JKFIT
	 Reference Energy          =    -532.6674761130929028 [Eh]
	 Singles Energy            =      -0.0000000000000000 [Eh]
	 Same-Spin Energy          =      -0.5155797827859077 [Eh]
	 Opposite-Spin Energy      =      -1.6280638556361318 [Eh]
	 Correlation Energy        =      -2.1436436384220396 [Eh]
	 Total Energy              =    -534.8111197515149797 [Eh]

	 ================> DF-SCS-MP2 Energies <==================
	-----------------------------------------------------------
	 SCS Same-Spin Scale       =       0.3333333333333333 [-]
	 SCS Opposite-Spin Scale   =       1.2000000000000000 [-]
	 SCS Same-Spin Energy      =      -0.1718599275953026 [Eh]
	 SCS Opposite-Spin Energy  =      -1.9536766267633581 [Eh]
	 SCS Correlation Energy    =      -2.1255365543586606 [Eh]
	 SCS Total Energy          =    -534.7930126674515350 [Eh]
	-----------------------------------------------------------

  Dipole Moment: [D]
     X:     0.0734      Y:    -0.0296      Z:     0.0005     Total:     0.0792

*** Psi4 exiting successfully. Buy a developer a beer!
