                               Psi4 1.4a3.dev225

  ==> Input File <==

--------------------------------------------------------------------------
#psi4
#
memory 32 gb

molecule  {
0 1
  O        1.7312310    -0.2769730     0.0000590
  O       -1.7312320     0.2769720     0.0000220
  O        0.5576720     1.6786530    -0.0001670
  O       -0.5576690    -1.6786520    -0.0003240
  C        2.7892646     0.3940761     0.0000952
  C       -2.9581610    -0.5011970    -0.0000370
  C        4.0961590    -0.4920900     0.0002650
  C       -4.0961600     0.4920910     0.0001910
  C        0.6121100     0.4612570    -0.0000760
  C       -0.6121090    -0.4612570    -0.0001440
  H        2.9624380     1.1440920    -0.8842080
  H        2.9622950     1.1442210     0.8843180
  H       -2.9624180    -1.1440100    -0.8844060
  H       -2.9623190    -1.1443030     0.8841200
  H        5.0512870     0.0405180     0.0003010
  H        4.0503980    -1.1272370     0.8870460
  H        4.0505370    -1.1273680    -0.8864290
  H       -5.0512890    -0.0405160     0.0001540
  H       -4.0504200     1.1271560     0.8870320
  H       -4.0505160     1.1274510    -0.8864430
units angstrom
no_reorient  #important for SAPT in psi4, default
symmetry c1  #important for SAPT in psi4, default
}

set PROPERTIES_ORIGIN ["COM"]
properties('MP2/aug-cc-pvtz', properties = ['dipole'])
--------------------------------------------------------------------------

    Molecular point group: c1
  Charge       = 0
  Multiplicity = 1
  Basis Set: AUG-CC-PVTZ
    Blend: AUG-CC-PVTZ
  Basis Set: (AUG-CC-PVTZ AUX)
    Blend: AUG-CC-PVTZ-JKFIT

    Orbital Energies [Eh]
    ---------------------

    Doubly Occupied:

       1A    -20.640792     2A    -20.625993     3A    -20.588745
       4A    -20.580224     5A    -11.422254     6A    -11.416669
       7A    -11.304172     8A    -11.300392     9A    -11.233334
      10A    -11.224510    11A     -1.541682    12A     -1.479546
      13A     -1.406121    14A     -1.381193    15A     -1.067700
      16A     -1.044807    17A     -0.955743    18A     -0.890122
      19A     -0.826978    20A     -0.804189    21A     -0.761571
      22A     -0.726390    23A     -0.717380    24A     -0.694721
      25A     -0.693746    26A     -0.641196    27A     -0.606440
      28A     -0.589345    29A     -0.572749    30A     -0.561248
      31A     -0.557617    32A     -0.531739    33A     -0.528659
      34A     -0.528098    35A     -0.516264    36A     -0.477269
      37A     -0.474539    38A     -0.457263    39A     -0.436811

  @DF-RHF Final Energy:  -532.65497371205277

   => Energetics <=

    Nuclear Repulsion Energy =            544.2644721864847952
    One-Electron Energy =               -1808.2224699236292054
    Two-Electron Energy =                 731.3030240250917586
    Total Energy =                       -532.6549737120527652
  Basis Set: (AUG-CC-PVTZ AUX)
    Blend: AUG-CC-PVTZ-RI
    Molecular point group: c1

    Geometry (in Angstrom), charge = 0, multiplicity = 1:

       Center              X                  Y                   Z               Mass
    ------------   -----------------  -----------------  -----------------  -----------------
         O            1.745107221299    -0.268172143003     0.000069481424    15.994914619570
         O           -1.717355778701     0.285772856997     0.000032481424    15.994914619570
         O            0.571548221299     1.687453856997    -0.000156518576    15.994914619570
         O           -0.543792778701    -1.669851143003    -0.000313518576    15.994914619570
         C            2.803140821299     0.402876956997     0.000105681424    12.000000000000
         C           -2.944284778701    -0.492396143003    -0.000026518576    12.000000000000
         C            4.110035221299    -0.483289143003     0.000275481424    12.000000000000
         C           -4.082283778701     0.500891856997     0.000201481424    12.000000000000
         C            0.625986221299     0.470057856997    -0.000065518576    12.000000000000
         C           -0.598232778701    -0.452456143003    -0.000133518576    12.000000000000
         H            2.976314221299     1.152892856997    -0.884197518576     1.007825032230
         H            2.976171221299     1.153021856997     0.884328481424     1.007825032230
         H           -2.948541778701    -1.135209143003    -0.884395518576     1.007825032230
         H           -2.948442778701    -1.135502143003     0.884130481424     1.007825032230
         H            5.065163221299     0.049318856997     0.000311481424     1.007825032230
         H            4.064274221299    -1.118436143003     0.887056481424     1.007825032230
         H            4.064413221299    -1.118567143003    -0.886418518576     1.007825032230
         H           -5.037412778701    -0.031715143003     0.000164481424     1.007825032230
         H           -4.036543778701     1.135956856997     0.887042481424     1.007825032230
         H           -4.036639778701     1.136251856997    -0.886432518576     1.007825032230

  Basis Set: AUG-CC-PVTZ
    Blend: AUG-CC-PVTZ
  Basis Set: (AUG-CC-PVTZ AUX)
    Blend: AUG-CC-PVTZ-JKFIT
	 Reference Energy          =    -532.6549737120527652 [Eh]
	 Singles Energy            =      -0.0000000000000000 [Eh]
	 Same-Spin Energy          =      -0.5166860659363284 [Eh]
	 Opposite-Spin Energy      =      -1.6269524383211824 [Eh]
	 Correlation Energy        =      -2.1436385042575106 [Eh]
	 Total Energy              =    -534.7986122163102891 [Eh]

	 ================> DF-SCS-MP2 Energies <==================
	-----------------------------------------------------------
	 SCS Same-Spin Scale       =       0.3333333333333333 [-]
	 SCS Opposite-Spin Scale   =       1.2000000000000000 [-]
	 SCS Same-Spin Energy      =      -0.1722286886454428 [Eh]
	 SCS Opposite-Spin Energy  =      -1.9523429259854188 [Eh]
	 SCS Correlation Energy    =      -2.1245716146308617 [Eh]
	 SCS Total Energy          =    -534.7795453266836603 [Eh]
	-----------------------------------------------------------

  Dipole Moment: [D]
     X:    -0.9834      Y:    -0.1829      Z:     0.0004     Total:     1.0003

*** Psi4 exiting successfully. Buy a developer a beer!
