                               Psi4 1.4a3.dev225

  ==> Input File <==

--------------------------------------------------------------------------
#psi4
#
memory 32 gb

molecule  {
0 1
  O        1.7312310    -0.2769730     0.0000590
  O       -1.7312320     0.2769720     0.0000220
  O        0.5576720     1.6786530    -0.0001670
  O       -0.5576690    -1.6786520    -0.0003240
  C        2.9581590     0.5011960     0.0001010
  C       -2.9581610    -0.5011970    -0.0000370
  C        4.0961590    -0.4920900     0.0002650
  C       -4.0961600     0.4920910     0.0001910
  C        0.6121100     0.4612570    -0.0000760
  C       -0.6121090    -0.4612570    -0.0001440
  H        2.9624380     1.1440920    -0.8842080
  H        2.9622950     1.1442210     0.8843180
  H       -2.9624180    -1.1440100    -0.8844060
  H       -2.9623190    -1.1443030     0.8841200
  H        5.0512870     0.0405180     0.0003010
  H        4.0526444    -1.0959815     0.9087296
  H        4.0505370    -1.1273680    -0.8864290
  H       -5.0512890    -0.0405160     0.0001540
  H       -4.0504200     1.1271560     0.8870320
  H       -4.0505160     1.1274510    -0.8864430
units angstrom
no_reorient  #important for SAPT in psi4, default
symmetry c1  #important for SAPT in psi4, default
}

set PROPERTIES_ORIGIN ["COM"]
properties('MP2/aug-cc-pvtz', properties = ['dipole'])
--------------------------------------------------------------------------

    Molecular point group: c1
  Charge       = 0
  Multiplicity = 1
  Basis Set: AUG-CC-PVTZ
    Blend: AUG-CC-PVTZ
  Basis Set: (AUG-CC-PVTZ AUX)
    Blend: AUG-CC-PVTZ-JKFIT

    Orbital Energies [Eh]
    ---------------------

    Doubly Occupied:

       1A    -20.619453     2A    -20.619415     3A    -20.572013
       4A    -20.572000     5A    -11.407962     6A    -11.407393
       7A    -11.299520     8A    -11.299270     9A    -11.229994
      10A    -11.229857    11A     -1.487375    12A     -1.459195
      13A     -1.382471    14A     -1.366724    15A     -1.061905
      16A     -1.047811    17A     -0.946021    18A     -0.875254
      19A     -0.831111    20A     -0.787145    21A     -0.745062
      22A     -0.703669    23A     -0.702535    24A     -0.684285
      25A     -0.680015    26A     -0.610880    27A     -0.610131
      28A     -0.578856    29A     -0.575486    30A     -0.559742
      31A     -0.547723    32A     -0.523983    33A     -0.523760
      34A     -0.522046    35A     -0.520252    36A     -0.511797
      37A     -0.475880    38A     -0.466151    39A     -0.448120

  @DF-RHF Final Energy:  -532.69555564776965

   => Energetics <=

    Nuclear Repulsion Energy =            540.5209952324842106
    One-Electron Energy =               -1801.4485810386408957
    Two-Electron Energy =                 728.2320301583870332
    Total Energy =                       -532.6955556477696518
  Basis Set: (AUG-CC-PVTZ AUX)
    Blend: AUG-CC-PVTZ-RI
    Molecular point group: c1

    Geometry (in Angstrom), charge = 0, multiplicity = 1:

       Center              X                  Y                   Z               Mass
    ------------   -----------------  -----------------  -----------------  -----------------
         O            1.731215493046    -0.277188695999    -0.000080615720    15.994914619570
         O           -1.731247506954     0.276756304001    -0.000117615720    15.994914619570
         O            0.557656493046     1.678437304001    -0.000306615720    15.994914619570
         O           -0.557684506954    -1.678867695999    -0.000463615720    15.994914619570
         C            2.958143493046     0.500980304001    -0.000038615720    12.000000000000
         C           -2.958176506954    -0.501412695999    -0.000176615720    12.000000000000
         C            4.096143493046    -0.492305695999     0.000125384280    12.000000000000
         C           -4.096175506954     0.491875304001     0.000051384280    12.000000000000
         C            0.612094493046     0.461041304001    -0.000215615720    12.000000000000
         C           -0.612124506954    -0.461472695999    -0.000283615720    12.000000000000
         H            2.962422493046     1.143876304001    -0.884347615720     1.007825032230
         H            2.962279493046     1.144005304001     0.884178384280     1.007825032230
         H           -2.962433506954    -1.144225695999    -0.884545615720     1.007825032230
         H           -2.962334506954    -1.144518695999     0.883980384280     1.007825032230
         H            5.051271493046     0.040302304001     0.000161384280     1.007825032230
         H            4.052628893046    -1.096197195999     0.908589984280     1.007825032230
         H            4.050521493046    -1.127583695999    -0.886568615720     1.007825032230
         H           -5.051304506954    -0.040731695999     0.000014384280     1.007825032230
         H           -4.050435506954     1.126940304001     0.886892384280     1.007825032230
         H           -4.050531506954     1.127235304001    -0.886582615720     1.007825032230

  Basis Set: AUG-CC-PVTZ
    Blend: AUG-CC-PVTZ
  Basis Set: (AUG-CC-PVTZ AUX)
    Blend: AUG-CC-PVTZ-JKFIT
	 Reference Energy          =    -532.6955556477696518 [Eh]
	 Singles Energy            =      -0.0000000000000000 [Eh]
	 Same-Spin Energy          =      -0.5156524628490077 [Eh]
	 Opposite-Spin Energy      =      -1.6267061990515903 [Eh]
	 Correlation Energy        =      -2.1423586619005981 [Eh]
	 Total Energy              =    -534.8379143096702819 [Eh]

	 ================> DF-SCS-MP2 Energies <==================
	-----------------------------------------------------------
	 SCS Same-Spin Scale       =       0.3333333333333333 [-]
	 SCS Opposite-Spin Scale   =       1.2000000000000000 [-]
	 SCS Same-Spin Energy      =      -0.1718841542830025 [Eh]
	 SCS Opposite-Spin Energy  =      -1.9520474388619082 [Eh]
	 SCS Correlation Energy    =      -2.1239315931449108 [Eh]
	 SCS Total Energy          =    -534.8194872409145546 [Eh]
	-----------------------------------------------------------

  Dipole Moment: [D]
     X:     0.0070      Y:     0.0089      Z:     0.0048     Total:     0.0123

*** Psi4 exiting successfully. Buy a developer a beer!
