                               Psi4 1.4a3.dev225

  ==> Input File <==

--------------------------------------------------------------------------
#psi4
#
memory 32 gb

molecule  {
0 1
  O        1.7312310    -0.2769730     0.0000590
  O       -1.7312320     0.2769720     0.0000220
  O        0.5576720     1.6786530    -0.0001670
  O       -0.5576690    -1.6786520    -0.0003240
  C        2.9581590     0.5011960     0.0001010
  C       -2.9581610    -0.5011970    -0.0000370
  C        4.0961590    -0.4920900     0.0002650
  C       -4.0810923     0.4789394     0.0001880
  C        0.6121100     0.4612570    -0.0000760
  C       -0.6121090    -0.4612570    -0.0001440
  H        2.9624380     1.1440920    -0.8842080
  H        2.9622950     1.1442210     0.8843180
  H       -2.9624180    -1.1440100    -0.8844060
  H       -2.9623190    -1.1443030     0.8841200
  H        5.0512870     0.0405180     0.0003010
  H        4.0503980    -1.1272370     0.8870460
  H        4.0505370    -1.1273680    -0.8864290
  H       -5.0512890    -0.0405160     0.0001540
  H       -4.0504200     1.1271560     0.8870320
  H       -4.0505160     1.1274510    -0.8864430
units angstrom
no_reorient  #important for SAPT in psi4, default
symmetry c1  #important for SAPT in psi4, default
}

set PROPERTIES_ORIGIN ["COM"]
properties('MP2/aug-cc-pvtz', properties = ['dipole'])
--------------------------------------------------------------------------

    Molecular point group: c1
  Charge       = 0
  Multiplicity = 1
  Basis Set: AUG-CC-PVTZ
    Blend: AUG-CC-PVTZ
  Basis Set: (AUG-CC-PVTZ AUX)
    Blend: AUG-CC-PVTZ-JKFIT

    Orbital Energies [Eh]
    ---------------------

    Doubly Occupied:

       1A    -20.619510     2A    -20.619500     3A    -20.572115
       4A    -20.572074     5A    -11.408045     6A    -11.407475
       7A    -11.299552     8A    -11.298820     9A    -11.230519
      10A    -11.229881    11A     -1.487514    12A     -1.459360
      13A     -1.382601    14A     -1.366886    15A     -1.063675
      16A     -1.049384    17A     -0.945917    18A     -0.874505
      19A     -0.831123    20A     -0.787587    21A     -0.745287
      22A     -0.703844    23A     -0.702729    24A     -0.684458
      25A     -0.680293    26A     -0.612216    27A     -0.609376
      28A     -0.577259    29A     -0.576090    30A     -0.559379
      31A     -0.548941    32A     -0.526437    33A     -0.523686
      34A     -0.521099    35A     -0.520264    36A     -0.509975
      37A     -0.475653    38A     -0.466044    39A     -0.448179

  @DF-RHF Final Energy:  -532.69513568378613

   => Energetics <=

    Nuclear Repulsion Energy =            540.8266664205234520
    One-Electron Energy =               -1802.0490968882243124
    Two-Electron Energy =                 728.5272947839147264
    Total Energy =                       -532.6951356837861340
  Basis Set: (AUG-CC-PVTZ AUX)
    Blend: AUG-CC-PVTZ-RI
    Molecular point group: c1

    Geometry (in Angstrom), charge = 0, multiplicity = 1:

       Center              X                  Y                   Z               Mass
    ------------   -----------------  -----------------  -----------------  -----------------
         O            1.729993043517    -0.275892502751     0.000069251378    15.994914619570
         O           -1.732469956483     0.278052497249     0.000032251378    15.994914619570
         O            0.556434043517     1.679733497249    -0.000156748622    15.994914619570
         O           -0.558906956483    -1.677571502751    -0.000313748622    15.994914619570
         C            2.956921043517     0.502276497249     0.000111251378    12.000000000000
         C           -2.959398956483    -0.500116502751    -0.000026748622    12.000000000000
         C            4.094921043517    -0.491009502751     0.000275251378    12.000000000000
         C           -4.082330256483     0.480019897249     0.000198251378    12.000000000000
         C            0.610872043517     0.462337497249    -0.000065748622    12.000000000000
         C           -0.613346956483    -0.460176502751    -0.000133748622    12.000000000000
         H            2.961200043517     1.145172497249    -0.884197748622     1.007825032230
         H            2.961057043517     1.145301497249     0.884328251378     1.007825032230
         H           -2.963655956483    -1.142929502751    -0.884395748622     1.007825032230
         H           -2.963556956483    -1.143222502751     0.884130251378     1.007825032230
         H            5.050049043517     0.041598497249     0.000311251378     1.007825032230
         H            4.049160043517    -1.126156502751     0.887056251378     1.007825032230
         H            4.049299043517    -1.126287502751    -0.886418748622     1.007825032230
         H           -5.052526956483    -0.039435502751     0.000164251378     1.007825032230
         H           -4.051657956483     1.128236497249     0.887042251378     1.007825032230
         H           -4.051753956483     1.128531497249    -0.886432748622     1.007825032230

  Basis Set: AUG-CC-PVTZ
    Blend: AUG-CC-PVTZ
  Basis Set: (AUG-CC-PVTZ AUX)
    Blend: AUG-CC-PVTZ-JKFIT
	 Reference Energy          =    -532.6951356837861340 [Eh]
	 Singles Energy            =      -0.0000000000000000 [Eh]
	 Same-Spin Energy          =      -0.5157816100236774 [Eh]
	 Opposite-Spin Energy      =      -1.6267941099214265 [Eh]
	 Correlation Energy        =      -2.1425757199451039 [Eh]
	 Total Energy              =    -534.8377114037311912 [Eh]

	 ================> DF-SCS-MP2 Energies <==================
	-----------------------------------------------------------
	 SCS Same-Spin Scale       =       0.3333333333333333 [-]
	 SCS Opposite-Spin Scale   =       1.2000000000000000 [-]
	 SCS Same-Spin Energy      =      -0.1719272033412258 [Eh]
	 SCS Opposite-Spin Energy  =      -1.9521529319057116 [Eh]
	 SCS Correlation Energy    =      -2.1240801352469374 [Eh]
	 SCS Total Energy          =    -534.8192158190330474 [Eh]
	-----------------------------------------------------------

  Dipole Moment: [D]
     X:    -0.0059      Y:     0.0013      Z:     0.0005     Total:     0.0061

*** Psi4 exiting successfully. Buy a developer a beer!
