                               Psi4 1.4a3.dev225

  ==> Input File <==

--------------------------------------------------------------------------
#psi4
#
memory 32 gb

molecule  {
0 1
  O        1.7312310    -0.2769730     0.0000590
  O       -1.7312320     0.2769720     0.0000220
  O        0.5576720     1.6786530    -0.0001670
  O       -0.5576690    -1.6786520    -0.0003240
  C        2.9581590     0.5011960     0.0001010
  C       -2.9581610    -0.5011970    -0.0000370
  C        4.0961590    -0.4920900     0.0002650
  C       -4.1714984     0.5578491     0.0002061
  C        0.6121100     0.4612570    -0.0000760
  C       -0.6121090    -0.4612570    -0.0001440
  H        2.9624380     1.1440920    -0.8842080
  H        2.9622950     1.1442210     0.8843180
  H       -2.9624180    -1.1440100    -0.8844060
  H       -2.9623190    -1.1443030     0.8841200
  H        5.0512870     0.0405180     0.0003010
  H        4.0503980    -1.1272370     0.8870460
  H        4.0505370    -1.1273680    -0.8864290
  H       -5.0512890    -0.0405160     0.0001540
  H       -4.0504200     1.1271560     0.8870320
  H       -4.0505160     1.1274510    -0.8864430
units angstrom
no_reorient  #important for SAPT in psi4, default
symmetry c1  #important for SAPT in psi4, default
}

set PROPERTIES_ORIGIN ["COM"]
properties('MP2/aug-cc-pvtz', properties = ['dipole'])
--------------------------------------------------------------------------

    Molecular point group: c1
  Charge       = 0
  Multiplicity = 1
  Basis Set: AUG-CC-PVTZ
    Blend: AUG-CC-PVTZ
  Basis Set: (AUG-CC-PVTZ AUX)
    Blend: AUG-CC-PVTZ-JKFIT

    Orbital Energies [Eh]
    ---------------------

    Doubly Occupied:

       1A    -20.619377     2A    -20.619324     3A    -20.571917
       4A    -20.571699     5A    -11.407786     6A    -11.407182
       7A    -11.302395     8A    -11.299470     9A    -11.229816
      10A    -11.228526    11A     -1.486969    12A     -1.458671
      13A     -1.382107    14A     -1.366206    15A     -1.057934
      16A     -1.037018    17A     -0.946819    18A     -0.879583
      19A     -0.832170    20A     -0.785794    21A     -0.744240
      22A     -0.703259    23A     -0.701258    24A     -0.682197
      25A     -0.679324    26A     -0.610483    27A     -0.608541
      28A     -0.582606    29A     -0.582181    30A     -0.564152
      31A     -0.547764    32A     -0.532001    33A     -0.523808
      34A     -0.520781    35A     -0.513879    36A     -0.497888
      37A     -0.476240    38A     -0.466276    39A     -0.447733

  @DF-RHF Final Energy:  -532.68797193388764

   => Energetics <=

    Nuclear Repulsion Energy =            538.9770962890371493
    One-Electron Energy =               -1798.3793821843994465
    Two-Electron Energy =                 726.7143139614745451
    Total Energy =                       -532.6879719338876384
  Basis Set: (AUG-CC-PVTZ AUX)
    Blend: AUG-CC-PVTZ-RI
    Molecular point group: c1

    Geometry (in Angstrom), charge = 0, multiplicity = 1:

       Center              X                  Y                   Z               Mass
    ------------   -----------------  -----------------  -----------------  -----------------
         O            1.737420735786    -0.282375660067     0.000067764297    15.994914619570
         O           -1.725042264214     0.271569339933     0.000030764297    15.994914619570
         O            0.563861735786     1.673250339933    -0.000158235703    15.994914619570
         O           -0.551479264214    -1.684054660067    -0.000315235703    15.994914619570
         C            2.964348735786     0.495793339933     0.000109764297    12.000000000000
         C           -2.951971264214    -0.506599660067    -0.000028235703    12.000000000000
         C            4.102348735786    -0.497492660067     0.000273764297    12.000000000000
         C           -4.165308664214     0.552446439933     0.000214864297    12.000000000000
         C            0.618299735786     0.455854339933    -0.000067235703    12.000000000000
         C           -0.605919264214    -0.466659660067    -0.000135235703    12.000000000000
         H            2.968627735786     1.138689339933    -0.884199235703     1.007825032230
         H            2.968484735786     1.138818339933     0.884326764297     1.007825032230
         H           -2.956228264214    -1.149412660067    -0.884397235703     1.007825032230
         H           -2.956129264214    -1.149705660067     0.884128764297     1.007825032230
         H            5.057476735786     0.035115339933     0.000309764297     1.007825032230
         H            4.056587735786    -1.132639660067     0.887054764297     1.007825032230
         H            4.056726735786    -1.132770660067    -0.886420235703     1.007825032230
         H           -5.045099264214    -0.045918660067     0.000162764297     1.007825032230
         H           -4.044230264214     1.121753339933     0.887040764297     1.007825032230
         H           -4.044326264214     1.122048339933    -0.886434235703     1.007825032230

  Basis Set: AUG-CC-PVTZ
    Blend: AUG-CC-PVTZ
  Basis Set: (AUG-CC-PVTZ AUX)
    Blend: AUG-CC-PVTZ-JKFIT
	 Reference Energy          =    -532.6879719338876384 [Eh]
	 Singles Energy            =      -0.0000000000000000 [Eh]
	 Same-Spin Energy          =      -0.5153190322791338 [Eh]
	 Opposite-Spin Energy      =      -1.6268024077264585 [Eh]
	 Correlation Energy        =      -2.1421214400055923 [Eh]
	 Total Energy              =    -534.8300933738931917 [Eh]

	 ================> DF-SCS-MP2 Energies <==================
	-----------------------------------------------------------
	 SCS Same-Spin Scale       =       0.3333333333333333 [-]
	 SCS Opposite-Spin Scale   =       1.2000000000000000 [-]
	 SCS Same-Spin Energy      =      -0.1717730107597112 [Eh]
	 SCS Opposite-Spin Energy  =      -1.9521628892717500 [Eh]
	 SCS Correlation Energy    =      -2.1239359000314613 [Eh]
	 SCS Total Energy          =    -534.8119078339191219 [Eh]
	-----------------------------------------------------------

  Dipole Moment: [D]
     X:     0.0304      Y:    -0.0098      Z:     0.0005     Total:     0.0319

*** Psi4 exiting successfully. Buy a developer a beer!
