                               Psi4 1.4a3.dev225

  ==> Input File <==

--------------------------------------------------------------------------
#psi4
#
memory 32 gb

molecule  {
0 1
  O        1.7312310    -0.2769730     0.0000590
  O       -1.7312320     0.2769720     0.0000220
  O        0.5576720     1.6786530    -0.0001670
  O       -0.5576690    -1.6786520    -0.0003240
  C        2.9581590     0.5011960     0.0001010
  C       -2.9581610    -0.5011970    -0.0000370
  C        4.0961590    -0.4920900     0.0002650
  C       -4.0961600     0.4920910     0.0001910
  C        0.6121100     0.4612570    -0.0000760
  C       -0.6121090    -0.4612570    -0.0001440
  H        2.9624380     1.1440920    -0.8842080
  H        2.9622950     1.1442210     0.8843180
  H       -2.9624180    -1.1440100    -0.8844060
  H       -2.9623190    -1.1443030     0.8841200
  H        5.0512870     0.0405180     0.0003010
  H        4.0495597    -1.1388725     0.9032913
  H        4.0505370    -1.1273680    -0.8864290
  H       -5.0512890    -0.0405160     0.0001540
  H       -4.0504200     1.1271560     0.8870320
  H       -4.0505160     1.1274510    -0.8864430
units angstrom
no_reorient  #important for SAPT in psi4, default
symmetry c1  #important for SAPT in psi4, default
}

set PROPERTIES_ORIGIN ["COM"]
properties('MP2/aug-cc-pvtz', properties = ['dipole'])
--------------------------------------------------------------------------

    Molecular point group: c1
  Charge       = 0
  Multiplicity = 1
  Basis Set: AUG-CC-PVTZ
    Blend: AUG-CC-PVTZ
  Basis Set: (AUG-CC-PVTZ AUX)
    Blend: AUG-CC-PVTZ-JKFIT

    Orbital Energies [Eh]
    ---------------------

    Doubly Occupied:

       1A    -20.619526     2A    -20.619493     3A    -20.572083
       4A    -20.572061     5A    -11.408026     6A    -11.407457
       7A    -11.299763     8A    -11.299548     9A    -11.232266
      10A    -11.229879    11A     -1.487444    12A     -1.459265
      13A     -1.382537    14A     -1.366789    15A     -1.061617
      16A     -1.047361    17A     -0.945619    18A     -0.874771
      19A     -0.831018    20A     -0.787265    21A     -0.745095
      22A     -0.703751    23A     -0.702373    24A     -0.683914
      25A     -0.680116    26A     -0.611172    27A     -0.608849
      28A     -0.577392    29A     -0.575737    30A     -0.560090
      31A     -0.547860    32A     -0.524076    33A     -0.523523
      34A     -0.521644    35A     -0.520412    36A     -0.510747
      37A     -0.475799    38A     -0.466131    39A     -0.448189

  @DF-RHF Final Energy:  -532.69522515819381

   => Energetics <=

    Nuclear Repulsion Energy =            540.4284820029190541
    One-Electron Energy =               -1801.2660978644689749
    Two-Electron Energy =                 728.1423907033561136
    Total Energy =                       -532.6952251581938071
  Basis Set: (AUG-CC-PVTZ AUX)
    Blend: AUG-CC-PVTZ-RI
    Molecular point group: c1

    Geometry (in Angstrom), charge = 0, multiplicity = 1:

       Center              X                  Y                   Z               Mass
    ------------   -----------------  -----------------  -----------------  -----------------
         O            1.731236778014    -0.276892740622    -0.000043090502    15.994914619570
         O           -1.731226221986     0.277052259378    -0.000080090502    15.994914619570
         O            0.557677778014     1.678733259378    -0.000269090502    15.994914619570
         O           -0.557663221986    -1.678571740622    -0.000426090502    15.994914619570
         C            2.958164778014     0.501276259378    -0.000001090502    12.000000000000
         C           -2.958155221986    -0.501116740622    -0.000139090502    12.000000000000
         C            4.096164778014    -0.492009740622     0.000162909498    12.000000000000
         C           -4.096154221986     0.492171259378     0.000088909498    12.000000000000
         C            0.612115778014     0.461337259378    -0.000178090502    12.000000000000
         C           -0.612103221986    -0.461176740622    -0.000246090502    12.000000000000
         H            2.962443778014     1.144172259378    -0.884310090502     1.007825032230
         H            2.962300778014     1.144301259378     0.884215909498     1.007825032230
         H           -2.962412221986    -1.143929740622    -0.884508090502     1.007825032230
         H           -2.962313221986    -1.144222740622     0.884017909498     1.007825032230
         H            5.051292778014     0.040598259378     0.000198909498     1.007825032230
         H            4.049565478014    -1.138792240622     0.903189209498     1.007825032230
         H            4.050542778014    -1.127287740622    -0.886531090502     1.007825032230
         H           -5.051283221986    -0.040435740622     0.000051909498     1.007825032230
         H           -4.050414221986     1.127236259378     0.886929909498     1.007825032230
         H           -4.050510221986     1.127531259378    -0.886545090502     1.007825032230

  Basis Set: AUG-CC-PVTZ
    Blend: AUG-CC-PVTZ
  Basis Set: (AUG-CC-PVTZ AUX)
    Blend: AUG-CC-PVTZ-JKFIT
	 Reference Energy          =    -532.6952251581938071 [Eh]
	 Singles Energy            =      -0.0000000000000000 [Eh]
	 Same-Spin Energy          =      -0.5156275891383864 [Eh]
	 Opposite-Spin Energy      =      -1.6267898715491629 [Eh]
	 Correlation Energy        =      -2.1424174606875495 [Eh]
	 Total Energy              =    -534.8376426188813184 [Eh]

	 ================> DF-SCS-MP2 Energies <==================
	-----------------------------------------------------------
	 SCS Same-Spin Scale       =       0.3333333333333333 [-]
	 SCS Opposite-Spin Scale   =       1.2000000000000000 [-]
	 SCS Same-Spin Energy      =      -0.1718758630461288 [Eh]
	 SCS Opposite-Spin Energy  =      -1.9521478458589954 [Eh]
	 SCS Correlation Energy    =      -2.1240237089051242 [Eh]
	 SCS Total Energy          =    -534.8192488670989633 [Eh]
	-----------------------------------------------------------

  Dipole Moment: [D]
     X:    -0.0029      Y:     0.0057      Z:    -0.0062     Total:     0.0089

*** Psi4 exiting successfully. Buy a developer a beer!
