                               Psi4 1.4a3.dev225

  ==> Input File <==

--------------------------------------------------------------------------
#psi4
#
memory 32 gb

molecule  {
0 1
  O        1.7312310    -0.2769730     0.0000590
  O       -1.7312320     0.2769720     0.0000220
  O        0.5576720     1.6786530    -0.0001670
  O       -0.5576690    -1.6786520    -0.0003240
  C        2.9581590     0.5011960     0.0001010
  C       -2.9581610    -0.5011970    -0.0000370
  C        4.0961590    -0.4920900     0.0002650
  C       -4.0961600     0.4920910     0.0001910
  C        0.6121100     0.4612570    -0.0000760
  C       -0.6121090    -0.4612570    -0.0001440
  H        2.9624380     1.1440920    -0.8842080
  H        2.9622950     1.1442210     0.8843180
  H       -2.9624180    -1.1440100    -0.8844060
  H       -2.9623190    -1.1443030     0.8841200
  H        5.0512870     0.0405180     0.0003010
  H        4.0503980    -1.1272370     0.8870460
  H        4.0505370    -1.1273680    -0.8864290
  H       -5.0076196    -0.0161647     0.0001557
  H       -4.0504200     1.1271560     0.8870320
  H       -4.0505160     1.1274510    -0.8864430
units angstrom
no_reorient  #important for SAPT in psi4, default
symmetry c1  #important for SAPT in psi4, default
}

set PROPERTIES_ORIGIN ["COM"]
properties('MP2/aug-cc-pvtz', properties = ['dipole'])
--------------------------------------------------------------------------

    Molecular point group: c1
  Charge       = 0
  Multiplicity = 1
  Basis Set: AUG-CC-PVTZ
    Blend: AUG-CC-PVTZ
  Basis Set: (AUG-CC-PVTZ AUX)
    Blend: AUG-CC-PVTZ-JKFIT

    Orbital Energies [Eh]
    ---------------------

    Doubly Occupied:

       1A    -20.619348     2A    -20.619153     3A    -20.571888
       4A    -20.571824     5A    -11.407786     6A    -11.407210
       7A    -11.299440     8A    -11.299133     9A    -11.229796
      10A    -11.223669    11A     -1.487198    12A     -1.459010
      13A     -1.382311    14A     -1.366554    15A     -1.062514
      16A     -1.048676    17A     -0.947364    18A     -0.877380
      19A     -0.831878    20A     -0.787112    21A     -0.745473
      22A     -0.703581    23A     -0.702202    24A     -0.683808
      25A     -0.680077    26A     -0.611055    27A     -0.609134
      28A     -0.578814    29A     -0.577562    30A     -0.565460
      31A     -0.549713    32A     -0.523851    33A     -0.523380
      34A     -0.522355    35A     -0.520503    36A     -0.511074
      37A     -0.475654    38A     -0.465953    39A     -0.448074

  @DF-RHF Final Energy:  -532.69468242139942

   => Energetics <=

    Nuclear Repulsion Energy =            540.7423099609417250
    One-Electron Energy =               -1801.8800515359675956
    Two-Electron Energy =                 728.4430591536263364
    Total Energy =                       -532.6946824213994205
  Basis Set: (AUG-CC-PVTZ AUX)
    Blend: AUG-CC-PVTZ-RI
    Molecular point group: c1

    Geometry (in Angstrom), charge = 0, multiplicity = 1:

       Center              X                  Y                   Z               Mass
    ------------   -----------------  -----------------  -----------------  -----------------
         O            1.730929667125    -0.277141055816     0.000068993170    15.994914619570
         O           -1.731533332875     0.276803944184     0.000031993170    15.994914619570
         O            0.557370667125     1.678484944184    -0.000157006830    15.994914619570
         O           -0.557970332875    -1.678820055816    -0.000314006830    15.994914619570
         C            2.957857667125     0.501027944184     0.000110993170    12.000000000000
         C           -2.958462332875    -0.501365055816    -0.000027006830    12.000000000000
         C            4.095857667125    -0.492258055816     0.000274993170    12.000000000000
         C           -4.096461332875     0.491922944184     0.000200993170    12.000000000000
         C            0.611808667125     0.461088944184    -0.000066006830    12.000000000000
         C           -0.612410332875    -0.461425055816    -0.000134006830    12.000000000000
         H            2.962136667125     1.143923944184    -0.884198006830     1.007825032230
         H            2.961993667125     1.144052944184     0.884327993170     1.007825032230
         H           -2.962719332875    -1.144178055816    -0.884396006830     1.007825032230
         H           -2.962620332875    -1.144471055816     0.884129993170     1.007825032230
         H            5.050985667125     0.040349944184     0.000310993170     1.007825032230
         H            4.050096667125    -1.127405055816     0.887055993170     1.007825032230
         H            4.050235667125    -1.127536055816    -0.886419006830     1.007825032230
         H           -5.007920932875    -0.016332755816     0.000165693170     1.007825032230
         H           -4.050721332875     1.126987944184     0.887041993170     1.007825032230
         H           -4.050817332875     1.127282944184    -0.886433006830     1.007825032230

  Basis Set: AUG-CC-PVTZ
    Blend: AUG-CC-PVTZ
  Basis Set: (AUG-CC-PVTZ AUX)
    Blend: AUG-CC-PVTZ-JKFIT
	 Reference Energy          =    -532.6946824213994205 [Eh]
	 Singles Energy            =      -0.0000000000000000 [Eh]
	 Same-Spin Energy          =      -0.5156753769526513 [Eh]
	 Opposite-Spin Energy      =      -1.6264298269531243 [Eh]
	 Correlation Energy        =      -2.1421052039057757 [Eh]
	 Total Energy              =    -534.8367876253051918 [Eh]

	 ================> DF-SCS-MP2 Energies <==================
	-----------------------------------------------------------
	 SCS Same-Spin Scale       =       0.3333333333333333 [-]
	 SCS Opposite-Spin Scale   =       1.2000000000000000 [-]
	 SCS Same-Spin Energy      =      -0.1718917923175504 [Eh]
	 SCS Opposite-Spin Energy  =      -1.9517157923437491 [Eh]
	 SCS Correlation Energy    =      -2.1236075846612996 [Eh]
	 SCS Total Energy          =    -534.8182900060606926 [Eh]
	-----------------------------------------------------------

  Dipole Moment: [D]
     X:    -0.0250      Y:    -0.0068      Z:     0.0005     Total:     0.0259

*** Psi4 exiting successfully. Buy a developer a beer!
