                               Psi4 1.4a3.dev225

  ==> Input File <==

--------------------------------------------------------------------------
#psi4
#
memory 32 gb

molecule  {
0 1
  O        1.7312310    -0.2769730     0.0000590
  O       -1.7312320     0.2769720     0.0000220
  O        0.5576720     1.6786530    -0.0001670
  O       -0.5576690    -1.6786520    -0.0003240
  C        2.9581590     0.5011960     0.0001010
  C       -2.9581610    -0.5011970    -0.0000370
  C        4.0961590    -0.4920900     0.0002650
  C       -4.0961600     0.4920910     0.0001910
  C        0.6121100     0.4612570    -0.0000760
  C       -0.6121090    -0.4612570    -0.0001440
  H        2.9624380     1.1440920    -0.8842080
  H        2.9622950     1.1442210     0.8843180
  H       -2.9624180    -1.1440100    -0.8844060
  H       -2.9623190    -1.1443030     0.8841200
  H        5.0512870     0.0405180     0.0003010
  H        4.0503980    -1.1272370     0.8870460
  H        4.0505370    -1.1273680    -0.8864290
  H       -5.0949584    -0.0648673     0.0001523
  H       -4.0504200     1.1271560     0.8870320
  H       -4.0505160     1.1274510    -0.8864430
units angstrom
no_reorient  #important for SAPT in psi4, default
symmetry c1  #important for SAPT in psi4, default
}

set PROPERTIES_ORIGIN ["COM"]
properties('MP2/aug-cc-pvtz', properties = ['dipole'])
--------------------------------------------------------------------------

    Molecular point group: c1
  Charge       = 0
  Multiplicity = 1
  Basis Set: AUG-CC-PVTZ
    Blend: AUG-CC-PVTZ
  Basis Set: (AUG-CC-PVTZ AUX)
    Blend: AUG-CC-PVTZ-JKFIT

    Orbital Energies [Eh]
    ---------------------

    Doubly Occupied:

       1A    -20.619863     2A    -20.619636     3A    -20.572309
       4A    -20.572235     5A    -11.408258     6A    -11.407680
       7A    -11.300006     8A    -11.299654     9A    -11.235928
      10A    -11.229960    11A     -1.487669    12A     -1.459497
      13A     -1.382747    14A     -1.367007    15A     -1.061441
      16A     -1.046914    17A     -0.944957    18A     -0.873776
      19A     -0.830979    20A     -0.787430    21A     -0.744831
      22A     -0.703927    23A     -0.702680    24A     -0.684306
      25A     -0.680203    26A     -0.611588    27A     -0.609699
      28A     -0.578219    29A     -0.575429    30A     -0.556314
      31A     -0.543105    32A     -0.524438    33A     -0.523578
      34A     -0.523011    35A     -0.520217    36A     -0.511605
      37A     -0.476079    38A     -0.466379    39A     -0.448268

  @DF-RHF Final Energy:  -532.69365789438996

   => Energetics <=

    Nuclear Repulsion Energy =            540.2891926798945406
    One-Electron Energy =               -1800.9820583305920536
    Two-Electron Energy =                 727.9992077563075554
    Total Energy =                       -532.6936578943899576
  Basis Set: (AUG-CC-PVTZ AUX)
    Blend: AUG-CC-PVTZ-RI
    Molecular point group: c1

    Geometry (in Angstrom), charge = 0, multiplicity = 1:

       Center              X                  Y                   Z               Mass
    ------------   -----------------  -----------------  -----------------  -----------------
         O            1.731532320071    -0.276804999386     0.000069016631    15.994914619570
         O           -1.730930679929     0.277140000614     0.000032016631    15.994914619570
         O            0.557973320071     1.678821000614    -0.000156983369    15.994914619570
         O           -0.557367679929    -1.678483999386    -0.000313983369    15.994914619570
         C            2.958460320071     0.501364000614     0.000111016631    12.000000000000
         C           -2.957859679929    -0.501028999386    -0.000026983369    12.000000000000
         C            4.096460320071    -0.491921999386     0.000275016631    12.000000000000
         C           -4.095858679929     0.492259000614     0.000201016631    12.000000000000
         C            0.612411320071     0.461425000614    -0.000065983369    12.000000000000
         C           -0.611807679929    -0.461088999386    -0.000133983369    12.000000000000
         H            2.962739320071     1.144260000614    -0.884197983369     1.007825032230
         H            2.962596320071     1.144389000614     0.884328016631     1.007825032230
         H           -2.962116679929    -1.143841999386    -0.884395983369     1.007825032230
         H           -2.962017679929    -1.144134999386     0.884130016631     1.007825032230
         H            5.051588320071     0.040686000614     0.000311016631     1.007825032230
         H            4.050699320071    -1.127068999386     0.887056016631     1.007825032230
         H            4.050838320071    -1.127199999386    -0.886418983369     1.007825032230
         H           -5.094657079929    -0.064699299386     0.000162316631     1.007825032230
         H           -4.050118679929     1.127324000614     0.887042016631     1.007825032230
         H           -4.050214679929     1.127619000614    -0.886432983369     1.007825032230

  Basis Set: AUG-CC-PVTZ
    Blend: AUG-CC-PVTZ
  Basis Set: (AUG-CC-PVTZ AUX)
    Blend: AUG-CC-PVTZ-JKFIT
	 Reference Energy          =    -532.6936578943899576 [Eh]
	 Singles Energy            =      -0.0000000000000000 [Eh]
	 Same-Spin Energy          =      -0.5156044080672704 [Eh]
	 Opposite-Spin Energy      =      -1.6269733812667995 [Eh]
	 Correlation Energy        =      -2.1425777893340698 [Eh]
	 Total Energy              =    -534.8362356837239986 [Eh]

	 ================> DF-SCS-MP2 Energies <==================
	-----------------------------------------------------------
	 SCS Same-Spin Scale       =       0.3333333333333333 [-]
	 SCS Opposite-Spin Scale   =       1.2000000000000000 [-]
	 SCS Same-Spin Energy      =      -0.1718681360224235 [Eh]
	 SCS Opposite-Spin Energy  =      -1.9523680575201592 [Eh]
	 SCS Correlation Energy    =      -2.1242361935425826 [Eh]
	 SCS Total Energy          =    -534.8178940879325864 [Eh]
	-----------------------------------------------------------

  Dipole Moment: [D]
     X:     0.0288      Y:     0.0078      Z:     0.0005     Total:     0.0298

*** Psi4 exiting successfully. Buy a developer a beer!
