                               Psi4 1.4a3.dev225

  ==> Input File <==

--------------------------------------------------------------------------
#psi4
#
memory 32 gb

molecule  {
0 1
  O        1.7312310    -0.2769730     0.0000590
  O       -1.7312320     0.2769720     0.0000220
  O        0.5576720     1.6786530    -0.0001670
  O       -0.5576690    -1.6786520    -0.0003240
  C        2.9581590     0.5011960     0.0001010
  C       -2.9581610    -0.5011970    -0.0000370
  C        4.0961590    -0.4920900     0.0002650
  C       -4.0961600     0.4920910     0.0001910
  C        0.6121100     0.4612570    -0.0000760
  C       -0.6121090    -0.4612570    -0.0001440
  H        2.9624380     1.1440920    -0.8842080
  H        2.9622950     1.1442210     0.8843180
  H       -2.9624180    -1.1440100    -0.8844060
  H       -2.9623190    -1.1443030     0.8841200
  H        5.0512870     0.0405180     0.0003010
  H        4.0503980    -1.1272370     0.8870460
  H        4.0505370    -1.1273680    -0.8864290
  H       -5.0747141     0.0137865     0.0981616
  H       -4.0504200     1.1271560     0.8870320
  H       -4.0505160     1.1274510    -0.8864430
units angstrom
no_reorient  #important for SAPT in psi4, default
symmetry c1  #important for SAPT in psi4, default
}

set PROPERTIES_ORIGIN ["COM"]
properties('MP2/aug-cc-pvtz', properties = ['dipole'])
--------------------------------------------------------------------------

    Molecular point group: c1
  Charge       = 0
  Multiplicity = 1
  Basis Set: AUG-CC-PVTZ
    Blend: AUG-CC-PVTZ
  Basis Set: (AUG-CC-PVTZ AUX)
    Blend: AUG-CC-PVTZ-JKFIT

    Orbital Energies [Eh]
    ---------------------

    Doubly Occupied:

       1A    -20.619944     2A    -20.619568     3A    -20.572216
       4A    -20.572142     5A    -11.408208     6A    -11.407626
       7A    -11.300197     8A    -11.299595     9A    -11.229910
      10A    -11.229640    11A     -1.487597    12A     -1.459426
      13A     -1.382659    14A     -1.366921    15A     -1.061688
      16A     -1.047449    17A     -0.946127    18A     -0.876099
      19A     -0.831935    20A     -0.787272    21A     -0.745442
      22A     -0.703805    23A     -0.702593    24A     -0.684235
      25A     -0.680059    26A     -0.611396    27A     -0.609864
      28A     -0.579469    29A     -0.574424    30A     -0.559466
      31A     -0.549394    32A     -0.524057    33A     -0.523445
      34A     -0.521940    35A     -0.519425    36A     -0.510913
      37A     -0.475946    38A     -0.466270    39A     -0.448347

  @DF-RHF Final Energy:  -532.69449695462993

   => Energetics <=

    Nuclear Repulsion Energy =            540.4552727174375377
    One-Electron Energy =               -1801.3061236850776368
    Two-Electron Energy =                 728.1563540130101728
    Total Energy =                       -532.6944969546299262
  Basis Set: (AUG-CC-PVTZ AUX)
    Blend: AUG-CC-PVTZ-RI
    Molecular point group: c1

    Geometry (in Angstrom), charge = 0, multiplicity = 1:

       Center              X                  Y                   Z               Mass
    ------------   -----------------  -----------------  -----------------  -----------------
         O            1.731392630872    -0.277347724317    -0.000607264625    15.994914619570
         O           -1.731070369128     0.276597275683    -0.000644264625    15.994914619570
         O            0.557833630872     1.678278275683    -0.000833264625    15.994914619570
         O           -0.557507369128    -1.679026724317    -0.000990264625    15.994914619570
         C            2.958320630872     0.500821275683    -0.000565264625    12.000000000000
         C           -2.957999369128    -0.501571724317    -0.000703264625    12.000000000000
         C            4.096320630872    -0.492464724317    -0.000401264625    12.000000000000
         C           -4.095998369128     0.491716275683    -0.000475264625    12.000000000000
         C            0.612271630872     0.460882275683    -0.000742264625    12.000000000000
         C           -0.611947369128    -0.461631724317    -0.000810264625    12.000000000000
         H            2.962599630872     1.143717275683    -0.884874264625     1.007825032230
         H            2.962456630872     1.143846275683     0.883651735375     1.007825032230
         H           -2.962256369128    -1.144384724317    -0.885072264625     1.007825032230
         H           -2.962157369128    -1.144677724317     0.883453735375     1.007825032230
         H            5.051448630872     0.040143275683    -0.000365264625     1.007825032230
         H            4.050559630872    -1.127611724317     0.886379735375     1.007825032230
         H            4.050698630872    -1.127742724317    -0.887095264625     1.007825032230
         H           -5.074552469128     0.013411775683     0.097495335375     1.007825032230
         H           -4.050258369128     1.126781275683     0.886365735375     1.007825032230
         H           -4.050354369128     1.127076275683    -0.887109264625     1.007825032230

  Basis Set: AUG-CC-PVTZ
    Blend: AUG-CC-PVTZ
  Basis Set: (AUG-CC-PVTZ AUX)
    Blend: AUG-CC-PVTZ-JKFIT
	 Reference Energy          =    -532.6944969546299262 [Eh]
	 Singles Energy            =      -0.0000000000000000 [Eh]
	 Same-Spin Energy          =      -0.5156808597116758 [Eh]
	 Opposite-Spin Energy      =      -1.6267076549305290 [Eh]
	 Correlation Energy        =      -2.1423885146422048 [Eh]
	 Total Energy              =    -534.8368854692721470 [Eh]

	 ================> DF-SCS-MP2 Energies <==================
	-----------------------------------------------------------
	 SCS Same-Spin Scale       =       0.3333333333333333 [-]
	 SCS Opposite-Spin Scale   =       1.2000000000000000 [-]
	 SCS Same-Spin Energy      =      -0.1718936199038919 [Eh]
	 SCS Opposite-Spin Energy  =      -1.9520491859166347 [Eh]
	 SCS Correlation Energy    =      -2.1239428058205267 [Eh]
	 SCS Total Energy          =    -534.8184397604504738 [Eh]
	-----------------------------------------------------------

  Dipole Moment: [D]
     X:    -0.0033      Y:     0.0114      Z:     0.0404     Total:     0.0421

*** Psi4 exiting successfully. Buy a developer a beer!
