                               Psi4 1.4a3.dev225

  ==> Input File <==

--------------------------------------------------------------------------
#psi4
#
memory 32 gb

molecule  {
0 1
  O        1.7312310    -0.2769730     0.0000590
  O       -1.7312320     0.2769720     0.0000220
  O        0.5576720     1.6786530    -0.0001670
  O       -0.5576690    -1.6786520    -0.0003240
  C        2.9581590     0.5011960     0.0001010
  C       -2.9581610    -0.5011970    -0.0000370
  C        4.0961590    -0.4920900     0.0002650
  C       -4.0961600     0.4920910     0.0001910
  C        0.6121100     0.4612570    -0.0000760
  C       -0.6121090    -0.4612570    -0.0001440
  H        2.9624380     1.1440920    -0.8842080
  H        2.9622950     1.1442210     0.8843180
  H       -2.9624180    -1.1440100    -0.8844060
  H       -2.9623190    -1.1443030     0.8841200
  H        5.0512870     0.0405180     0.0003010
  H        4.0503980    -1.1272370     0.8870460
  H        4.0421793    -1.2437475    -1.0488666
  H       -5.0512890    -0.0405160     0.0001540
  H       -4.0504200     1.1271560     0.8870320
  H       -4.0505160     1.1274510    -0.8864430
units angstrom
no_reorient  #important for SAPT in psi4, default
symmetry c1  #important for SAPT in psi4, default
}

set PROPERTIES_ORIGIN ["COM"]
properties('MP2/aug-cc-pvtz', properties = ['dipole'])
--------------------------------------------------------------------------

    Molecular point group: c1
  Charge       = 0
  Multiplicity = 1
  Basis Set: AUG-CC-PVTZ
    Blend: AUG-CC-PVTZ
  Basis Set: (AUG-CC-PVTZ AUX)
    Blend: AUG-CC-PVTZ-JKFIT

    Orbital Energies [Eh]
    ---------------------

    Doubly Occupied:

       1A    -20.620134     2A    -20.619652     3A    -20.572536
       4A    -20.572220     5A    -11.408381     6A    -11.407753
       7A    -11.302265     8A    -11.299657     9A    -11.252493
      10A    -11.229975    11A     -1.487804    12A     -1.459636
      13A     -1.382861    14A     -1.367121    15A     -1.060850
      16A     -1.045621    17A     -0.943506    18A     -0.870946
      19A     -0.828586    20A     -0.787540    21A     -0.745259
      22A     -0.704055    23A     -0.702206    24A     -0.683435
      25A     -0.680196    26A     -0.611758    27A     -0.605519
      28A     -0.578200    29A     -0.569486    30A     -0.559375
      31A     -0.549136    32A     -0.525729    33A     -0.523922
      34A     -0.520979    35A     -0.516024    36A     -0.495093
      37A     -0.474354    38A     -0.465357    39A     -0.448441

  @DF-RHF Final Energy:  -532.67564690785207

   => Energetics <=

    Nuclear Repulsion Energy =            539.7822207127690035
    One-Electron Energy =               -1799.9596124599249833
    Two-Electron Energy =                 727.5017448393039103
    Total Energy =                       -532.6756469078520695
  Basis Set: (AUG-CC-PVTZ AUX)
    Blend: AUG-CC-PVTZ-RI
    Molecular point group: c1

    Geometry (in Angstrom), charge = 0, multiplicity = 1:

       Center              X                  Y                   Z               Mass
    ------------   -----------------  -----------------  -----------------  -----------------
         O            1.731288663185    -0.276169988763     0.001189852657    15.994914619570
         O           -1.731174336815     0.277775011237     0.001152852657    15.994914619570
         O            0.557729663185     1.679456011237     0.000963852657    15.994914619570
         O           -0.557611336815    -1.677848988763     0.000806852657    15.994914619570
         C            2.958216663185     0.501999011237     0.001231852657    12.000000000000
         C           -2.958103336815    -0.500393988763     0.001093852657    12.000000000000
         C            4.096216663185    -0.491286988763     0.001395852657    12.000000000000
         C           -4.096102336815     0.492894011237     0.001321852657    12.000000000000
         C            0.612167663185     0.462060011237     0.001054852657    12.000000000000
         C           -0.612051336815    -0.460453988763     0.000986852657    12.000000000000
         H            2.962495663185     1.144895011237    -0.883077147343     1.007825032230
         H            2.962352663185     1.145024011237     0.885448852657     1.007825032230
         H           -2.962360336815    -1.143206988763    -0.883275147343     1.007825032230
         H           -2.962261336815    -1.143499988763     0.885250852657     1.007825032230
         H            5.051344663185     0.041321011237     0.001431852657     1.007825032230
         H            4.050455663185    -1.126433988763     0.888176852657     1.007825032230
         H            4.042236963185    -1.242944488763    -1.047735747343     1.007825032230
         H           -5.051231336815    -0.039712988763     0.001284852657     1.007825032230
         H           -4.050362336815     1.127959011237     0.888162852657     1.007825032230
         H           -4.050458336815     1.128254011237    -0.885312147343     1.007825032230

  Basis Set: AUG-CC-PVTZ
    Blend: AUG-CC-PVTZ
  Basis Set: (AUG-CC-PVTZ AUX)
    Blend: AUG-CC-PVTZ-JKFIT
	 Reference Energy          =    -532.6756469078520695 [Eh]
	 Singles Energy            =      -0.0000000000000000 [Eh]
	 Same-Spin Energy          =      -0.5155494887715680 [Eh]
	 Opposite-Spin Energy      =      -1.6281566355028410 [Eh]
	 Correlation Energy        =      -2.1437061242744089 [Eh]
	 Total Energy              =    -534.8193530321265143 [Eh]

	 ================> DF-SCS-MP2 Energies <==================
	-----------------------------------------------------------
	 SCS Same-Spin Scale       =       0.3333333333333333 [-]
	 SCS Opposite-Spin Scale   =       1.2000000000000000 [-]
	 SCS Same-Spin Energy      =      -0.1718498295905227 [Eh]
	 SCS Opposite-Spin Energy  =      -1.9537879626034091 [Eh]
	 SCS Correlation Energy    =      -2.1256377921939320 [Eh]
	 SCS Total Energy          =    -534.8012847000460397 [Eh]
	-----------------------------------------------------------

  Dipole Moment: [D]
     X:    -0.0352      Y:     0.0720      Z:     0.0844     Total:     0.1164

*** Psi4 exiting successfully. Buy a developer a beer!
