                               Psi4 1.4a3.dev225

  ==> Input File <==

--------------------------------------------------------------------------
#psi4
#
memory 32 gb

molecule  {
0 1
  O        1.7312310    -0.2769730     0.0000590
  O       -1.7312320     0.2769720     0.0000220
  O        0.5576720     1.6786530    -0.0001670
  O       -0.5576690    -1.6786520    -0.0003240
  C        2.9750484     0.5119080     0.0001016
  C       -2.9581610    -0.5011970    -0.0000370
  C        4.0961590    -0.4920900     0.0002650
  C       -4.0961600     0.4920910     0.0001910
  C        0.6121100     0.4612570    -0.0000760
  C       -0.6121090    -0.4612570    -0.0001440
  H        2.9624380     1.1440920    -0.8842080
  H        2.9622950     1.1442210     0.8843180
  H       -2.9624180    -1.1440100    -0.8844060
  H       -2.9623190    -1.1443030     0.8841200
  H        5.0512870     0.0405180     0.0003010
  H        4.0503980    -1.1272370     0.8870460
  H        4.0505370    -1.1273680    -0.8864290
  H       -5.0512890    -0.0405160     0.0001540
  H       -4.0504200     1.1271560     0.8870320
  H       -4.0505160     1.1274510    -0.8864430
units angstrom
no_reorient  #important for SAPT in psi4, default
symmetry c1  #important for SAPT in psi4, default
}

set PROPERTIES_ORIGIN ["COM"]
properties('MP2/aug-cc-pvtz', properties = ['dipole'])
--------------------------------------------------------------------------

    Molecular point group: c1
  Charge       = 0
  Multiplicity = 1
  Basis Set: AUG-CC-PVTZ
    Blend: AUG-CC-PVTZ
  Basis Set: (AUG-CC-PVTZ AUX)
    Blend: AUG-CC-PVTZ-JKFIT

    Orbital Energies [Eh]
    ---------------------

    Doubly Occupied:

       1A    -20.618813     2A    -20.617077     3A    -20.571215
       4A    -20.570496     5A    -11.406919     6A    -11.406132
       7A    -11.300337     8A    -11.299064     9A    -11.230623
      10A    -11.229517    11A     -1.485139    12A     -1.456279
      13A     -1.380834    14A     -1.364464    15A     -1.061983
      16A     -1.048393    17A     -0.944841    18A     -0.874728
      19A     -0.832091    20A     -0.785646    21A     -0.743016
      22A     -0.702505    23A     -0.701274    24A     -0.683426
      25A     -0.678593    26A     -0.610069    27A     -0.609405
      28A     -0.577738    29A     -0.575836    30A     -0.559582
      31A     -0.546506    32A     -0.527127    33A     -0.523202
      34A     -0.522905    35A     -0.519362    36A     -0.511630
      37A     -0.476018    38A     -0.466068    39A     -0.446944

  @DF-RHF Final Energy:  -532.69512617543194

   => Energetics <=

    Nuclear Repulsion Energy =            540.1674271462824208
    One-Electron Energy =               -1800.7935089903196513
    Two-Electron Energy =                 727.9309556686054066
    Total Energy =                       -532.6951261754319376
  Basis Set: (AUG-CC-PVTZ AUX)
    Blend: AUG-CC-PVTZ-RI
    Molecular point group: c1

    Geometry (in Angstrom), charge = 0, multiplicity = 1:

       Center              X                  Y                   Z               Mass
    ------------   -----------------  -----------------  -----------------  -----------------
         O            1.729843374114    -0.277853116882     0.000068955605    15.994914619570
         O           -1.732619625886     0.276091883118     0.000031955605    15.994914619570
         O            0.556284374114     1.677772883118    -0.000157044395    15.994914619570
         O           -0.559056625886    -1.679532116882    -0.000314044395    15.994914619570
         C            2.973660774114     0.511027883118     0.000111555605    12.000000000000
         C           -2.959548625886    -0.502077116882    -0.000027044395    12.000000000000
         C            4.094771374114    -0.492970116882     0.000274955605    12.000000000000
         C           -4.097547625886     0.491210883118     0.000200955605    12.000000000000
         C            0.610722374114     0.460376883118    -0.000066044395    12.000000000000
         C           -0.613496625886    -0.462137116882    -0.000134044395    12.000000000000
         H            2.961050374114     1.143211883118    -0.884198044395     1.007825032230
         H            2.960907374114     1.143340883118     0.884327955605     1.007825032230
         H           -2.963805625886    -1.144890116882    -0.884396044395     1.007825032230
         H           -2.963706625886    -1.145183116882     0.884129955605     1.007825032230
         H            5.049899374114     0.039637883118     0.000310955605     1.007825032230
         H            4.049010374114    -1.128117116882     0.887055955605     1.007825032230
         H            4.049149374114    -1.128248116882    -0.886419044395     1.007825032230
         H           -5.052676625886    -0.041396116882     0.000163955605     1.007825032230
         H           -4.051807625886     1.126275883118     0.887041955605     1.007825032230
         H           -4.051903625886     1.126570883118    -0.886433044395     1.007825032230

  Basis Set: AUG-CC-PVTZ
    Blend: AUG-CC-PVTZ
  Basis Set: (AUG-CC-PVTZ AUX)
    Blend: AUG-CC-PVTZ-JKFIT
	 Reference Energy          =    -532.6951261754319376 [Eh]
	 Singles Energy            =      -0.0000000000000000 [Eh]
	 Same-Spin Energy          =      -0.5156793103904851 [Eh]
	 Opposite-Spin Energy      =      -1.6268782491458569 [Eh]
	 Correlation Energy        =      -2.1425575595363417 [Eh]
	 Total Energy              =    -534.8376837349683228 [Eh]

	 ================> DF-SCS-MP2 Energies <==================
	-----------------------------------------------------------
	 SCS Same-Spin Scale       =       0.3333333333333333 [-]
	 SCS Opposite-Spin Scale   =       1.2000000000000000 [-]
	 SCS Same-Spin Energy      =      -0.1718931034634950 [Eh]
	 SCS Opposite-Spin Energy  =      -1.9522538989750282 [Eh]
	 SCS Correlation Energy    =      -2.1241470024385234 [Eh]
	 SCS Total Energy          =    -534.8192731778705138 [Eh]
	-----------------------------------------------------------

  Dipole Moment: [D]
     X:     0.0945      Y:     0.0127      Z:     0.0005     Total:     0.0953

*** Psi4 exiting successfully. Buy a developer a beer!
