                               Psi4 1.4a3.dev225

  ==> Input File <==

--------------------------------------------------------------------------
#psi4
#
memory 32 gb

molecule  {
0 1
  O        1.7312310    -0.2769730     0.0000590
  O       -1.7312320     0.2769720     0.0000220
  O        0.5576720     1.6786530    -0.0001670
  O       -0.5576690    -1.6786520    -0.0003240
  C        2.9581590     0.5011960     0.0001010
  C       -2.9581610    -0.5011970    -0.0000370
  C        4.0961590    -0.4920900     0.0002650
  C       -4.0961600     0.4920910     0.0001910
  C        0.6121100     0.4612570    -0.0000760
  C       -0.6121090    -0.4612570    -0.0001440
  H        2.9624380     1.1440920    -0.8842080
  H        2.9622950     1.1442210     0.8843180
  H       -2.9624180    -1.1440100    -0.8844060
  H       -2.9623190    -1.1443030     0.8841200
  H        5.0512870     0.0405180     0.0003010
  H        4.0587812    -1.0108815     0.7245925
  H        4.0505370    -1.1273680    -0.8864290
  H       -5.0512890    -0.0405160     0.0001540
  H       -4.0504200     1.1271560     0.8870320
  H       -4.0505160     1.1274510    -0.8864430
units angstrom
no_reorient  #important for SAPT in psi4, default
symmetry c1  #important for SAPT in psi4, default
}

set PROPERTIES_ORIGIN ["COM"]
properties('MP2/aug-cc-pvtz', properties = ['dipole'])
--------------------------------------------------------------------------

    Molecular point group: c1
  Charge       = 0
  Multiplicity = 1
  Basis Set: AUG-CC-PVTZ
    Blend: AUG-CC-PVTZ
  Basis Set: (AUG-CC-PVTZ AUX)
    Blend: AUG-CC-PVTZ-JKFIT

    Orbital Energies [Eh]
    ---------------------

    Doubly Occupied:

       1A    -20.619420     2A    -20.619250     3A    -20.571997
       4A    -20.571865     5A    -11.407882     6A    -11.407303
       7A    -11.299497     8A    -11.297934     9A    -11.229832
      10A    -11.205480    11A     -1.487277    12A     -1.459094
      13A     -1.382393    14A     -1.366647    15A     -1.067973
      16A     -1.052031    17A     -0.952602    18A     -0.884863
      19A     -0.835603    20A     -0.787359    21A     -0.745559
      22A     -0.704283    23A     -0.703036    24A     -0.686224
      25A     -0.680197    26A     -0.623740    27A     -0.610214
      28A     -0.588330    29A     -0.576230    30A     -0.560714
      31A     -0.547206    32A     -0.533656    33A     -0.523792
      34A     -0.522328    35A     -0.520370    36A     -0.512985
      37A     -0.476114    38A     -0.466257    39A     -0.448055

  @DF-RHF Final Energy:  -532.66093375544176

   => Energetics <=

    Nuclear Repulsion Energy =            541.4442092616841364
    One-Electron Energy =               -1803.1391106600856347
    Two-Electron Energy =                 729.0339676429597375
    Total Energy =                       -532.6609337554417607
  Basis Set: (AUG-CC-PVTZ AUX)
    Blend: AUG-CC-PVTZ-RI
    Molecular point group: c1

    Geometry (in Angstrom), charge = 0, multiplicity = 1:

       Center              X                  Y                   Z               Mass
    ------------   -----------------  -----------------  -----------------  -----------------
         O            1.731173148057    -0.277775900834     0.001189962370    15.994914619570
         O           -1.731289851943     0.276169099166     0.001152962370    15.994914619570
         O            0.557614148057     1.677850099166     0.000963962370    15.994914619570
         O           -0.557726851943    -1.679454900834     0.000806962370    15.994914619570
         C            2.958101148057     0.500393099166     0.001231962370    12.000000000000
         C           -2.958218851943    -0.501999900834     0.001093962370    12.000000000000
         C            4.096101148057    -0.492892900834     0.001395962370    12.000000000000
         C           -4.096217851943     0.491288099166     0.001321962370    12.000000000000
         C            0.612052148057     0.460454099166     0.001054962370    12.000000000000
         C           -0.612166851943    -0.462059900834     0.000986962370    12.000000000000
         H            2.962380148057     1.143289099166    -0.883077037630     1.007825032230
         H            2.962237148057     1.143418099166     0.885448962370     1.007825032230
         H           -2.962475851943    -1.144812900834    -0.883275037630     1.007825032230
         H           -2.962376851943    -1.145105900834     0.885250962370     1.007825032230
         H            5.051229148057     0.039715099166     0.001431962370     1.007825032230
         H            4.058723348057    -1.011684400834     0.725723462370     1.007825032230
         H            4.050479148057    -1.128170900834    -0.885298037630     1.007825032230
         H           -5.051346851943    -0.041318900834     0.001284962370     1.007825032230
         H           -4.050477851943     1.126353099166     0.888162962370     1.007825032230
         H           -4.050573851943     1.126648099166    -0.885312037630     1.007825032230

  Basis Set: AUG-CC-PVTZ
    Blend: AUG-CC-PVTZ
  Basis Set: (AUG-CC-PVTZ AUX)
    Blend: AUG-CC-PVTZ-JKFIT
	 Reference Energy          =    -532.6609337554417607 [Eh]
	 Singles Energy            =      -0.0000000000000000 [Eh]
	 Same-Spin Energy          =      -0.5158423053160297 [Eh]
	 Opposite-Spin Energy      =      -1.6261827763436421 [Eh]
	 Correlation Energy        =      -2.1420250816596718 [Eh]
	 Total Energy              =    -534.8029588371014142 [Eh]

	 ================> DF-SCS-MP2 Energies <==================
	-----------------------------------------------------------
	 SCS Same-Spin Scale       =       0.3333333333333333 [-]
	 SCS Opposite-Spin Scale   =       1.2000000000000000 [-]
	 SCS Same-Spin Energy      =      -0.1719474351053432 [Eh]
	 SCS Opposite-Spin Energy  =      -1.9514193316123705 [Eh]
	 SCS Correlation Energy    =      -2.1233667667177136 [Eh]
	 SCS Total Energy          =    -534.7843005221594694 [Eh]
	-----------------------------------------------------------

  Dipole Moment: [D]
     X:     0.0215      Y:    -0.0377      Z:     0.0443     Total:     0.0620

*** Psi4 exiting successfully. Buy a developer a beer!
