                               Psi4 1.4a3.dev225

  ==> Input File <==

--------------------------------------------------------------------------
#psi4
#
memory 32 gb

molecule  {
0 1
  O        1.7312310    -0.2769730     0.0000590
  O       -1.7885031     0.3606627     0.0000390
  O        0.5576720     1.6786530    -0.0001670
  O       -0.5576690    -1.6786520    -0.0003240
  C        2.9581590     0.5011960     0.0001010
  C       -2.9581610    -0.5011970    -0.0000370
  C        4.0961590    -0.4920900     0.0002650
  C       -4.0961600     0.4920910     0.0001910
  C        0.6121100     0.4612570    -0.0000760
  C       -0.6121090    -0.4612570    -0.0001440
  H        2.9624380     1.1440920    -0.8842080
  H        2.9622950     1.1442210     0.8843180
  H       -2.9624180    -1.1440100    -0.8844060
  H       -2.9623190    -1.1443030     0.8841200
  H        5.0512870     0.0405180     0.0003010
  H        4.0503980    -1.1272370     0.8870460
  H        4.0505370    -1.1273680    -0.8864290
  H       -5.0512890    -0.0405160     0.0001540
  H       -4.0504200     1.1271560     0.8870320
  H       -4.0505160     1.1274510    -0.8864430
units angstrom
no_reorient  #important for SAPT in psi4, default
symmetry c1  #important for SAPT in psi4, default
}

set PROPERTIES_ORIGIN ["COM"]
properties('MP2/aug-cc-pvtz', properties = ['dipole'])
--------------------------------------------------------------------------

    Molecular point group: c1
  Charge       = 0
  Multiplicity = 1
  Basis Set: AUG-CC-PVTZ
    Blend: AUG-CC-PVTZ
  Basis Set: (AUG-CC-PVTZ AUX)
    Blend: AUG-CC-PVTZ-JKFIT

    Orbital Energies [Eh]
    ---------------------

    Doubly Occupied:

       1A    -20.622462     2A    -20.616830     3A    -20.591504
       4A    -20.574858     5A    -11.419631     6A    -11.411667
       7A    -11.301639     8A    -11.292385     9A    -11.231634
      10A    -11.223122    11A     -1.483176    12A     -1.445437
      13A     -1.384725    14A     -1.367493    15A     -1.059830
      16A     -1.038251    17A     -0.945271    18A     -0.867092
      19A     -0.834386    20A     -0.786159    21A     -0.733514
      22A     -0.708899    23A     -0.699739    24A     -0.682389
      25A     -0.677624    26A     -0.608586    27A     -0.608159
      28A     -0.579868    29A     -0.572783    30A     -0.558942
      31A     -0.543468    32A     -0.526383    33A     -0.524712
      34A     -0.522988    35A     -0.519721    36A     -0.513746
      37A     -0.477373    38A     -0.468162    39A     -0.450402

  @DF-RHF Final Energy:  -532.67975045652429

   => Energetics <=

    Nuclear Repulsion Energy =            538.3838448453199135
    One-Electron Energy =               -1797.1771732570291533
    Two-Electron Energy =                 726.1135779551850646
    Total Energy =                       -532.6797504565242889
  Basis Set: (AUG-CC-PVTZ AUX)
    Blend: AUG-CC-PVTZ-RI
    Molecular point group: c1

    Geometry (in Angstrom), charge = 0, multiplicity = 1:

       Center              X                  Y                   Z               Mass
    ------------   -----------------  -----------------  -----------------  -----------------
         O            1.737502796078    -0.286138060922     0.000067143217    15.994914619570
         O           -1.782231303922     0.351497639078     0.000047143217    15.994914619570
         O            0.563943796078     1.669487939078    -0.000158856783    15.994914619570
         O           -0.551397203922    -1.687817060922    -0.000315856783    15.994914619570
         C            2.964430796078     0.492030939078     0.000109143217    12.000000000000
         C           -2.951889203922    -0.510362060922    -0.000028856783    12.000000000000
         C            4.102430796078    -0.501255060922     0.000273143217    12.000000000000
         C           -4.089888203922     0.482925939078     0.000199143217    12.000000000000
         C            0.618381796078     0.452091939078    -0.000067856783    12.000000000000
         C           -0.605837203922    -0.470422060922    -0.000135856783    12.000000000000
         H            2.968709796078     1.134926939078    -0.884199856783     1.007825032230
         H            2.968566796078     1.135055939078     0.884326143217     1.007825032230
         H           -2.956146203922    -1.153175060922    -0.884397856783     1.007825032230
         H           -2.956047203922    -1.153468060922     0.884128143217     1.007825032230
         H            5.057558796078     0.031352939078     0.000309143217     1.007825032230
         H            4.056669796078    -1.136402060922     0.887054143217     1.007825032230
         H            4.056808796078    -1.136533060922    -0.886420856783     1.007825032230
         H           -5.045017203922    -0.049681060922     0.000162143217     1.007825032230
         H           -4.044148203922     1.117990939078     0.887040143217     1.007825032230
         H           -4.044244203922     1.118285939078    -0.886434856783     1.007825032230

  Basis Set: AUG-CC-PVTZ
    Blend: AUG-CC-PVTZ
  Basis Set: (AUG-CC-PVTZ AUX)
    Blend: AUG-CC-PVTZ-JKFIT
	 Reference Energy          =    -532.6797504565242889 [Eh]
	 Singles Energy            =      -0.0000000000000000 [Eh]
	 Same-Spin Energy          =      -0.5174529230708984 [Eh]
	 Opposite-Spin Energy      =      -1.6317875823562515 [Eh]
	 Correlation Energy        =      -2.1492405054271497 [Eh]
	 Total Energy              =    -534.8289909619514901 [Eh]

	 ================> DF-SCS-MP2 Energies <==================
	-----------------------------------------------------------
	 SCS Same-Spin Scale       =       0.3333333333333333 [-]
	 SCS Opposite-Spin Scale   =       1.2000000000000000 [-]
	 SCS Same-Spin Energy      =      -0.1724843076902995 [Eh]
	 SCS Opposite-Spin Energy  =      -1.9581450988275018 [Eh]
	 SCS Correlation Energy    =      -2.1306294065178011 [Eh]
	 SCS Total Energy          =    -534.8103798630420442 [Eh]
	-----------------------------------------------------------

  Dipole Moment: [D]
     X:     0.5834      Y:    -0.3104      Z:     0.0004     Total:     0.6608

*** Psi4 exiting successfully. Buy a developer a beer!
