                               Psi4 1.4a3.dev225

  ==> Input File <==

--------------------------------------------------------------------------
#psi4
#
memory 32 gb

molecule  {
0 1
  O        1.7312310    -0.2769730     0.0000590
  O       -1.7312320     0.2769720     0.0000220
  O        0.5576720     1.6786530    -0.0001670
  O       -0.5576690    -1.6786520    -0.0003240
  C        3.0327786     0.3686842     0.0001156
  C       -2.9581610    -0.5011970    -0.0000370
  C        4.0961590    -0.4920900     0.0002650
  C       -4.0961600     0.4920910     0.0001910
  C        0.6121100     0.4612570    -0.0000760
  C       -0.6121090    -0.4612570    -0.0001440
  H        2.9624380     1.1440920    -0.8842080
  H        2.9622950     1.1442210     0.8843180
  H       -2.9624180    -1.1440100    -0.8844060
  H       -2.9623190    -1.1443030     0.8841200
  H        5.0512870     0.0405180     0.0003010
  H        4.0503980    -1.1272370     0.8870460
  H        4.0505370    -1.1273680    -0.8864290
  H       -5.0512890    -0.0405160     0.0001540
  H       -4.0504200     1.1271560     0.8870320
  H       -4.0505160     1.1274510    -0.8864430
units angstrom
no_reorient  #important for SAPT in psi4, default
symmetry c1  #important for SAPT in psi4, default
}

set PROPERTIES_ORIGIN ["COM"]
properties('MP2/aug-cc-pvtz', properties = ['dipole'])
--------------------------------------------------------------------------

    Molecular point group: c1
  Charge       = 0
  Multiplicity = 1
  Basis Set: AUG-CC-PVTZ
    Blend: AUG-CC-PVTZ
  Basis Set: (AUG-CC-PVTZ AUX)
    Blend: AUG-CC-PVTZ-JKFIT

    Orbital Energies [Eh]
    ---------------------

    Doubly Occupied:

       1A    -20.619261     2A    -20.614952     3A    -20.571330
       4A    -20.570738     5A    -11.408629     6A    -11.407718
       7A    -11.309079     8A    -11.299320     9A    -11.229601
      10A    -11.227136    11A     -1.485232    12A     -1.456507
      13A     -1.381453    14A     -1.365712    15A     -1.089513
      16A     -1.054028    17A     -0.951471    18A     -0.874651
      19A     -0.821804    20A     -0.780666    21A     -0.746840
      22A     -0.702076    23A     -0.699416    24A     -0.679288
      25A     -0.678816    26A     -0.621920    27A     -0.612143
      28A     -0.587883    29A     -0.580830    30A     -0.580139
      31A     -0.555019    32A     -0.524004    33A     -0.519364
      34A     -0.518654    35A     -0.514851    36A     -0.501146
      37A     -0.471035    38A     -0.447867    39A     -0.442810

  @DF-RHF Final Energy:  -532.66594458628879

   => Energetics <=

    Nuclear Repulsion Energy =            540.7835413793519592
    One-Electron Energy =               -1801.8931630584681898
    Two-Electron Energy =                 728.4436770928273290
    Total Energy =                       -532.6659445862887878
  Basis Set: (AUG-CC-PVTZ AUX)
    Blend: AUG-CC-PVTZ-RI
    Molecular point group: c1

    Geometry (in Angstrom), charge = 0, multiplicity = 1:

       Center              X                  Y                   Z               Mass
    ------------   -----------------  -----------------  -----------------  -----------------
         O            1.725100307438    -0.266085964976     0.000067805376    15.994914619570
         O           -1.737362692562     0.287859035024     0.000030805376    15.994914619570
         O            0.551541307438     1.689540035024    -0.000158194624    15.994914619570
         O           -0.563799692562    -1.667764964976    -0.000315194624    15.994914619570
         C            3.026647907438     0.379571235024     0.000124405376    12.000000000000
         C           -2.964291692562    -0.490309964976    -0.000028194624    12.000000000000
         C            4.090028307438    -0.481202964976     0.000273805376    12.000000000000
         C           -4.102290692562     0.502978035024     0.000199805376    12.000000000000
         C            0.605979307438     0.472144035024    -0.000067194624    12.000000000000
         C           -0.618239692562    -0.450369964976    -0.000135194624    12.000000000000
         H            2.956307307438     1.154979035024    -0.884199194624     1.007825032230
         H            2.956164307438     1.155108035024     0.884326805376     1.007825032230
         H           -2.968548692562    -1.133122964976    -0.884397194624     1.007825032230
         H           -2.968449692562    -1.133415964976     0.884128805376     1.007825032230
         H            5.045156307438     0.051405035024     0.000309805376     1.007825032230
         H            4.044267307438    -1.116349964976     0.887054805376     1.007825032230
         H            4.044406307438    -1.116480964976    -0.886420194624     1.007825032230
         H           -5.057419692562    -0.029628964976     0.000162805376     1.007825032230
         H           -4.056550692562     1.138043035024     0.887040805376     1.007825032230
         H           -4.056646692562     1.138338035024    -0.886434194624     1.007825032230

  Basis Set: AUG-CC-PVTZ
    Blend: AUG-CC-PVTZ
  Basis Set: (AUG-CC-PVTZ AUX)
    Blend: AUG-CC-PVTZ-JKFIT
	 Reference Energy          =    -532.6659445862887878 [Eh]
	 Singles Energy            =      -0.0000000000000000 [Eh]
	 Same-Spin Energy          =      -0.5173924040679370 [Eh]
	 Opposite-Spin Energy      =      -1.6286058230884231 [Eh]
	 Correlation Energy        =      -2.1459982271563600 [Eh]
	 Total Energy              =    -534.8119428134451709 [Eh]

	 ================> DF-SCS-MP2 Energies <==================
	-----------------------------------------------------------
	 SCS Same-Spin Scale       =       0.3333333333333333 [-]
	 SCS Opposite-Spin Scale   =       1.2000000000000000 [-]
	 SCS Same-Spin Energy      =      -0.1724641346893123 [Eh]
	 SCS Opposite-Spin Energy  =      -1.9543269877061076 [Eh]
	 SCS Correlation Energy    =      -2.1267911223954199 [Eh]
	 SCS Total Energy          =    -534.7927357086841766 [Eh]
	-----------------------------------------------------------

  Dipole Moment: [D]
     X:     0.2514      Y:    -0.2189      Z:     0.0005     Total:     0.3334

*** Psi4 exiting successfully. Buy a developer a beer!
