                               Psi4 1.4a3.dev225

  ==> Input File <==

--------------------------------------------------------------------------
#psi4
#
memory 32 gb

molecule  {
0 1
  O        1.7058948    -0.2304226     0.0865184
  O       -1.7312320     0.2769720     0.0000220
  O        0.5576720     1.6786530    -0.0001670
  O       -0.5576690    -1.6786520    -0.0003240
  C        2.9581590     0.5011960     0.0001010
  C       -2.9581610    -0.5011970    -0.0000370
  C        4.0961590    -0.4920900     0.0002650
  C       -4.0961600     0.4920910     0.0001910
  C        0.6121100     0.4612570    -0.0000760
  C       -0.6121090    -0.4612570    -0.0001440
  H        2.9624380     1.1440920    -0.8842080
  H        2.9622950     1.1442210     0.8843180
  H       -2.9624180    -1.1440100    -0.8844060
  H       -2.9623190    -1.1443030     0.8841200
  H        5.0512870     0.0405180     0.0003010
  H        4.0503980    -1.1272370     0.8870460
  H        4.0505370    -1.1273680    -0.8864290
  H       -5.0512890    -0.0405160     0.0001540
  H       -4.0504200     1.1271560     0.8870320
  H       -4.0505160     1.1274510    -0.8864430
units angstrom
no_reorient  #important for SAPT in psi4, default
symmetry c1  #important for SAPT in psi4, default
}

set PROPERTIES_ORIGIN ["COM"]
properties('MP2/aug-cc-pvtz', properties = ['dipole'])
--------------------------------------------------------------------------

    Molecular point group: c1
  Charge       = 0
  Multiplicity = 1
  Basis Set: AUG-CC-PVTZ
    Blend: AUG-CC-PVTZ
  Basis Set: (AUG-CC-PVTZ AUX)
    Blend: AUG-CC-PVTZ-JKFIT

    Orbital Energies [Eh]
    ---------------------

    Doubly Occupied:

       1A    -20.619897     2A    -20.618147     3A    -20.570959
       4A    -20.561668     5A    -11.406032     6A    -11.401269
       7A    -11.303357     8A    -11.298583     9A    -11.233310
      10A    -11.229046    11A     -1.496078    12A     -1.464443
      13A     -1.379737    14A     -1.364439    15A     -1.065642
      16A     -1.049688    17A     -0.947372    18A     -0.880080
      19A     -0.829948    20A     -0.788607    21A     -0.750277
      22A     -0.706247    23A     -0.701196    24A     -0.685681
      25A     -0.678640    26A     -0.613823    27A     -0.609819
      28A     -0.580639    29A     -0.574505    30A     -0.562798
      31A     -0.550189    32A     -0.523957    33A     -0.522803
      34A     -0.521448    35A     -0.516915    36A     -0.510605
      37A     -0.473897    38A     -0.464126    39A     -0.446022

  @DF-RHF Final Energy:  -532.69668578255857

   => Energetics <=

    Nuclear Repulsion Energy =            541.5423442123718587
    One-Electron Energy =               -1803.4742793559103120
    Two-Electron Energy =                 729.2352493609797648
    Total Energy =                       -532.6966857825585748
  Basis Set: (AUG-CC-PVTZ AUX)
    Blend: AUG-CC-PVTZ-RI
    Molecular point group: c1

    Geometry (in Angstrom), charge = 0, multiplicity = 1:

       Center              X                  Y                   Z               Mass
    ------------   -----------------  -----------------  -----------------  -----------------
         O            1.708669380466    -0.235520397928     0.077060169100    15.994914619570
         O           -1.728457419534     0.271874202072    -0.009436230900    15.994914619570
         O            0.560446580466     1.673555202072    -0.009625230900    15.994914619570
         O           -0.554894419534    -1.683749797928    -0.009782230900    15.994914619570
         C            2.960933580466     0.496098202072    -0.009357230900    12.000000000000
         C           -2.955386419534    -0.506294797928    -0.009495230900    12.000000000000
         C            4.098933580466    -0.497187797928    -0.009193230900    12.000000000000
         C           -4.093385419534     0.486993202072    -0.009267230900    12.000000000000
         C            0.614884580466     0.456159202072    -0.009534230900    12.000000000000
         C           -0.609334419534    -0.466354797928    -0.009602230900    12.000000000000
         H            2.965212580466     1.138994202072    -0.893666230900     1.007825032230
         H            2.965069580466     1.139123202072     0.874859769100     1.007825032230
         H           -2.959643419534    -1.149107797928    -0.893864230900     1.007825032230
         H           -2.959544419534    -1.149400797928     0.874661769100     1.007825032230
         H            5.054061580466     0.035420202072    -0.009157230900     1.007825032230
         H            4.053172580466    -1.132334797928     0.877587769100     1.007825032230
         H            4.053311580466    -1.132465797928    -0.895887230900     1.007825032230
         H           -5.048514419534    -0.045613797928    -0.009304230900     1.007825032230
         H           -4.047645419534     1.122058202072     0.877573769100     1.007825032230
         H           -4.047741419534     1.122353202072    -0.895901230900     1.007825032230

  Basis Set: AUG-CC-PVTZ
    Blend: AUG-CC-PVTZ
  Basis Set: (AUG-CC-PVTZ AUX)
    Blend: AUG-CC-PVTZ-JKFIT
	 Reference Energy          =    -532.6966857825585748 [Eh]
	 Singles Energy            =      -0.0000000000000000 [Eh]
	 Same-Spin Energy          =      -0.5148920892432072 [Eh]
	 Opposite-Spin Energy      =      -1.6244823544487255 [Eh]
	 Correlation Energy        =      -2.1393744436919326 [Eh]
	 Total Energy              =    -534.8360602262505381 [Eh]

	 ================> DF-SCS-MP2 Energies <==================
	-----------------------------------------------------------
	 SCS Same-Spin Scale       =       0.3333333333333333 [-]
	 SCS Opposite-Spin Scale   =       1.2000000000000000 [-]
	 SCS Same-Spin Energy      =      -0.1716306964144024 [Eh]
	 SCS Opposite-Spin Energy  =      -1.9493788253384705 [Eh]
	 SCS Correlation Energy    =      -2.1210095217528728 [Eh]
	 SCS Total Energy          =    -534.8176953043114281 [Eh]
	-----------------------------------------------------------

  Dipole Moment: [D]
     X:     0.2653      Y:    -0.1641      Z:    -0.0904     Total:     0.3247

*** Psi4 exiting successfully. Buy a developer a beer!
