                               Psi4 1.4a3.dev225

  ==> Input File <==

--------------------------------------------------------------------------
#psi4
#
memory 32 gb

molecule  {
0 1
  O        1.7312310    -0.2769730     0.0000590
  O       -1.7312320     0.2769720     0.0000220
  O        0.5576720     1.6786530    -0.0001670
  O       -0.5576690    -1.6786520    -0.0003240
  C        2.9581590     0.5011960     0.0001010
  C       -2.9581610    -0.5011970    -0.0000370
  C        4.0961590    -0.4920900     0.0002650
  C       -4.0961600     0.4920910     0.0001910
  C        0.6121100     0.4612570    -0.0000760
  C       -0.6121090    -0.4612570    -0.0001440
  H        2.9624380     1.1440920    -0.8842080
  H        2.9622950     1.1442210     0.8843180
  H       -2.9624180    -1.1440100    -0.8844060
  H       -2.9623190    -1.1443030     0.8841200
  H        5.0512870     0.0405180     0.0003010
  H        4.0549439    -1.0639902     0.9293063
  H        4.0505370    -1.1273680    -0.8864290
  H       -5.0512890    -0.0405160     0.0001540
  H       -4.0504200     1.1271560     0.8870320
  H       -4.0505160     1.1274510    -0.8864430
units angstrom
no_reorient  #important for SAPT in psi4, default
symmetry c1  #important for SAPT in psi4, default
}

set PROPERTIES_ORIGIN ["COM"]
properties('MP2/aug-cc-pvtz', properties = ['dipole'])
--------------------------------------------------------------------------

    Molecular point group: c1
  Charge       = 0
  Multiplicity = 1
  Basis Set: AUG-CC-PVTZ
    Blend: AUG-CC-PVTZ
  Basis Set: (AUG-CC-PVTZ AUX)
    Blend: AUG-CC-PVTZ-JKFIT

    Orbital Energies [Eh]
    ---------------------

    Doubly Occupied:

       1A    -20.619426     2A    -20.619352     3A    -20.571978
       4A    -20.571951     5A    -11.407922     6A    -11.407353
       7A    -11.299500     8A    -11.299012     9A    -11.230122
      10A    -11.229843    11A     -1.487334    12A     -1.459154
      13A     -1.382430    14A     -1.366684    15A     -1.061991
      16A     -1.047931    17A     -0.946041    18A     -0.875099
      19A     -0.830843    20A     -0.787036    21A     -0.745023
      22A     -0.703601    23A     -0.702661    24A     -0.684545
      25A     -0.679915    26A     -0.611100    27A     -0.610334
      28A     -0.579842    29A     -0.574719    30A     -0.559327
      31A     -0.547697    32A     -0.525038    33A     -0.523801
      34A     -0.520989    35A     -0.519397    36A     -0.512064
      37A     -0.475888    38A     -0.466138    39A     -0.448073

  @DF-RHF Final Energy:  -532.69510576955486

   => Energetics <=

    Nuclear Repulsion Energy =            540.5340753548391604
    One-Electron Energy =               -1801.4760487418877801
    Two-Electron Energy =                 728.2468676174937627
    Total Energy =                       -532.6951057695548570
  Basis Set: (AUG-CC-PVTZ AUX)
    Blend: AUG-CC-PVTZ-RI
    Molecular point group: c1

    Geometry (in Angstrom), charge = 0, multiplicity = 1:

       Center              X                  Y                   Z               Mass
    ------------   -----------------  -----------------  -----------------  -----------------
         O            1.731199626096    -0.277409441546    -0.000222598537    15.994914619570
         O           -1.731263373904     0.276535558454    -0.000259598537    15.994914619570
         O            0.557640626096     1.678216558454    -0.000448598537    15.994914619570
         O           -0.557700373904    -1.679088441546    -0.000605598537    15.994914619570
         C            2.958127626096     0.500759558454    -0.000180598537    12.000000000000
         C           -2.958192373904    -0.501633441546    -0.000318598537    12.000000000000
         C            4.096127626096    -0.492526441546    -0.000016598537    12.000000000000
         C           -4.096191373904     0.491654558454    -0.000090598537    12.000000000000
         C            0.612078626096     0.460820558454    -0.000357598537    12.000000000000
         C           -0.612140373904    -0.461693441546    -0.000425598537    12.000000000000
         H            2.962406626096     1.143655558454    -0.884489598537     1.007825032230
         H            2.962263626096     1.143784558454     0.884036401463     1.007825032230
         H           -2.962449373904    -1.144446441546    -0.884687598537     1.007825032230
         H           -2.962350373904    -1.144739441546     0.883838401463     1.007825032230
         H            5.051255626096     0.040081558454     0.000019401463     1.007825032230
         H            4.054912526096    -1.064426641546     0.929024701463     1.007825032230
         H            4.050505626096    -1.127804441546    -0.886710598537     1.007825032230
         H           -5.051320373904    -0.040952441546    -0.000127598537     1.007825032230
         H           -4.050451373904     1.126719558454     0.886750401463     1.007825032230
         H           -4.050547373904     1.127014558454    -0.886724598537     1.007825032230

  Basis Set: AUG-CC-PVTZ
    Blend: AUG-CC-PVTZ
  Basis Set: (AUG-CC-PVTZ AUX)
    Blend: AUG-CC-PVTZ-JKFIT
	 Reference Energy          =    -532.6951057695548570 [Eh]
	 Singles Energy            =      -0.0000000000000000 [Eh]
	 Same-Spin Energy          =      -0.5156794557522856 [Eh]
	 Opposite-Spin Energy      =      -1.6267569947455136 [Eh]
	 Correlation Energy        =      -2.1424364504977991 [Eh]
	 Total Energy              =    -534.8375422200526828 [Eh]

	 ================> DF-SCS-MP2 Energies <==================
	-----------------------------------------------------------
	 SCS Same-Spin Scale       =       0.3333333333333333 [-]
	 SCS Opposite-Spin Scale   =       1.2000000000000000 [-]
	 SCS Same-Spin Energy      =      -0.1718931519174285 [Eh]
	 SCS Opposite-Spin Energy  =      -1.9521083936946162 [Eh]
	 SCS Correlation Energy    =      -2.1240015456120447 [Eh]
	 SCS Total Energy          =    -534.8191073151668888 [Eh]
	-----------------------------------------------------------

  Dipole Moment: [D]
     X:     0.0140      Y:     0.0177      Z:     0.0083     Total:     0.0240

*** Psi4 exiting successfully. Buy a developer a beer!
