                               Psi4 1.4a3.dev225

  ==> Input File <==

--------------------------------------------------------------------------
#psi4
#
memory 32 gb

molecule  {
0 1
  O        1.7312310    -0.2769730     0.0000590
  O       -1.7312320     0.2769720     0.0000220
  O        0.5576720     1.6786530    -0.0001670
  O       -0.5576690    -1.6786520    -0.0003240
  C        2.9581590     0.5011960     0.0001010
  C       -2.9581610    -0.5011970    -0.0000370
  C        4.0961590    -0.4920900     0.0002650
  C       -4.0961600     0.4920910     0.0001910
  C        0.6210444     0.2614567    -0.0000611
  C       -0.6121090    -0.4612570    -0.0001440
  H        2.9624380     1.1440920    -0.8842080
  H        2.9622950     1.1442210     0.8843180
  H       -2.9624180    -1.1440100    -0.8844060
  H       -2.9623190    -1.1443030     0.8841200
  H        5.0512870     0.0405180     0.0003010
  H        4.0503980    -1.1272370     0.8870460
  H        4.0505370    -1.1273680    -0.8864290
  H       -5.0512890    -0.0405160     0.0001540
  H       -4.0504200     1.1271560     0.8870320
  H       -4.0505160     1.1274510    -0.8864430
units angstrom
no_reorient  #important for SAPT in psi4, default
symmetry c1  #important for SAPT in psi4, default
}

set PROPERTIES_ORIGIN ["COM"]
properties('MP2/aug-cc-pvtz', properties = ['dipole'])
--------------------------------------------------------------------------

    Molecular point group: c1
  Charge       = 0
  Multiplicity = 1
  Basis Set: AUG-CC-PVTZ
    Blend: AUG-CC-PVTZ
  Basis Set: (AUG-CC-PVTZ AUX)
    Blend: AUG-CC-PVTZ-JKFIT

    Orbital Energies [Eh]
    ---------------------

    Doubly Occupied:

       1A    -20.649169     2A    -20.622373     3A    -20.578715
       4A    -20.535241     5A    -11.413478     6A    -11.410424
       7A    -11.315650     8A    -11.301297     9A    -11.239227
      10A    -11.229618    11A     -1.522519    12A     -1.475810
      13A     -1.382568    14A     -1.260549    15A     -1.084701
      16A     -1.054723    17A     -0.974288    18A     -0.893616
      19A     -0.845038    20A     -0.802293    21A     -0.769176
      22A     -0.719068    23A     -0.701567    24A     -0.690961
      25A     -0.672662    26A     -0.615166    27A     -0.605197
      28A     -0.584492    29A     -0.568439    30A     -0.562143
      31A     -0.556091    32A     -0.526941    33A     -0.524458
      34A     -0.519511    35A     -0.509159    36A     -0.488938
      37A     -0.473065    38A     -0.437618    39A     -0.421403

  @DF-RHF Final Energy:  -532.62874066399365

   => Energetics <=

    Nuclear Repulsion Energy =            541.0002994579411961
    One-Electron Energy =               -1802.1833773203582041
    Two-Electron Energy =                 728.5543371984234682
    Total Energy =                       -532.6287406639936535
  Basis Set: (AUG-CC-PVTZ AUX)
    Blend: AUG-CC-PVTZ-RI
    Molecular point group: c1

    Geometry (in Angstrom), charge = 0, multiplicity = 1:

       Center              X                  Y                   Z               Mass
    ------------   -----------------  -----------------  -----------------  -----------------
         O            1.730496950499    -0.260557596080     0.000067780728    15.994914619570
         O           -1.731966049501     0.293387403920     0.000030780728    15.994914619570
         O            0.556937950499     1.695068403920    -0.000158219272    15.994914619570
         O           -0.558403049501    -1.662236596080    -0.000315219272    15.994914619570
         C            2.957424950499     0.517611403920     0.000109780728    12.000000000000
         C           -2.958895049501    -0.484781596080    -0.000028219272    12.000000000000
         C            4.095424950499    -0.475674596080     0.000273780728    12.000000000000
         C           -4.096894049501     0.508506403920     0.000199780728    12.000000000000
         C            0.620310350499     0.277872103920    -0.000052319272    12.000000000000
         C           -0.612843049501    -0.444841596080    -0.000135219272    12.000000000000
         H            2.961703950499     1.160507403920    -0.884199219272     1.007825032230
         H            2.961560950499     1.160636403920     0.884326780728     1.007825032230
         H           -2.963152049501    -1.127594596080    -0.884397219272     1.007825032230
         H           -2.963053049501    -1.127887596080     0.884128780728     1.007825032230
         H            5.050552950499     0.056933403920     0.000309780728     1.007825032230
         H            4.049663950499    -1.110821596080     0.887054780728     1.007825032230
         H            4.049802950499    -1.110952596080    -0.886420219272     1.007825032230
         H           -5.052023049501    -0.024100596080     0.000162780728     1.007825032230
         H           -4.051154049501     1.143571403920     0.887040780728     1.007825032230
         H           -4.051250049501     1.143866403920    -0.886434219272     1.007825032230

  Basis Set: AUG-CC-PVTZ
    Blend: AUG-CC-PVTZ
  Basis Set: (AUG-CC-PVTZ AUX)
    Blend: AUG-CC-PVTZ-JKFIT
	 Reference Energy          =    -532.6287406639936535 [Eh]
	 Singles Energy            =      -0.0000000000000000 [Eh]
	 Same-Spin Energy          =      -0.5200135957351041 [Eh]
	 Opposite-Spin Energy      =      -1.6357519559589704 [Eh]
	 Correlation Energy        =      -2.1557655516940746 [Eh]
	 Total Energy              =    -534.7845062156877702 [Eh]

	 ================> DF-SCS-MP2 Energies <==================
	-----------------------------------------------------------
	 SCS Same-Spin Scale       =       0.3333333333333333 [-]
	 SCS Opposite-Spin Scale   =       1.2000000000000000 [-]
	 SCS Same-Spin Energy      =      -0.1733378652450347 [Eh]
	 SCS Opposite-Spin Energy  =      -1.9629023471507643 [Eh]
	 SCS Correlation Energy    =      -2.1362402123957991 [Eh]
	 SCS Total Energy          =    -534.7649808763894725 [Eh]
	-----------------------------------------------------------

  Dipole Moment: [D]
     X:     0.7240      Y:    -0.8131      Z:     0.0006     Total:     1.0887

*** Psi4 exiting successfully. Buy a developer a beer!
