                               Psi4 1.3.2 release

  ==> Input File <==

--------------------------------------------------------------------------
#psi4
#
memory 32 gb

molecule  {
0 1
 Br       -1.6326811    -0.0976083     0.0591345
 Br        1.6153920    -0.1257290     0.0000000
  C        0.0000060     0.9489830    -0.0000030
  H       -0.0000020     1.5534780     0.9022070
  H        0.0000000     1.5536080    -0.9021240
units angstrom
no_reorient  #important for SAPT in psi4, default
symmetry c1  #important for SAPT in psi4, default
}

set PROPERTIES_ORIGIN ["COM"]
properties('MP2/aug-cc-pvtz', properties = ['dipole'])
--------------------------------------------------------------------------

    Molecular point group: c1
  Charge       = 0
  Multiplicity = 1
  Basis Set: AUG-CC-PVTZ
    Blend: AUG-CC-PVTZ
  Basis Set: (AUG-CC-PVTZ AUX)
    Blend: AUG-CC-PVTZ-JKFIT

    Orbital Energies [Eh]
    ---------------------

    Doubly Occupied:

       1A   -490.035936     2A   -490.035499     3A    -65.175730
       4A    -65.175307     5A    -58.531085     6A    -58.530658
       7A    -58.529575     8A    -58.529539     9A    -58.529153
      10A    -58.529115    11A    -11.360001    12A     -9.848531
      13A     -9.848122    14A     -7.460319    15A     -7.459903
      16A     -7.453161    17A     -7.452991    18A     -7.452760
      19A     -7.452586    20A     -3.204113    21A     -3.203689
      22A     -3.200440    23A     -3.200259    24A     -3.200027
      25A     -3.199842    26A     -3.191038    27A     -3.191037
      28A     -3.190642    29A     -3.190641    30A     -1.113321
      31A     -1.011874    32A     -0.876875    33A     -0.661946
      34A     -0.572582    35A     -0.535776    36A     -0.431116
      37A     -0.429952    38A     -0.415680    39A     -0.406901

  @DF-RHF Final Energy: -5183.96375041567990

   => Energetics <=

    Nuclear Repulsion Energy =            349.9198041626253257
    One-Electron Energy =               -7916.1316643820046011
    Two-Electron Energy =                2382.2481098037005722
    Total Energy =                      -5183.9637504156789873
  Basis Set: (AUG-CC-PVTZ AUX)
    Blend: AUG-CC-PVTZ-RI
    Molecular point group: c1

    Geometry (in Angstrom), charge = 0, multiplicity = 1:

       Center              X                  Y                   Z               Mass
    ------------   -----------------  -----------------  -----------------  -----------------
         BR          -1.624741975265    -0.079533401175     0.031978370008    78.918337600000
         BR           1.623331124735    -0.107654101175    -0.027156129992    78.918337600000
         C            0.007945124735     0.967057898825    -0.027159129992    12.000000000000
         H            0.007937124735     1.571552898825     0.875050870008     1.007825032230
         H            0.007939124735     1.571682898825    -0.929280129992     1.007825032230

  Basis Set: AUG-CC-PVTZ
    Blend: AUG-CC-PVTZ
  Basis Set: (AUG-CC-PVTZ AUX)
    Blend: AUG-CC-PVTZ-JKFIT
	 Reference Energy          =   -5183.9637504156798968 [Eh]
	 Singles Energy            =      -0.0000000000000000 [Eh]
	 Same-Spin Energy          =      -0.2172248835488333 [Eh]
	 Opposite-Spin Energy      =      -0.5530453369680512 [Eh]
	 Correlation Energy        =      -0.7702702205168845 [Eh]
	 Total Energy              =   -5184.7340206361968740 [Eh]

	 ================> DF-SCS-MP2 Energies <==================
	-----------------------------------------------------------
	 SCS Same-Spin Scale       =       0.3333333333333333 [-]
	 SCS Opposite-Spin Scale   =       1.2000000000000000 [-]
	 SCS Same-Spin Energy      =      -0.0724082945162778 [Eh]
	 SCS Opposite-Spin Energy  =      -0.6636544043616615 [Eh]
	 SCS Correlation Energy    =      -0.7360626988779392 [Eh]
	 SCS Total Energy          =   -5184.6998131145574007 [Eh]
	-----------------------------------------------------------

  Dipole Moment: [D]
     X:     0.0175      Y:     1.4605      Z:    -0.0228     Total:     1.4608

*** Psi4 exiting successfully. Buy a developer a beer!
