                               Psi4 1.3.2 release

  ==> Input File <==

--------------------------------------------------------------------------
#psi4
#
memory 32 gb

molecule  {
0 1
 Br       -1.6612711    -0.0375793     0.1771153
 Br        1.6153920    -0.1257290     0.0000000
  C        0.0000060     0.9489830    -0.0000030
  H       -0.0000020     1.5534780     0.9022070
  H        0.0000000     1.5536080    -0.9021240
units angstrom
no_reorient  #important for SAPT in psi4, default
symmetry c1  #important for SAPT in psi4, default
}

set PROPERTIES_ORIGIN ["COM"]
properties('MP2/aug-cc-pvtz', properties = ['dipole'])
--------------------------------------------------------------------------

    Molecular point group: c1
  Charge       = 0
  Multiplicity = 1
  Basis Set: AUG-CC-PVTZ
    Blend: AUG-CC-PVTZ
  Basis Set: (AUG-CC-PVTZ AUX)
    Blend: AUG-CC-PVTZ-JKFIT

    Orbital Energies [Eh]
    ---------------------

    Doubly Occupied:

       1A   -490.036850     2A   -490.035644     3A    -65.176615
       4A    -65.175453     5A    -58.531975     6A    -58.530804
       7A    -58.530463     8A    -58.530422     9A    -58.529303
      10A    -58.529257    11A    -11.359652    12A     -9.849387
      13A     -9.848270    14A     -7.461178    15A     -7.460048
      16A     -7.454017    17A     -7.453829    18A     -7.452923
      19A     -7.452719    20A     -3.204980    21A     -3.203829
      22A     -3.201313    23A     -3.201107    24A     -3.200192
      25A     -3.199971    26A     -3.191882    27A     -3.191880
      28A     -3.190794    29A     -3.190791    30A     -1.113077
      31A     -1.013221    32A     -0.876150    33A     -0.662113
      34A     -0.570835    35A     -0.536882    36A     -0.430989
      37A     -0.429877    38A     -0.414463    39A     -0.409175

  @DF-RHF Final Energy: -5183.96250554252856

   => Energetics <=

    Nuclear Repulsion Energy =            347.9606062076205149
    One-Electron Energy =               -7912.1815666041520672
    Two-Electron Energy =                2380.2584548540025935
    Total Energy =                      -5183.9625055425285609
  Basis Set: (AUG-CC-PVTZ AUX)
    Blend: AUG-CC-PVTZ-RI
    Molecular point group: c1

    Geometry (in Angstrom), charge = 0, multiplicity = 1:

       Center              X                  Y                   Z               Mass
    ------------   -----------------  -----------------  -----------------  -----------------
         BR          -1.640202823428    -0.047071027815     0.095779812293    78.918337600000
         BR           1.636460276572    -0.135220727815    -0.081335487707    78.918337600000
         C            0.021074276572     0.939491272185    -0.081338487707    12.000000000000
         H            0.021066276572     1.543986272185     0.820871512293     1.007825032230
         H            0.021068276572     1.544116272185    -0.983459487707     1.007825032230

  Basis Set: AUG-CC-PVTZ
    Blend: AUG-CC-PVTZ
  Basis Set: (AUG-CC-PVTZ AUX)
    Blend: AUG-CC-PVTZ-JKFIT
	 Reference Energy          =   -5183.9625055425285609 [Eh]
	 Singles Energy            =      -0.0000000000000000 [Eh]
	 Same-Spin Energy          =      -0.2172272082419756 [Eh]
	 Opposite-Spin Energy      =      -0.5531189076127220 [Eh]
	 Correlation Energy        =      -0.7703461158546976 [Eh]
	 Total Energy              =   -5184.7328516583829696 [Eh]

	 ================> DF-SCS-MP2 Energies <==================
	-----------------------------------------------------------
	 SCS Same-Spin Scale       =       0.3333333333333333 [-]
	 SCS Opposite-Spin Scale   =       1.2000000000000000 [-]
	 SCS Same-Spin Energy      =      -0.0724090694139918 [Eh]
	 SCS Opposite-Spin Energy  =      -0.6637426891352664 [Eh]
	 SCS Correlation Energy    =      -0.7361517585492582 [Eh]
	 SCS Total Energy          =   -5184.6986573010781285 [Eh]
	-----------------------------------------------------------

  Dipole Moment: [D]
     X:     0.0497      Y:     1.4390      Z:    -0.0693     Total:     1.4416

*** Psi4 exiting successfully. Buy a developer a beer!
