                               Psi4 1.3.2 release

  ==> Input File <==

--------------------------------------------------------------------------
#psi4
#
memory 32 gb

molecule  {
0 1
 Br       -1.6339033    -0.0973717    -0.0000001
 Br        1.6153920    -0.1257290     0.0000000
  C        0.0000060     0.9489830    -0.0000030
  H       -0.0000020     1.5534780     0.9022070
  H        0.0000000     1.5536080    -0.9021240
units angstrom
no_reorient  #important for SAPT in psi4, default
symmetry c1  #important for SAPT in psi4, default
}

set PROPERTIES_ORIGIN ["COM"]
properties('MP2/aug-cc-pvtz', properties = ['dipole'])
--------------------------------------------------------------------------

    Molecular point group: c1
  Charge       = 0
  Multiplicity = 1
  Basis Set: AUG-CC-PVTZ
    Blend: AUG-CC-PVTZ
  Basis Set: (AUG-CC-PVTZ AUX)
    Blend: AUG-CC-PVTZ-JKFIT

    Orbital Energies [Eh]
    ---------------------

    Doubly Occupied:

       1A   -490.035954     2A   -490.035490     3A    -65.175747
       4A    -65.175298     5A    -58.531102     6A    -58.530649
       7A    -58.529593     8A    -58.529556     9A    -58.529145
      10A    -58.529107    11A    -11.360007    12A     -9.848548
      13A     -9.848112    14A     -7.460335    15A     -7.459892
      16A     -7.453178    17A     -7.453008    18A     -7.452751
      19A     -7.452578    20A     -3.204130    21A     -3.203678
      22A     -3.200457    23A     -3.200276    24A     -3.200016
      25A     -3.199832    26A     -3.191055    27A     -3.191054
      28A     -3.190635    29A     -3.190633    30A     -1.113294
      31A     -1.011889    32A     -0.876871    33A     -0.661916
      34A     -0.572568    35A     -0.535827    36A     -0.431054
      37A     -0.429964    38A     -0.415737    39A     -0.406941

  @DF-RHF Final Energy: -5183.96387108037743

   => Energetics <=

    Nuclear Repulsion Energy =            349.8763660596160321
    One-Electron Energy =               -7916.0447232191681906
    Two-Electron Energy =                2382.2044860791747851
    Total Energy =                      -5183.9638710803774302
  Basis Set: (AUG-CC-PVTZ AUX)
    Blend: AUG-CC-PVTZ-RI
    Molecular point group: c1

    Geometry (in Angstrom), charge = 0, multiplicity = 1:

       Center              X                  Y                   Z               Mass
    ------------   -----------------  -----------------  -----------------  -----------------
         BR          -1.625402914357    -0.079405453058    -0.000000331348    78.918337600000
         BR           1.623892385643    -0.107762753058    -0.000000231348    78.918337600000
         C            0.008506385643     0.966949246942    -0.000003231348    12.000000000000
         H            0.008498385643     1.571444246942     0.902206768652     1.007825032230
         H            0.008500385643     1.571574246942    -0.902124231348     1.007825032230

  Basis Set: AUG-CC-PVTZ
    Blend: AUG-CC-PVTZ
  Basis Set: (AUG-CC-PVTZ AUX)
    Blend: AUG-CC-PVTZ-JKFIT
	 Reference Energy          =   -5183.9638710803774302 [Eh]
	 Singles Energy            =      -0.0000000000000000 [Eh]
	 Same-Spin Energy          =      -0.2172183224532578 [Eh]
	 Opposite-Spin Energy      =      -0.5530343127095263 [Eh]
	 Correlation Energy        =      -0.7702526351627841 [Eh]
	 Total Energy              =   -5184.7341237155405906 [Eh]

	 ================> DF-SCS-MP2 Energies <==================
	-----------------------------------------------------------
	 SCS Same-Spin Scale       =       0.3333333333333333 [-]
	 SCS Opposite-Spin Scale   =       1.2000000000000000 [-]
	 SCS Same-Spin Energy      =      -0.0724061074844193 [Eh]
	 SCS Opposite-Spin Energy  =      -0.6636411752514315 [Eh]
	 SCS Correlation Energy    =      -0.7360472827358507 [Eh]
	 SCS Total Energy          =   -5184.6999183631132837 [Eh]
	-----------------------------------------------------------

  Dipole Moment: [D]
     X:     0.0183      Y:     1.4604      Z:     0.0000     Total:     1.4605

*** Psi4 exiting successfully. Buy a developer a beer!
