                               Psi4 1.3.2 release

  ==> Input File <==

--------------------------------------------------------------------------
#psi4
#
memory 32 gb

molecule  {
0 1
 Br       -1.5749359    -0.1780067    -0.1181969
 Br        1.6153920    -0.1257290     0.0000000
  C        0.0000060     0.9489830    -0.0000030
  H       -0.0000020     1.5534780     0.9022070
  H        0.0000000     1.5536080    -0.9021240
units angstrom
no_reorient  #important for SAPT in psi4, default
symmetry c1  #important for SAPT in psi4, default
}

set PROPERTIES_ORIGIN ["COM"]
properties('MP2/aug-cc-pvtz', properties = ['dipole'])
--------------------------------------------------------------------------

    Molecular point group: c1
  Charge       = 0
  Multiplicity = 1
  Basis Set: AUG-CC-PVTZ
    Blend: AUG-CC-PVTZ
  Basis Set: (AUG-CC-PVTZ AUX)
    Blend: AUG-CC-PVTZ-JKFIT

    Orbital Energies [Eh]
    ---------------------

    Doubly Occupied:

       1A   -490.035408     2A   -490.034453     3A    -65.175225
       4A    -65.174296     5A    -58.530579     6A    -58.529642
       7A    -58.529060     8A    -58.529031     9A    -58.528134
      10A    -58.528105    11A    -11.360340    12A     -9.848055
      13A     -9.847149    14A     -7.459859    15A     -7.458934
      16A     -7.452657    17A     -7.452521    18A     -7.451772
      19A     -7.451633    20A     -3.203659    21A     -3.202717
      22A     -3.199952    23A     -3.199814    24A     -3.199032
      25A     -3.198891    26A     -3.190534    27A     -3.190534
      28A     -3.189668    29A     -3.189667    30A     -1.114151
      31A     -1.009784    32A     -0.877904    33A     -0.662159
      34A     -0.575131    35A     -0.533471    36A     -0.433739
      37A     -0.428380    38A     -0.416522    39A     -0.403033

  @DF-RHF Final Energy: -5183.96308907163530

   => Energetics <=

    Nuclear Repulsion Energy =            353.2958306946621292
    One-Electron Energy =               -7922.9266576394093136
    Two-Electron Energy =                2385.6677378731119461
    Total Energy =                      -5183.9630890716352951
  Basis Set: (AUG-CC-PVTZ AUX)
    Blend: AUG-CC-PVTZ-RI
    Molecular point group: c1

    Geometry (in Angstrom), charge = 0, multiplicity = 1:

       Center              X                  Y                   Z               Mass
    ------------   -----------------  -----------------  -----------------  -----------------
         BR          -1.593514631112    -0.123011101592    -0.063918581719    78.918337600000
         BR           1.596813268888    -0.070733401592     0.054278318281    78.918337600000
         C           -0.018572731112     1.003978598408     0.054275318281    12.000000000000
         H           -0.018580731112     1.608473598408     0.956485318281     1.007825032230
         H           -0.018578731112     1.608603598408    -0.847845681719     1.007825032230

  Basis Set: AUG-CC-PVTZ
    Blend: AUG-CC-PVTZ
  Basis Set: (AUG-CC-PVTZ AUX)
    Blend: AUG-CC-PVTZ-JKFIT
	 Reference Energy          =   -5183.9630890716352951 [Eh]
	 Singles Energy            =      -0.0000000000000000 [Eh]
	 Same-Spin Energy          =      -0.2173464883974062 [Eh]
	 Opposite-Spin Energy      =      -0.5531625130397957 [Eh]
	 Correlation Energy        =      -0.7705090014372018 [Eh]
	 Total Energy              =   -5184.7335980730722440 [Eh]

	 ================> DF-SCS-MP2 Energies <==================
	-----------------------------------------------------------
	 SCS Same-Spin Scale       =       0.3333333333333333 [-]
	 SCS Opposite-Spin Scale   =       1.2000000000000000 [-]
	 SCS Same-Spin Energy      =      -0.0724488294658021 [Eh]
	 SCS Opposite-Spin Energy  =      -0.6637950156477548 [Eh]
	 SCS Correlation Energy    =      -0.7362438451135569 [Eh]
	 SCS Total Energy          =   -5184.6993329167489719 [Eh]
	-----------------------------------------------------------

  Dipole Moment: [D]
     X:    -0.0369      Y:     1.4879      Z:     0.0445     Total:     1.4890

*** Psi4 exiting successfully. Buy a developer a beer!
