                               Psi4 1.3.2 release

  ==> Input File <==

--------------------------------------------------------------------------
#psi4
#
memory 32 gb

molecule  {
0 1
 Br       -1.6864260    -0.0104255    -0.0000003
 Br        1.6153920    -0.1257290     0.0000000
  C        0.0000060     0.9489830    -0.0000030
  H       -0.0000020     1.5534780     0.9022070
  H        0.0000000     1.5536080    -0.9021240
units angstrom
no_reorient  #important for SAPT in psi4, default
symmetry c1  #important for SAPT in psi4, default
}

set PROPERTIES_ORIGIN ["COM"]
properties('MP2/aug-cc-pvtz', properties = ['dipole'])
--------------------------------------------------------------------------

    Molecular point group: c1
  Charge       = 0
  Multiplicity = 1
  Basis Set: AUG-CC-PVTZ
    Blend: AUG-CC-PVTZ
  Basis Set: (AUG-CC-PVTZ AUX)
    Blend: AUG-CC-PVTZ-JKFIT

    Orbital Energies [Eh]
    ---------------------

    Doubly Occupied:

       1A   -490.037419     2A   -490.035579     3A    -65.177169
       4A    -65.175385     5A    -58.532532     6A    -58.531019
       7A    -58.530975     8A    -58.530733     9A    -58.529239
      10A    -58.529192    11A    -11.359591    12A     -9.849924
      13A     -9.848193    14A     -7.461717    15A     -7.459959
      16A     -7.454555    17A     -7.454356    18A     -7.452862
      19A     -7.452650    20A     -3.205524    21A     -3.203734
      22A     -3.201860    23A     -3.201640    24A     -3.200112
      25A     -3.199881    26A     -3.192410    27A     -3.192408
      28A     -3.190741    29A     -3.190738    30A     -1.112693
      31A     -1.013896    32A     -0.875830    33A     -0.661824
      34A     -0.569976    35A     -0.537901    36A     -0.431511
      37A     -0.428657    38A     -0.414746    39A     -0.410458

  @DF-RHF Final Energy: -5183.96331178214587

   => Energetics <=

    Nuclear Repulsion Energy =            346.7183094956943137
    One-Electron Energy =               -7909.6840637135628640
    Two-Electron Energy =                2379.0024424357225143
    Total Energy =                      -5183.9633117821458654
  Basis Set: (AUG-CC-PVTZ AUX)
    Blend: AUG-CC-PVTZ-RI
    Molecular point group: c1

    Geometry (in Angstrom), charge = 0, multiplicity = 1:

       Center              X                  Y                   Z               Mass
    ------------   -----------------  -----------------  -----------------  -----------------
         BR          -1.653806044465    -0.032386845274    -0.000000439503    78.918337600000
         BR           1.648011955535    -0.147690345274    -0.000000139503    78.918337600000
         C            0.032625955535     0.927021654726    -0.000003139503    12.000000000000
         H            0.032617955535     1.531516654726     0.902206860497     1.007825032230
         H            0.032619955535     1.531646654726    -0.902124139503     1.007825032230

  Basis Set: AUG-CC-PVTZ
    Blend: AUG-CC-PVTZ
  Basis Set: (AUG-CC-PVTZ AUX)
    Blend: AUG-CC-PVTZ-JKFIT
	 Reference Energy          =   -5183.9633117821458654 [Eh]
	 Singles Energy            =      -0.0000000000000000 [Eh]
	 Same-Spin Energy          =      -0.2171561786730503 [Eh]
	 Opposite-Spin Energy      =      -0.5530290922184583 [Eh]
	 Correlation Energy        =      -0.7701852708915087 [Eh]
	 Total Energy              =   -5184.7334970530373539 [Eh]

	 ================> DF-SCS-MP2 Energies <==================
	-----------------------------------------------------------
	 SCS Same-Spin Scale       =       0.3333333333333333 [-]
	 SCS Opposite-Spin Scale   =       1.2000000000000000 [-]
	 SCS Same-Spin Energy      =      -0.0723853928910168 [Eh]
	 SCS Opposite-Spin Energy  =      -0.6636349106621500 [Eh]
	 SCS Correlation Energy    =      -0.7360203035531667 [Eh]
	 SCS Total Energy          =   -5184.6993320856990977 [Eh]
	-----------------------------------------------------------

  Dipole Moment: [D]
     X:     0.0729      Y:     1.4288      Z:     0.0000     Total:     1.4306

*** Psi4 exiting successfully. Buy a developer a beer!
