                               Psi4 1.3.2 release

  ==> Input File <==

--------------------------------------------------------------------------
#psi4
#
memory 32 gb

molecule  {
0 1
 Br       -1.6153930    -0.1257280     0.0000000
 Br        1.6153920    -0.1257290     0.0000000
  C       -0.0832518     0.8935923    -0.0000028
  H       -0.0000020     1.5534780     0.9022070
  H        0.0000000     1.5536080    -0.9021240
units angstrom
no_reorient  #important for SAPT in psi4, default
symmetry c1  #important for SAPT in psi4, default
}

set PROPERTIES_ORIGIN ["COM"]
properties('MP2/aug-cc-pvtz', properties = ['dipole'])
--------------------------------------------------------------------------

    Molecular point group: c1
  Charge       = 0
  Multiplicity = 1
  Basis Set: AUG-CC-PVTZ
    Blend: AUG-CC-PVTZ
  Basis Set: (AUG-CC-PVTZ AUX)
    Blend: AUG-CC-PVTZ-JKFIT

    Orbital Energies [Eh]
    ---------------------

    Doubly Occupied:

       1A   -490.043040     2A   -490.028976     3A    -65.183340
       4A    -65.168701     5A    -58.538624     6A    -58.537183
       7A    -58.537125     8A    -58.524052     9A    -58.522550
      10A    -58.522519    11A    -11.360955    12A     -9.856951
      13A     -9.841337    14A     -7.469000    15A     -7.461656
      16A     -7.461393    17A     -7.452994    18A     -7.445992
      19A     -7.445840    20A     -3.212911    21A     -3.208956
      22A     -3.208673    23A     -3.199447    24A     -3.199445
      25A     -3.196697    26A     -3.193168    27A     -3.193024
      28A     -3.183949    29A     -3.183947    30A     -1.123376
      31A     -1.013649    32A     -0.866422    33A     -0.644634
      34A     -0.586097    35A     -0.539871    36A     -0.431977
      37A     -0.428337    38A     -0.410192    39A     -0.407646

  @DF-RHF Final Energy: -5183.95709699992676

   => Energetics <=

    Nuclear Repulsion Energy =            352.7373397216168200
    One-Electron Energy =               -7921.7195817055253428
    Two-Electron Energy =                2385.0251449839811357
    Total Energy =                      -5183.9570969999276713
  Basis Set: (AUG-CC-PVTZ AUX)
    Blend: AUG-CC-PVTZ-RI
    Molecular point group: c1

    Geometry (in Angstrom), charge = 0, multiplicity = 1:

       Center              X                  Y                   Z               Mass
    ------------   -----------------  -----------------  -----------------  -----------------
         BR          -1.609579272822    -0.090872133135    -0.000000291235    78.918337600000
         BR           1.621205727178    -0.090873133135    -0.000000291235    78.918337600000
         C           -0.077438072822     0.928448166865    -0.000003091235    12.000000000000
         H            0.005811727178     1.588333866865     0.902206708765     1.007825032230
         H            0.005813727178     1.588463866865    -0.902124291235     1.007825032230

  Basis Set: AUG-CC-PVTZ
    Blend: AUG-CC-PVTZ
  Basis Set: (AUG-CC-PVTZ AUX)
    Blend: AUG-CC-PVTZ-JKFIT
	 Reference Energy          =   -5183.9570969999267618 [Eh]
	 Singles Energy            =      -0.0000000000000000 [Eh]
	 Same-Spin Energy          =      -0.2181876680349487 [Eh]
	 Opposite-Spin Energy      =      -0.5539754850634392 [Eh]
	 Correlation Energy        =      -0.7721631530983879 [Eh]
	 Total Energy              =   -5184.7292601530252796 [Eh]

	 ================> DF-SCS-MP2 Energies <==================
	-----------------------------------------------------------
	 SCS Same-Spin Scale       =       0.3333333333333333 [-]
	 SCS Opposite-Spin Scale   =       1.2000000000000000 [-]
	 SCS Same-Spin Energy      =      -0.0727292226783162 [Eh]
	 SCS Opposite-Spin Energy  =      -0.6647705820761270 [Eh]
	 SCS Correlation Energy    =      -0.7374998047544433 [Eh]
	 SCS Total Energy          =   -5184.6945968046811686 [Eh]
	-----------------------------------------------------------

  Dipole Moment: [D]
     X:    -0.4504      Y:     1.4148      Z:     0.0000     Total:     1.4847

*** Psi4 exiting successfully. Buy a developer a beer!
