                               Psi4 1.4a3.dev225

  ==> Input File <==

--------------------------------------------------------------------------
#psi4
#
memory 32 gb

molecule  {
0 1
 Br        1.6153390    -0.1257620     0.0000000
 Br       -1.6153390    -0.1257620     0.0000000
  C       -0.0166496     0.9606085     0.0000000
  H        0.0000000     1.5531010    -0.9023440
  H        0.0000000     1.5531010     0.9023440
units angstrom
no_reorient  #important for SAPT in psi4, default
symmetry c1  #important for SAPT in psi4, default
}

set PROPERTIES_ORIGIN ["COM"]
properties('MP2/aug-cc-pvtz', properties = ['dipole'])
--------------------------------------------------------------------------

    Molecular point group: c1
  Charge       = 0
  Multiplicity = 1
  Basis Set: AUG-CC-PVTZ
    Blend: AUG-CC-PVTZ
  Basis Set: (AUG-CC-PVTZ AUX)
    Blend: AUG-CC-PVTZ-JKFIT

    Orbital Energies [Eh]
    ---------------------

    Doubly Occupied:

       1A   -490.036783     2A   -490.033757     3A    -65.176610
       4A    -65.173498     5A    -58.531962     6A    -58.530453
       7A    -58.530417     8A    -58.528856     9A    -58.527342
      10A    -58.527311    11A    -11.360350    12A     -9.849465
      13A     -9.846198    14A     -7.461275    15A     -7.457932
      16A     -7.454089    17A     -7.453924    18A     -7.450820
      19A     -7.450676    20A     -3.205083    21A     -3.201694
      22A     -3.201380    23A     -3.201203    24A     -3.198072
      25A     -3.197923    26A     -3.191958    27A     -3.191957
      28A     -3.188730    29A     -3.188730    30A     -1.112754
      31A     -1.010063    32A     -0.879338    33A     -0.665870
      34A     -0.572302    35A     -0.533454    36A     -0.432013
      37A     -0.429183    38A     -0.416748    39A     -0.404999

  @DF-RHF Final Energy: -5183.96373337229215

   => Energetics <=

    Nuclear Repulsion Energy =            350.6558473792958353
    One-Electron Energy =               -7917.6288177021206138
    Two-Electron Energy =                2383.0092369505332499
    Total Energy =                      -5183.9637333722912445
  Basis Set: (AUG-CC-PVTZ AUX)
    Blend: AUG-CC-PVTZ-RI
    Molecular point group: c1

    Geometry (in Angstrom), charge = 0, multiplicity = 1:

       Center              X                  Y                   Z               Mass
    ------------   -----------------  -----------------  -----------------  -----------------
         BR           1.616501598177    -0.095549747662    -0.000000000000    78.918337600000
         BR          -1.614176401823    -0.095549747662    -0.000000000000    78.918337600000
         C           -0.015487001823     0.990820752338    -0.000000000000    12.000000000000
         H            0.001162598177     1.583313252338    -0.902344000000     1.007825032230
         H            0.001162598177     1.583313252338     0.902344000000     1.007825032230

  Basis Set: AUG-CC-PVTZ
    Blend: AUG-CC-PVTZ
  Basis Set: (AUG-CC-PVTZ AUX)
    Blend: AUG-CC-PVTZ-JKFIT
	 Reference Energy          =   -5183.9637333722921539 [Eh]
	 Singles Energy            =      -0.0000000000000000 [Eh]
	 Same-Spin Energy          =      -0.2171271696836300 [Eh]
	 Opposite-Spin Energy      =      -0.5529597547764702 [Eh]
	 Correlation Energy        =      -0.7700869244601002 [Eh]
	 Total Energy              =   -5184.7338202967521283 [Eh]

	 ================> DF-SCS-MP2 Energies <==================
	-----------------------------------------------------------
	 SCS Same-Spin Scale       =       0.3333333333333333 [-]
	 SCS Opposite-Spin Scale   =       1.2000000000000000 [-]
	 SCS Same-Spin Energy      =      -0.0723757232278767 [Eh]
	 SCS Opposite-Spin Energy  =      -0.6635517057317643 [Eh]
	 SCS Correlation Energy    =      -0.7359274289596409 [Eh]
	 SCS Total Energy          =   -5184.6996608012514116 [Eh]
	-----------------------------------------------------------

  Dipole Moment: [D]
     X:    -0.0897      Y:     1.4815      Z:     0.0000     Total:     1.4843

*** Psi4 exiting successfully. Buy a developer a beer!
