                               Psi4 1.3.2 release

  ==> Input File <==

--------------------------------------------------------------------------
#psi4
#
memory 32 gb

molecule  {
0 1
 Br       -1.6479800    -0.0682134     0.1181969
 Br        1.6153920    -0.1257290     0.0000000
  C        0.0000060     0.9489830    -0.0000030
  H       -0.0000020     1.5534780     0.9022070
  H        0.0000000     1.5536080    -0.9021240
units angstrom
no_reorient  #important for SAPT in psi4, default
symmetry c1  #important for SAPT in psi4, default
}

set PROPERTIES_ORIGIN ["COM"]
properties('MP2/aug-cc-pvtz', properties = ['dipole'])
--------------------------------------------------------------------------

    Molecular point group: c1
  Charge       = 0
  Multiplicity = 1
  Basis Set: AUG-CC-PVTZ
    Blend: AUG-CC-PVTZ
  Basis Set: (AUG-CC-PVTZ AUX)
    Blend: AUG-CC-PVTZ-JKFIT

    Orbital Energies [Eh]
    ---------------------

    Doubly Occupied:

       1A   -490.036401     2A   -490.035561     3A    -65.176180
       4A    -65.175369     5A    -58.531538     6A    -58.530720
       7A    -58.530027     8A    -58.529988     9A    -58.529217
      10A    -58.529176    11A    -11.359841    12A     -9.848966
      13A     -9.848183    14A     -7.460755    15A     -7.459962
      16A     -7.453597    17A     -7.453418    18A     -7.452830
      19A     -7.452642    20A     -3.204554    21A     -3.203745
      22A     -3.200884    23A     -3.200690    24A     -3.200096
      25A     -3.199893    26A     -3.191468    27A     -3.191466
      28A     -3.190708    29A     -3.190707    30A     -1.113168
      31A     -1.012551    32A     -0.876517    33A     -0.661998
      34A     -0.571708    35A     -0.536376    36A     -0.430508
      37A     -0.430404    38A     -0.415145    39A     -0.408065

  @DF-RHF Final Energy: -5183.96329730988418

   => Energetics <=

    Nuclear Repulsion Energy =            348.9115378437287518
    One-Electron Energy =               -7914.0996234117501444
    Two-Electron Energy =                2381.2247882581373233
    Total Energy =                      -5183.9632973098832736
  Basis Set: (AUG-CC-PVTZ AUX)
    Blend: AUG-CC-PVTZ-RI
    Molecular point group: c1

    Geometry (in Angstrom), charge = 0, multiplicity = 1:

       Center              X                  Y                   Z               Mass
    ------------   -----------------  -----------------  -----------------  -----------------
         BR          -1.633015286561    -0.063637280655     0.063918027179    78.918337600000
         BR           1.630356713439    -0.121152880655    -0.054278872821    78.918337600000
         C            0.014970713439     0.953559119345    -0.054281872821    12.000000000000
         H            0.014962713439     1.558054119345     0.847928127179     1.007825032230
         H            0.014964713439     1.558184119345    -0.956402872821     1.007825032230

  Basis Set: AUG-CC-PVTZ
    Blend: AUG-CC-PVTZ
  Basis Set: (AUG-CC-PVTZ AUX)
    Blend: AUG-CC-PVTZ-JKFIT
	 Reference Energy          =   -5183.9632973098841831 [Eh]
	 Singles Energy            =      -0.0000000000000000 [Eh]
	 Same-Spin Energy          =      -0.2172175013427441 [Eh]
	 Opposite-Spin Energy      =      -0.5530666188931073 [Eh]
	 Correlation Energy        =      -0.7702841202358515 [Eh]
	 Total Energy              =   -5184.7335814301204664 [Eh]

	 ================> DF-SCS-MP2 Energies <==================
	-----------------------------------------------------------
	 SCS Same-Spin Scale       =       0.3333333333333333 [-]
	 SCS Opposite-Spin Scale   =       1.2000000000000000 [-]
	 SCS Same-Spin Energy      =      -0.0724058337809147 [Eh]
	 SCS Opposite-Spin Energy  =      -0.6636799426717287 [Eh]
	 SCS Correlation Energy    =      -0.7360857764526434 [Eh]
	 SCS Total Energy          =   -5184.6993830863366384 [Eh]
	-----------------------------------------------------------

  Dipole Moment: [D]
     X:     0.0341      Y:     1.4501      Z:    -0.0459     Total:     1.4512

*** Psi4 exiting successfully. Buy a developer a beer!
