                               Psi4 1.3.2 release

  ==> Input File <==

--------------------------------------------------------------------------
#psi4
#
memory 32 gb

molecule  {
0 1
 Br       -1.5963907    -0.1537569     0.0000001
 Br        1.6153920    -0.1257290     0.0000000
  C        0.0000060     0.9489830    -0.0000030
  H       -0.0000020     1.5534780     0.9022070
  H        0.0000000     1.5536080    -0.9021240
units angstrom
no_reorient  #important for SAPT in psi4, default
symmetry c1  #important for SAPT in psi4, default
}

set PROPERTIES_ORIGIN ["COM"]
properties('MP2/aug-cc-pvtz', properties = ['dipole'])
--------------------------------------------------------------------------

    Molecular point group: c1
  Charge       = 0
  Multiplicity = 1
  Basis Set: AUG-CC-PVTZ
    Blend: AUG-CC-PVTZ
  Basis Set: (AUG-CC-PVTZ AUX)
    Blend: AUG-CC-PVTZ-JKFIT

    Orbital Energies [Eh]
    ---------------------

    Doubly Occupied:

       1A   -490.035415     2A   -490.034953     3A    -65.175227
       4A    -65.174779     5A    -58.530580     6A    -58.530128
       7A    -58.529067     8A    -58.529036     9A    -58.528620
      10A    -58.528588    11A    -11.360261    12A     -9.848049
      13A     -9.847614    14A     -7.459842    15A     -7.459399
      16A     -7.452665    17A     -7.452519    18A     -7.452240
      19A     -7.452090    20A     -3.203637    21A     -3.203186
      22A     -3.199945    23A     -3.199794    24A     -3.199505
      25A     -3.199351    26A     -3.190548    27A     -3.190548
      28A     -3.190130    29A     -3.190129    30A     -1.113799
      31A     -1.010472    32A     -0.877581    33A     -0.661999
      34A     -0.574332    35A     -0.534330    36A     -0.432758
      37A     -0.428894    38A     -0.416423    39A     -0.404364

  @DF-RHF Final Energy: -5183.96376220792627

   => Energetics <=

    Nuclear Repulsion Energy =            352.1254542701975083
    One-Electron Energy =               -7920.5728352730347979
    Two-Electron Energy =                2384.4836187949108535
    Total Energy =                      -5183.9637622079262655
  Basis Set: (AUG-CC-PVTZ AUX)
    Blend: AUG-CC-PVTZ-RI
    Molecular point group: c1

    Geometry (in Angstrom), charge = 0, multiplicity = 1:

       Center              X                  Y                   Z               Mass
    ------------   -----------------  -----------------  -----------------  -----------------
         BR          -1.605116918806    -0.109897338886    -0.000000223192    78.918337600000
         BR           1.606665781194    -0.081869438886    -0.000000323192    78.918337600000
         C           -0.008720218806     0.992842561114    -0.000003323192    12.000000000000
         H           -0.008728218806     1.597337561114     0.902206676808     1.007825032230
         H           -0.008726218806     1.597467561114    -0.902124323192     1.007825032230

  Basis Set: AUG-CC-PVTZ
    Blend: AUG-CC-PVTZ
  Basis Set: (AUG-CC-PVTZ AUX)
    Blend: AUG-CC-PVTZ-JKFIT
	 Reference Energy          =   -5183.9637622079262655 [Eh]
	 Singles Energy            =      -0.0000000000000000 [Eh]
	 Same-Spin Energy          =      -0.2172847887767427 [Eh]
	 Opposite-Spin Energy      =      -0.5530839119533578 [Eh]
	 Correlation Energy        =      -0.7703687007301006 [Eh]
	 Total Energy              =   -5184.7341309086559704 [Eh]

	 ================> DF-SCS-MP2 Energies <==================
	-----------------------------------------------------------
	 SCS Same-Spin Scale       =       0.3333333333333333 [-]
	 SCS Opposite-Spin Scale   =       1.2000000000000000 [-]
	 SCS Same-Spin Energy      =      -0.0724282629255809 [Eh]
	 SCS Opposite-Spin Energy  =      -0.6637006943440293 [Eh]
	 SCS Correlation Energy    =      -0.7361289572696103 [Eh]
	 SCS Total Energy          =   -5184.6998911651962771 [Eh]
	-----------------------------------------------------------

  Dipole Moment: [D]
     X:    -0.0183      Y:     1.4798      Z:     0.0000     Total:     1.4799

*** Psi4 exiting successfully. Buy a developer a beer!
