                               Psi4 1.3.2 release

  ==> Input File <==

--------------------------------------------------------------------------
#psi4
#
memory 32 gb

molecule  {
0 1
 Br       -1.6519158    -0.0686967    -0.0000002
 Br        1.6153920    -0.1257290     0.0000000
  C        0.0000060     0.9489830    -0.0000030
  H       -0.0000020     1.5534780     0.9022070
  H        0.0000000     1.5536080    -0.9021240
units angstrom
no_reorient  #important for SAPT in psi4, default
symmetry c1  #important for SAPT in psi4, default
}

set PROPERTIES_ORIGIN ["COM"]
properties('MP2/aug-cc-pvtz', properties = ['dipole'])
--------------------------------------------------------------------------

    Molecular point group: c1
  Charge       = 0
  Multiplicity = 1
  Basis Set: AUG-CC-PVTZ
    Blend: AUG-CC-PVTZ
  Basis Set: (AUG-CC-PVTZ AUX)
    Blend: AUG-CC-PVTZ-JKFIT

    Orbital Energies [Eh]
    ---------------------

    Doubly Occupied:

       1A   -490.036447     2A   -490.035523     3A    -65.176226
       4A    -65.175329     5A    -58.531583     6A    -58.530679
       7A    -58.530073     8A    -58.530033     9A    -58.529179
      10A    -58.529138    11A    -11.359873    12A     -9.849010
      13A     -9.848140    14A     -7.460799    15A     -7.459915
      16A     -7.453641    17A     -7.453461    18A     -7.452790
      19A     -7.452604    20A     -3.204598    21A     -3.203697
      22A     -3.200928    23A     -3.200734    24A     -3.200049
      25A     -3.199849    26A     -3.191511    27A     -3.191510
      28A     -3.190673    29A     -3.190671    30A     -1.113074
      31A     -1.012573    32A     -0.876521    33A     -0.661880
      34A     -0.571695    35A     -0.536543    36A     -0.430488
      37A     -0.430236    38A     -0.415402    39A     -0.408158

  @DF-RHF Final Energy: -5183.96377868994659

   => Energetics <=

    Nuclear Repulsion Energy =            348.7955794518705375
    One-Electron Energy =               -7913.8682485889748932
    Two-Electron Energy =                2381.1088904471580463
    Total Energy =                      -5183.9637786899465937
  Basis Set: (AUG-CC-PVTZ AUX)
    Blend: AUG-CC-PVTZ-RI
    Molecular point group: c1

    Geometry (in Angstrom), charge = 0, multiplicity = 1:

       Center              X                  Y                   Z               Mass
    ------------   -----------------  -----------------  -----------------  -----------------
         BR          -1.635143681322    -0.063898638750    -0.000000385426    78.918337600000
         BR           1.632164118678    -0.120930938750    -0.000000185426    78.918337600000
         C            0.016778118678     0.953781061250    -0.000003185426    12.000000000000
         H            0.016770118678     1.558276061250     0.902206814574     1.007825032230
         H            0.016772118678     1.558406061250    -0.902124185426     1.007825032230

  Basis Set: AUG-CC-PVTZ
    Blend: AUG-CC-PVTZ
  Basis Set: (AUG-CC-PVTZ AUX)
    Blend: AUG-CC-PVTZ-JKFIT
	 Reference Energy          =   -5183.9637786899465937 [Eh]
	 Singles Energy            =      -0.0000000000000000 [Eh]
	 Same-Spin Energy          =      -0.2171927259408261 [Eh]
	 Opposite-Spin Energy      =      -0.5530234796410485 [Eh]
	 Correlation Energy        =      -0.7702162055818745 [Eh]
	 Total Energy              =   -5184.7339948955286673 [Eh]

	 ================> DF-SCS-MP2 Energies <==================
	-----------------------------------------------------------
	 SCS Same-Spin Scale       =       0.3333333333333333 [-]
	 SCS Opposite-Spin Scale   =       1.2000000000000000 [-]
	 SCS Same-Spin Energy      =      -0.0723975753136087 [Eh]
	 SCS Opposite-Spin Energy  =      -0.6636281755692581 [Eh]
	 SCS Correlation Energy    =      -0.7360257508828668 [Eh]
	 SCS Total Energy          =   -5184.6998044408292117 [Eh]
	-----------------------------------------------------------

  Dipole Moment: [D]
     X:     0.0366      Y:     1.4502      Z:     0.0000     Total:     1.4506

*** Psi4 exiting successfully. Buy a developer a beer!
