                               Psi4 1.3.2 release

  ==> Input File <==

--------------------------------------------------------------------------
#psi4
#
memory 32 gb

molecule  {
0 1
 Br       -1.6060095    -0.1392989    -0.0295717
 Br        1.6153920    -0.1257290     0.0000000
  C        0.0000060     0.9489830    -0.0000030
  H       -0.0000020     1.5534780     0.9022070
  H        0.0000000     1.5536080    -0.9021240
units angstrom
no_reorient  #important for SAPT in psi4, default
symmetry c1  #important for SAPT in psi4, default
}

set PROPERTIES_ORIGIN ["COM"]
properties('MP2/aug-cc-pvtz', properties = ['dipole'])
--------------------------------------------------------------------------

    Molecular point group: c1
  Charge       = 0
  Multiplicity = 1
  Basis Set: AUG-CC-PVTZ
    Blend: AUG-CC-PVTZ
  Basis Set: (AUG-CC-PVTZ AUX)
    Blend: AUG-CC-PVTZ-JKFIT

    Orbital Energies [Eh]
    ---------------------

    Doubly Occupied:

       1A   -490.035438     2A   -490.035210     3A    -65.175249
       4A    -65.175028     5A    -58.530601     6A    -58.530378
       7A    -58.529090     8A    -58.529058     9A    -58.528870
      10A    -58.528837    11A    -11.360196    12A     -9.848068
      13A     -9.847853    14A     -7.459858    15A     -7.459639
      16A     -7.452690    17A     -7.452537    18A     -7.452480
      19A     -7.452326    20A     -3.203651    21A     -3.203427
      22A     -3.199967    23A     -3.199807    24A     -3.199749
      25A     -3.199588    26A     -3.190574    27A     -3.190573
      28A     -3.190367    29A     -3.190367    30A     -1.113666
      31A     -1.010843    32A     -0.877396    33A     -0.661983
      34A     -0.573876    35A     -0.534714    36A     -0.432321
      37A     -0.429172    38A     -0.416230    39A     -0.405041

  @DF-RHF Final Energy: -5183.96379826950761

   => Energetics <=

    Nuclear Repulsion Energy =            351.5412524839219941
    One-Electron Energy =               -7919.3966651822884160
    Two-Electron Energy =                2383.8916144288587020
    Total Energy =                      -5183.9637982695076062
  Basis Set: (AUG-CC-PVTZ AUX)
    Blend: AUG-CC-PVTZ-RI
    Molecular point group: c1

    Geometry (in Angstrom), charge = 0, multiplicity = 1:

       Center              X                  Y                   Z               Mass
    ------------   -----------------  -----------------  -----------------  -----------------
         BR          -1.610318555963    -0.102078767961    -0.015992007372    78.918337600000
         BR           1.611082944037    -0.088508867961     0.013579692628    78.918337600000
         C           -0.004303055963     0.986203132039     0.013576692628    12.000000000000
         H           -0.004311055963     1.590698132039     0.915786692628     1.007825032230
         H           -0.004309055963     1.590828132039    -0.888544307372     1.007825032230

  Basis Set: AUG-CC-PVTZ
    Blend: AUG-CC-PVTZ
  Basis Set: (AUG-CC-PVTZ AUX)
    Blend: AUG-CC-PVTZ-JKFIT
	 Reference Energy          =   -5183.9637982695076062 [Eh]
	 Singles Energy            =      -0.0000000000000000 [Eh]
	 Same-Spin Energy          =      -0.2172671874817645 [Eh]
	 Opposite-Spin Energy      =      -0.5530701996126051 [Eh]
	 Correlation Energy        =      -0.7703373870943696 [Eh]
	 Total Energy              =   -5184.7341356566021204 [Eh]

	 ================> DF-SCS-MP2 Energies <==================
	-----------------------------------------------------------
	 SCS Same-Spin Scale       =       0.3333333333333333 [-]
	 SCS Opposite-Spin Scale   =       1.2000000000000000 [-]
	 SCS Same-Spin Energy      =      -0.0724223958272548 [Eh]
	 SCS Opposite-Spin Energy  =      -0.6636842395351260 [Eh]
	 SCS Correlation Energy    =      -0.7361066353623809 [Eh]
	 SCS Total Energy          =   -5184.6999049048699817 [Eh]
	-----------------------------------------------------------

  Dipole Moment: [D]
     X:    -0.0090      Y:     1.4749      Z:     0.0113     Total:     1.4750

*** Psi4 exiting successfully. Buy a developer a beer!
