                               Psi4 1.3.2 release

  ==> Input File <==

--------------------------------------------------------------------------
#psi4
#
memory 32 gb

molecule  {
0 1
 Br       -1.6153930    -0.1257280     0.0000000
 Br        1.6153920    -0.1257290     0.0000000
  C        0.1665217     1.0597644    -0.0000033
  H       -0.0000020     1.5534780     0.9022070
  H        0.0000000     1.5536080    -0.9021240
units angstrom
no_reorient  #important for SAPT in psi4, default
symmetry c1  #important for SAPT in psi4, default
}

set PROPERTIES_ORIGIN ["COM"]
properties('MP2/aug-cc-pvtz', properties = ['dipole'])
--------------------------------------------------------------------------

    Molecular point group: c1
  Charge       = 0
  Multiplicity = 1
  Basis Set: AUG-CC-PVTZ
    Blend: AUG-CC-PVTZ
  Basis Set: (AUG-CC-PVTZ AUX)
    Blend: AUG-CC-PVTZ-JKFIT

    Orbital Energies [Eh]
    ---------------------

    Doubly Occupied:

       1A   -490.050183     2A   -490.015912     3A    -65.190168
       4A    -65.155392     5A    -58.545507     6A    -58.544004
       7A    -58.543938     8A    -58.510723     9A    -58.509257
      10A    -58.509248    11A    -11.368215    12A     -9.863388
      13A     -9.827522    14A     -7.475406    15A     -7.467997
      16A     -7.467714    17A     -7.438778    18A     -7.432221
      19A     -7.432175    20A     -3.219372    21A     -3.215473
      22A     -3.215115    23A     -3.205704    24A     -3.205703
      25A     -3.182229    26A     -3.179094    27A     -3.179062
      28A     -3.170472    29A     -3.170471    30A     -1.118299
      31A     -0.995253    32A     -0.894806    33A     -0.695837
      34A     -0.581310    35A     -0.516817    36A     -0.436850
      37A     -0.423164    38A     -0.409833    39A     -0.395627

  @DF-RHF Final Energy: -5183.94780382476438

   => Energetics <=

    Nuclear Repulsion Energy =            347.9671189458803724
    One-Electron Energy =               -7912.3133682118614161
    Two-Electron Energy =                2380.3984454412166087
    Total Energy =                      -5183.9478038247643781
  Basis Set: (AUG-CC-PVTZ AUX)
    Blend: AUG-CC-PVTZ-RI
    Molecular point group: c1

    Geometry (in Angstrom), charge = 0, multiplicity = 1:

       Center              X                  Y                   Z               Mass
    ------------   -----------------  -----------------  -----------------  -----------------
         BR          -1.627020305379    -0.102475497809    -0.000000256322    78.918337600000
         BR           1.603764694621    -0.102476497809    -0.000000256322    78.918337600000
         C            0.154894394621     1.083016902191    -0.000003556322    12.000000000000
         H           -0.011629305379     1.576730502191     0.902206743678     1.007825032230
         H           -0.011627305379     1.576860502191    -0.902124256322     1.007825032230

  Basis Set: AUG-CC-PVTZ
    Blend: AUG-CC-PVTZ
  Basis Set: (AUG-CC-PVTZ AUX)
    Blend: AUG-CC-PVTZ-JKFIT
	 Reference Energy          =   -5183.9478038247643781 [Eh]
	 Singles Energy            =      -0.0000000000000000 [Eh]
	 Same-Spin Energy          =      -0.2168043554366791 [Eh]
	 Opposite-Spin Energy      =      -0.5530470051404477 [Eh]
	 Correlation Energy        =      -0.7698513605771268 [Eh]
	 Total Energy              =   -5184.7176551853417550 [Eh]

	 ================> DF-SCS-MP2 Energies <==================
	-----------------------------------------------------------
	 SCS Same-Spin Scale       =       0.3333333333333333 [-]
	 SCS Opposite-Spin Scale   =       1.2000000000000000 [-]
	 SCS Same-Spin Energy      =      -0.0722681184788930 [Eh]
	 SCS Opposite-Spin Energy  =      -0.6636564061685372 [Eh]
	 SCS Correlation Energy    =      -0.7359245246474302 [Eh]
	 SCS Total Energy          =   -5184.6837283494114672 [Eh]
	-----------------------------------------------------------

  Dipole Moment: [D]
     X:     0.9005      Y:     1.5672      Z:     0.0000     Total:     1.8075

*** Psi4 exiting successfully. Buy a developer a beer!
