                               Psi4 1.3.2 release

  ==> Input File <==

--------------------------------------------------------------------------
#psi4
#
memory 32 gb

molecule  {
0 1
 Br       -1.6153930    -0.1257280     0.0000000
 Br        1.6153920    -0.1257290     0.0000000
  C        0.0832638     1.0043737    -0.0000032
  H       -0.0000020     1.5534780     0.9022070
  H        0.0000000     1.5536080    -0.9021240
units angstrom
no_reorient  #important for SAPT in psi4, default
symmetry c1  #important for SAPT in psi4, default
}

set PROPERTIES_ORIGIN ["COM"]
properties('MP2/aug-cc-pvtz', properties = ['dipole'])
--------------------------------------------------------------------------

    Molecular point group: c1
  Charge       = 0
  Multiplicity = 1
  Basis Set: AUG-CC-PVTZ
    Blend: AUG-CC-PVTZ
  Basis Set: (AUG-CC-PVTZ AUX)
    Blend: AUG-CC-PVTZ-JKFIT

    Orbital Energies [Eh]
    ---------------------

    Doubly Occupied:

       1A   -490.042445     2A   -490.026433     3A    -65.182346
       4A    -65.165989     5A    -58.537694     6A    -58.536185
       7A    -58.536139     8A    -58.521352     9A    -58.519839
      10A    -58.519820    11A    -11.362544    12A     -9.855364
      13A     -9.838342    14A     -7.467272    15A     -7.459974
      16A     -7.459775    17A     -7.449870    18A     -7.442969
      19A     -7.442878    20A     -3.211150    21A     -3.207347
      22A     -3.207111    23A     -3.197777    24A     -3.197777
      25A     -3.193506    26A     -3.190098    27A     -3.190009
      28A     -3.181008    29A     -3.181007    30A     -1.112926
      31A     -1.004353    32A     -0.886768    33A     -0.679798
      34A     -0.573214    35A     -0.525646    36A     -0.430866
      37A     -0.430301    38A     -0.415933    39A     -0.401662

  @DF-RHF Final Energy: -5183.95941669027616

   => Energetics <=

    Nuclear Repulsion Energy =            349.4205093382618657
    One-Electron Energy =               -7915.1888784402217425
    Two-Electron Energy =                2381.8089524116835491
    Total Energy =                      -5183.9594166902770667
  Basis Set: (AUG-CC-PVTZ AUX)
    Blend: AUG-CC-PVTZ-RI
    Molecular point group: c1

    Geometry (in Angstrom), charge = 0, multiplicity = 1:

       Center              X                  Y                   Z               Mass
    ------------   -----------------  -----------------  -----------------  -----------------
         BR          -1.621206623205    -0.098607709584    -0.000000263304    78.918337600000
         BR           1.609578376795    -0.098608709584    -0.000000263304    78.918337600000
         C            0.077450176795     1.031493990416    -0.000003463304    12.000000000000
         H           -0.005815623205     1.580598290416     0.902206736696     1.007825032230
         H           -0.005813623205     1.580728290416    -0.902124263304     1.007825032230

  Basis Set: AUG-CC-PVTZ
    Blend: AUG-CC-PVTZ
  Basis Set: (AUG-CC-PVTZ AUX)
    Blend: AUG-CC-PVTZ-JKFIT
	 Reference Energy          =   -5183.9594166902761572 [Eh]
	 Singles Energy            =      -0.0000000000000000 [Eh]
	 Same-Spin Energy          =      -0.2168472107695760 [Eh]
	 Opposite-Spin Energy      =      -0.5528394034263233 [Eh]
	 Correlation Energy        =      -0.7696866141958993 [Eh]
	 Total Energy              =   -5184.7291033044721189 [Eh]

	 ================> DF-SCS-MP2 Energies <==================
	-----------------------------------------------------------
	 SCS Same-Spin Scale       =       0.3333333333333333 [-]
	 SCS Opposite-Spin Scale   =       1.2000000000000000 [-]
	 SCS Same-Spin Energy      =      -0.0722824035898587 [Eh]
	 SCS Opposite-Spin Energy  =      -0.6634072841115880 [Eh]
	 SCS Correlation Energy    =      -0.7356896877014467 [Eh]
	 SCS Total Energy          =   -5184.6951063779779361 [Eh]
	-----------------------------------------------------------

  Dipole Moment: [D]
     X:     0.4499      Y:     1.5225      Z:     0.0000     Total:     1.5876

*** Psi4 exiting successfully. Buy a developer a beer!
