                               Psi4 1.3.2 release

  ==> Input File <==

--------------------------------------------------------------------------
#psi4
#
memory 32 gb

molecule  {
0 1
 Br       -1.4942058    -0.2886958     0.0000005
 Br        1.6153920    -0.1257290     0.0000000
  C        0.0000060     0.9489830    -0.0000030
  H       -0.0000020     1.5534780     0.9022070
  H        0.0000000     1.5536080    -0.9021240
units angstrom
no_reorient  #important for SAPT in psi4, default
symmetry c1  #important for SAPT in psi4, default
}

set PROPERTIES_ORIGIN ["COM"]
properties('MP2/aug-cc-pvtz', properties = ['dipole'])
--------------------------------------------------------------------------

    Molecular point group: c1
  Charge       = 0
  Multiplicity = 1
  Basis Set: AUG-CC-PVTZ
    Blend: AUG-CC-PVTZ
  Basis Set: (AUG-CC-PVTZ AUX)
    Blend: AUG-CC-PVTZ-JKFIT

    Orbital Energies [Eh]
    ---------------------

    Doubly Occupied:

       1A   -490.035162     2A   -490.032375     3A    -65.174997
       4A    -65.172292     5A    -58.530356     6A    -58.528814
       7A    -58.528801     8A    -58.527628     9A    -58.526118
      10A    -58.526101    11A    -11.360791    12A     -9.847859
      13A     -9.845230    14A     -7.459697    15A     -7.457018
      16A     -7.452402    17A     -7.452329    18A     -7.449836
      19A     -7.449742    20A     -3.203517    21A     -3.200788
      22A     -3.199740    23A     -3.199679    24A     -3.197080
      25A     -3.196999    26A     -3.190276    27A     -3.190273
      28A     -3.187752    29A     -3.187749    30A     -1.115485
      31A     -1.006613    32A     -0.879438    33A     -0.662276
      34A     -0.578777    35A     -0.530250    36A     -0.437503
      37A     -0.426144    38A     -0.418189    39A     -0.396997

  @DF-RHF Final Energy: -5183.96164259600209

   => Energetics <=

    Nuclear Repulsion Energy =            358.2914120540283989
    One-Electron Energy =               -7932.9799628200662482
    Two-Electron Energy =                2390.7269081700355855
    Total Energy =                      -5183.9616425960030028
  Basis Set: (AUG-CC-PVTZ AUX)
    Blend: AUG-CC-PVTZ-RI
    Molecular point group: c1

    Geometry (in Angstrom), charge = 0, multiplicity = 1:

       Center              X                  Y                   Z               Mass
    ------------   -----------------  -----------------  -----------------  -----------------
         BR          -1.549857554573    -0.182869351623    -0.000000006881    78.918337600000
         BR           1.559740245427    -0.019902551623    -0.000000506881    78.918337600000
         C           -0.055645754573     1.054809448377    -0.000003506881    12.000000000000
         H           -0.055653754573     1.659304448377     0.902206493119     1.007825032230
         H           -0.055651754573     1.659434448377    -0.902124506881     1.007825032230

  Basis Set: AUG-CC-PVTZ
    Blend: AUG-CC-PVTZ
  Basis Set: (AUG-CC-PVTZ AUX)
    Blend: AUG-CC-PVTZ-JKFIT
	 Reference Energy          =   -5183.9616425960020933 [Eh]
	 Singles Energy            =      -0.0000000000000000 [Eh]
	 Same-Spin Energy          =      -0.2175481198658772 [Eh]
	 Opposite-Spin Energy      =      -0.5533804315419404 [Eh]
	 Correlation Energy        =      -0.7709285514078176 [Eh]
	 Total Energy              =   -5184.7325711474095442 [Eh]

	 ================> DF-SCS-MP2 Energies <==================
	-----------------------------------------------------------
	 SCS Same-Spin Scale       =       0.3333333333333333 [-]
	 SCS Opposite-Spin Scale   =       1.2000000000000000 [-]
	 SCS Same-Spin Energy      =      -0.0725160399552924 [Eh]
	 SCS Opposite-Spin Energy  =      -0.6640565178503285 [Eh]
	 SCS Correlation Energy    =      -0.7365725578056209 [Eh]
	 SCS Total Energy          =   -5184.6982151538077233 [Eh]
	-----------------------------------------------------------

  Dipole Moment: [D]
     X:    -0.1095      Y:     1.5215      Z:     0.0000     Total:     1.5254

*** Psi4 exiting successfully. Buy a developer a beer!
