                               Psi4 1.3.2 release

  ==> Input File <==

--------------------------------------------------------------------------
#psi4
#
memory 32 gb

molecule  {
0 1
 Br       -1.5364899    -0.2357946     0.0000003
 Br        1.6153920    -0.1257290     0.0000000
  C        0.0000060     0.9489830    -0.0000030
  H       -0.0000020     1.5534780     0.9022070
  H        0.0000000     1.5536080    -0.9021240
units angstrom
no_reorient  #important for SAPT in psi4, default
symmetry c1  #important for SAPT in psi4, default
}

set PROPERTIES_ORIGIN ["COM"]
properties('MP2/aug-cc-pvtz', properties = ['dipole'])
--------------------------------------------------------------------------

    Molecular point group: c1
  Charge       = 0
  Multiplicity = 1
  Basis Set: AUG-CC-PVTZ
    Blend: AUG-CC-PVTZ
  Basis Set: (AUG-CC-PVTZ AUX)
    Blend: AUG-CC-PVTZ-JKFIT

    Orbital Energies [Eh]
    ---------------------

    Doubly Occupied:

       1A   -490.035275     2A   -490.033419     3A    -65.175099
       4A    -65.173297     5A    -58.530455     6A    -58.528926
       7A    -58.528905     8A    -58.528639     9A    -58.527130
      10A    -58.527107    11A    -11.360598    12A     -9.847941
      13A     -9.846191    14A     -7.459759    15A     -7.457976
      16A     -7.452515    17A     -7.452413    18A     -7.450806
      19A     -7.450690    20A     -3.203568    21A     -3.201753
      22A     -3.199827    23A     -3.199729    24A     -3.198057
      25A     -3.197946    26A     -3.190395    27A     -3.190393
      28A     -3.188713    29A     -3.188712    30A     -1.114732
      31A     -1.008215    32A     -0.878678    33A     -0.662155
      34A     -0.576999    35A     -0.531936    36A     -0.435510
      37A     -0.427246    38A     -0.417482    39A     -0.400113

  @DF-RHF Final Energy: -5183.96282350790261

   => Energetics <=

    Nuclear Repulsion Energy =            355.7281843200310618
    One-Electron Energy =               -7927.8234160633528518
    Two-Electron Energy =                2388.1324082354194616
    Total Energy =                      -5183.9628235079026126
  Basis Set: (AUG-CC-PVTZ AUX)
    Blend: AUG-CC-PVTZ-RI
    Molecular point group: c1

    Geometry (in Angstrom), charge = 0, multiplicity = 1:

       Center              X                  Y                   Z               Mass
    ------------   -----------------  -----------------  -----------------  -----------------
         BR          -1.572723873209    -0.154261536973    -0.000000115036    78.918337600000
         BR           1.579158026791    -0.044195936973    -0.000000415036    78.918337600000
         C           -0.036227973209     1.030516063027    -0.000003415036    12.000000000000
         H           -0.036235973209     1.635011063027     0.902206584964     1.007825032230
         H           -0.036233973209     1.635141063027    -0.902124415036     1.007825032230

  Basis Set: AUG-CC-PVTZ
    Blend: AUG-CC-PVTZ
  Basis Set: (AUG-CC-PVTZ AUX)
    Blend: AUG-CC-PVTZ-JKFIT
	 Reference Energy          =   -5183.9628235079026126 [Eh]
	 Singles Energy            =      -0.0000000000000000 [Eh]
	 Same-Spin Energy          =      -0.2174251052569521 [Eh]
	 Opposite-Spin Energy      =      -0.5532309714117927 [Eh]
	 Correlation Energy        =      -0.7706560766687447 [Eh]
	 Total Energy              =   -5184.7334795845717963 [Eh]

	 ================> DF-SCS-MP2 Energies <==================
	-----------------------------------------------------------
	 SCS Same-Spin Scale       =       0.3333333333333333 [-]
	 SCS Opposite-Spin Scale   =       1.2000000000000000 [-]
	 SCS Same-Spin Energy      =      -0.0724750350856507 [Eh]
	 SCS Opposite-Spin Energy  =      -0.6638771656941512 [Eh]
	 SCS Correlation Energy    =      -0.7363522007798019 [Eh]
	 SCS Total Energy          =   -5184.6991757086825601 [Eh]
	-----------------------------------------------------------

  Dipole Moment: [D]
     X:    -0.0731      Y:     1.5061      Z:     0.0000     Total:     1.5078

*** Psi4 exiting successfully. Buy a developer a beer!
