                               Psi4 1.3.2 release

  ==> Input File <==

--------------------------------------------------------------------------
#psi4
#
memory 32 gb

molecule  {
0 1
 Br       -1.7188816     0.0490146    -0.0000005
 Br        1.6153920    -0.1257290     0.0000000
  C        0.0000060     0.9489830    -0.0000030
  H       -0.0000020     1.5534780     0.9022070
  H        0.0000000     1.5536080    -0.9021240
units angstrom
no_reorient  #important for SAPT in psi4, default
symmetry c1  #important for SAPT in psi4, default
}

set PROPERTIES_ORIGIN ["COM"]
properties('MP2/aug-cc-pvtz', properties = ['dipole'])
--------------------------------------------------------------------------

    Molecular point group: c1
  Charge       = 0
  Multiplicity = 1
  Basis Set: AUG-CC-PVTZ
    Blend: AUG-CC-PVTZ
  Basis Set: (AUG-CC-PVTZ AUX)
    Blend: AUG-CC-PVTZ-JKFIT

    Orbital Energies [Eh]
    ---------------------

    Doubly Occupied:

       1A   -490.038372     2A   -490.035624     3A    -65.178094
       4A    -65.175431     5A    -58.533463     6A    -58.531946
       7A    -58.531898     8A    -58.530778     9A    -58.529288
      10A    -58.529236    11A    -11.359292    12A     -9.850822
      13A     -9.848241    14A     -7.462622    15A     -7.460000
      16A     -7.455452    17A     -7.455235    18A     -7.452925
      19A     -7.452688    20A     -3.206438    21A     -3.203770
      22A     -3.202776    23A     -3.202534    24A     -3.200171
      25A     -3.199910    26A     -3.193291    27A     -3.193288
      28A     -3.190798    29A     -3.190794    30A     -1.112388
      31A     -1.015163    32A     -0.875146    33A     -0.661788
      34A     -0.568309    35A     -0.539147    36A     -0.432503
      37A     -0.427146    38A     -0.414109    39A     -0.412588

  @DF-RHF Final Energy: -5183.96248184540218

   => Energetics <=

    Nuclear Repulsion Energy =            344.7494653676945973
    One-Electron Energy =               -7905.7169591889633011
    Two-Electron Energy =                2377.0050119758661822
    Total Energy =                      -5183.9624818454021806
  Basis Set: (AUG-CC-PVTZ AUX)
    Blend: AUG-CC-PVTZ-RI
    Molecular point group: c1

    Geometry (in Angstrom), charge = 0, multiplicity = 1:

       Center              X                  Y                   Z               Mass
    ------------   -----------------  -----------------  -----------------  -----------------
         BR          -1.671357324760    -0.000242936185    -0.000000547659    78.918337600000
         BR           1.662916275240    -0.174986536185    -0.000000047659    78.918337600000
         C            0.047530275240     0.899725463815    -0.000003047659    12.000000000000
         H            0.047522275240     1.504220463815     0.902206952341     1.007825032230
         H            0.047524275240     1.504350463815    -0.902124047659     1.007825032230

  Basis Set: AUG-CC-PVTZ
    Blend: AUG-CC-PVTZ
  Basis Set: (AUG-CC-PVTZ AUX)
    Blend: AUG-CC-PVTZ-JKFIT
	 Reference Energy          =   -5183.9624818454021806 [Eh]
	 Singles Energy            =      -0.0000000000000000 [Eh]
	 Same-Spin Energy          =      -0.2171385084105263 [Eh]
	 Opposite-Spin Energy      =      -0.5530704791647578 [Eh]
	 Correlation Energy        =      -0.7702089875752841 [Eh]
	 Total Energy              =   -5184.7326908329778234 [Eh]

	 ================> DF-SCS-MP2 Energies <==================
	-----------------------------------------------------------
	 SCS Same-Spin Scale       =       0.3333333333333333 [-]
	 SCS Opposite-Spin Scale   =       1.2000000000000000 [-]
	 SCS Same-Spin Energy      =      -0.0723795028035088 [Eh]
	 SCS Opposite-Spin Energy  =      -0.6636845749977094 [Eh]
	 SCS Correlation Energy    =      -0.7360640778012182 [Eh]
	 SCS Total Energy          =   -5184.6985459232037101 [Eh]
	-----------------------------------------------------------

  Dipole Moment: [D]
     X:     0.1089      Y:     1.4061      Z:     0.0000     Total:     1.4103

*** Psi4 exiting successfully. Buy a developer a beer!
