                               Psi4 1.3.2 release

  ==> Input File <==

--------------------------------------------------------------------------
#psi4
#
memory 32 gb

molecule  {
0 1
 Br       -1.5769021    -0.1814499     0.0000002
 Br        1.6153920    -0.1257290     0.0000000
  C        0.0000060     0.9489830    -0.0000030
  H       -0.0000020     1.5534780     0.9022070
  H        0.0000000     1.5536080    -0.9021240
units angstrom
no_reorient  #important for SAPT in psi4, default
symmetry c1  #important for SAPT in psi4, default
}

set PROPERTIES_ORIGIN ["COM"]
properties('MP2/aug-cc-pvtz', properties = ['dipole'])
--------------------------------------------------------------------------

    Molecular point group: c1
  Charge       = 0
  Multiplicity = 1
  Basis Set: AUG-CC-PVTZ
    Blend: AUG-CC-PVTZ
  Basis Set: (AUG-CC-PVTZ AUX)
    Blend: AUG-CC-PVTZ-JKFIT

    Orbital Energies [Eh]
    ---------------------

    Doubly Occupied:

       1A   -490.035372     2A   -490.034446     3A    -65.175187
       4A    -65.174289     5A    -58.530541     6A    -58.529635
       7A    -58.529023     8A    -58.528996     9A    -58.528128
      10A    -58.528098    11A    -11.360379    12A     -9.848015
      13A     -9.847142    14A     -7.459815    15A     -7.458927
      16A     -7.452618    17A     -7.452486    18A     -7.451765
      19A     -7.451627    20A     -3.203615    21A     -3.202710
      22A     -3.199908    23A     -3.199774    24A     -3.199025
      25A     -3.198885    26A     -3.190501    27A     -3.190500
      28A     -3.189661    29A     -3.189661    30A     -1.114086
      31A     -1.009738    32A     -0.877942    33A     -0.662047
      34A     -0.575219    35A     -0.533550    36A     -0.433647
      37A     -0.428349    38A     -0.416772    39A     -0.403000

  @DF-RHF Final Energy: -5183.96355569066782

   => Energetics <=

    Nuclear Repulsion Energy =            353.2951011526095044
    One-Electron Energy =               -7922.9271497641257156
    Two-Electron Energy =                2385.6684929208486210
    Total Energy =                      -5183.9635556906678175
  Basis Set: (AUG-CC-PVTZ AUX)
    Blend: AUG-CC-PVTZ-RI
    Molecular point group: c1

    Geometry (in Angstrom), charge = 0, multiplicity = 1:

       Center              X                  Y                   Z               Mass
    ------------   -----------------  -----------------  -----------------  -----------------
         BR          -1.594577909170    -0.124873109021    -0.000000169114    78.918337600000
         BR           1.597716190830    -0.069152209021    -0.000000369114    78.918337600000
         C           -0.017669809170     1.005559790979    -0.000003369114    12.000000000000
         H           -0.017677809170     1.610054790979     0.902206630886     1.007825032230
         H           -0.017675809170     1.610184790979    -0.902124369114     1.007825032230

  Basis Set: AUG-CC-PVTZ
    Blend: AUG-CC-PVTZ
  Basis Set: (AUG-CC-PVTZ AUX)
    Blend: AUG-CC-PVTZ-JKFIT
	 Reference Energy          =   -5183.9635556906678175 [Eh]
	 Singles Energy            =      -0.0000000000000000 [Eh]
	 Same-Spin Energy          =      -0.2173259624633671 [Eh]
	 Opposite-Spin Energy      =      -0.5531230231495323 [Eh]
	 Correlation Energy        =      -0.7704489856128993 [Eh]
	 Total Energy              =   -5184.7340046762810744 [Eh]

	 ================> DF-SCS-MP2 Energies <==================
	-----------------------------------------------------------
	 SCS Same-Spin Scale       =       0.3333333333333333 [-]
	 SCS Opposite-Spin Scale   =       1.2000000000000000 [-]
	 SCS Same-Spin Energy      =      -0.0724419874877890 [Eh]
	 SCS Opposite-Spin Energy  =      -0.6637476277794387 [Eh]
	 SCS Correlation Energy    =      -0.7361896152672278 [Eh]
	 SCS Total Energy          =   -5184.6997453059348118 [Eh]
	-----------------------------------------------------------

  Dipole Moment: [D]
     X:    -0.0366      Y:     1.4889      Z:     0.0000     Total:     1.4894

*** Psi4 exiting successfully. Buy a developer a beer!
