                               Psi4 1.4a3.dev225

  ==> Input File <==

--------------------------------------------------------------------------
#psi4
#
memory 32 gb

molecule  {
0 1
 Br        1.6153390    -0.1257620     0.0000000
 Br       -1.6153390    -0.1257620     0.0000000
  C        0.0166476     0.9384435     0.0000000
  H        0.0000000     1.5531010    -0.9023440
  H        0.0000000     1.5531010     0.9023440
units angstrom
no_reorient  #important for SAPT in psi4, default
symmetry c1  #important for SAPT in psi4, default
}

set PROPERTIES_ORIGIN ["COM"]
properties('MP2/aug-cc-pvtz', properties = ['dipole'])
--------------------------------------------------------------------------

    Molecular point group: c1
  Charge       = 0
  Multiplicity = 1
  Basis Set: AUG-CC-PVTZ
    Blend: AUG-CC-PVTZ
  Basis Set: (AUG-CC-PVTZ AUX)
    Blend: AUG-CC-PVTZ-JKFIT

    Orbital Energies [Eh]
    ---------------------

    Doubly Occupied:

       1A   -490.037059     2A   -490.034114     3A    -65.176946
       4A    -65.173905     5A    -58.532289     6A    -58.530788
       7A    -58.530750     8A    -58.529257     9A    -58.527749
      10A    -58.527716    11A    -11.360047    12A     -9.849890
      13A     -9.846683    14A     -7.461727    15A     -7.458442
      16A     -7.454528    17A     -7.454351    18A     -7.451315
      19A     -7.451160    20A     -3.205544    21A     -3.202215
      22A     -3.201814    23A     -3.201627    24A     -3.198568
      25A     -3.198408    26A     -3.192389    27A     -3.192388
      28A     -3.189215    29A     -3.189214    30A     -1.114653
      31A     -1.012036    32A     -0.875261    33A     -0.658672
      34A     -0.574946    35A     -0.536353    36A     -0.431569
      37A     -0.429818    38A     -0.415243    39A     -0.406194

  @DF-RHF Final Energy: -5183.96356871966782

   => Energetics <=

    Nuclear Repulsion Energy =            351.3145872622691854
    One-Electron Energy =               -7918.9266299387081744
    Two-Electron Energy =                2383.6484739567713405
    Total Energy =                      -5183.9635687196678191
  Basis Set: (AUG-CC-PVTZ AUX)
    Blend: AUG-CC-PVTZ-RI
    Molecular point group: c1

    Geometry (in Angstrom), charge = 0, multiplicity = 1:

       Center              X                  Y                   Z               Mass
    ------------   -----------------  -----------------  -----------------  -----------------
         BR           1.614176541478    -0.094002023477    -0.000000000000    78.918337600000
         BR          -1.616501458522    -0.094002023477    -0.000000000000    78.918337600000
         C            0.015485141478     0.970203476523    -0.000000000000    12.000000000000
         H           -0.001162458522     1.584860976523    -0.902344000000     1.007825032230
         H           -0.001162458522     1.584860976523     0.902344000000     1.007825032230

  Basis Set: AUG-CC-PVTZ
    Blend: AUG-CC-PVTZ
  Basis Set: (AUG-CC-PVTZ AUX)
    Blend: AUG-CC-PVTZ-JKFIT
	 Reference Energy          =   -5183.9635687196678191 [Eh]
	 Singles Energy            =      -0.0000000000000000 [Eh]
	 Same-Spin Energy          =      -0.2173824558791588 [Eh]
	 Opposite-Spin Energy      =      -0.5531661205487773 [Eh]
	 Correlation Energy        =      -0.7705485764279361 [Eh]
	 Total Energy              =   -5184.7341172960959739 [Eh]

	 ================> DF-SCS-MP2 Energies <==================
	-----------------------------------------------------------
	 SCS Same-Spin Scale       =       0.3333333333333333 [-]
	 SCS Opposite-Spin Scale   =       1.2000000000000000 [-]
	 SCS Same-Spin Energy      =      -0.0724608186263863 [Eh]
	 SCS Opposite-Spin Energy  =      -0.6637993446585327 [Eh]
	 SCS Correlation Energy    =      -0.7362601632849189 [Eh]
	 SCS Total Energy          =   -5184.6998288829527155 [Eh]
	-----------------------------------------------------------

  Dipole Moment: [D]
     X:     0.0896      Y:     1.4599      Z:     0.0000     Total:     1.4627

*** Psi4 exiting successfully. Buy a developer a beer!
