                               Psi4 1.3.2 release

  ==> Input File <==

--------------------------------------------------------------------------
#psi4
#
memory 32 gb

molecule  {
0 1
 Br       -1.6153930    -0.1257280     0.0000000
 Br        1.6153920    -0.1257290     0.0000000
  C        0.0000060     0.9489830    -0.0000030
  H       -0.0000020     1.5534780     0.9022070
  H        0.0000000     1.5536080    -0.9021240
units angstrom
no_reorient  #important for SAPT in psi4, default
symmetry c1  #important for SAPT in psi4, default
}

set PROPERTIES_ORIGIN ["COM"]
properties('MP2/aug-cc-pvtz', properties = ['dipole'])
--------------------------------------------------------------------------

    Molecular point group: c1
  Charge       = 0
  Multiplicity = 1
  Basis Set: AUG-CC-PVTZ
    Blend: AUG-CC-PVTZ
  Basis Set: (AUG-CC-PVTZ AUX)
    Blend: AUG-CC-PVTZ-JKFIT

    Orbital Energies [Eh]
    ---------------------

    Doubly Occupied:

       1A   -490.035456     2A   -490.035454     3A    -65.175265
       4A    -65.175264     5A    -58.530617     6A    -58.530616
       7A    -58.529109     8A    -58.529107     9A    -58.529074
      10A    -58.529073    11A    -11.360137    12A     -9.848084
      13A     -9.848080    14A     -7.459869    15A     -7.459867
      16A     -7.452711    17A     -7.452709    18A     -7.452551
      19A     -7.452549    20A     -3.203670    21A     -3.203647
      22A     -3.199983    23A     -3.199981    24A     -3.199815
      25A     -3.199813    26A     -3.190595    27A     -3.190595
      28A     -3.190592    29A     -3.190592    30A     -1.113536
      31A     -1.011189    32A     -0.877224    33A     -0.661955
      34A     -0.573448    35A     -0.535089    36A     -0.431894
      37A     -0.429433    38A     -0.416077    39A     -0.405677

  @DF-RHF Final Energy: -5183.96386642436937

   => Energetics <=

    Nuclear Repulsion Energy =            350.9861078335580373
    One-Electron Energy =               -7918.2791543200810338
    Two-Electron Energy =                2383.3291800621536822
    Total Energy =                      -5183.9638664243693711
  Basis Set: (AUG-CC-PVTZ AUX)
    Blend: AUG-CC-PVTZ-RI
    Molecular point group: c1

    Geometry (in Angstrom), charge = 0, multiplicity = 1:

       Center              X                  Y                   Z               Mass
    ------------   -----------------  -----------------  -----------------  -----------------
         BR          -1.615392948014    -0.094739921360    -0.000000277270    78.918337600000
         BR           1.615392051986    -0.094740921360    -0.000000277270    78.918337600000
         C            0.000006051986     0.979971078640    -0.000003277270    12.000000000000
         H           -0.000001948014     1.584466078640     0.902206722730     1.007825032230
         H            0.000000051986     1.584596078640    -0.902124277270     1.007825032230

  Basis Set: AUG-CC-PVTZ
    Blend: AUG-CC-PVTZ
  Basis Set: (AUG-CC-PVTZ AUX)
    Blend: AUG-CC-PVTZ-JKFIT
	 Reference Energy          =   -5183.9638664243693711 [Eh]
	 Singles Energy            =      -0.0000000000000000 [Eh]
	 Same-Spin Energy          =      -0.2172489629894745 [Eh]
	 Opposite-Spin Energy      =      -0.5530544044980761 [Eh]
	 Correlation Energy        =      -0.7703033674875506 [Eh]
	 Total Energy              =   -5184.7341697918573118 [Eh]

	 ================> DF-SCS-MP2 Energies <==================
	-----------------------------------------------------------
	 SCS Same-Spin Scale       =       0.3333333333333333 [-]
	 SCS Opposite-Spin Scale   =       1.2000000000000000 [-]
	 SCS Same-Spin Energy      =      -0.0724163209964915 [Eh]
	 SCS Opposite-Spin Energy  =      -0.6636652853976913 [Eh]
	 SCS Correlation Energy    =      -0.7360816063941829 [Eh]
	 SCS Total Energy          =   -5184.6999480307631529 [Eh]
	-----------------------------------------------------------

  Dipole Moment: [D]
     X:     0.0000      Y:     1.4703      Z:     0.0000     Total:     1.4703

*** Psi4 exiting successfully. Buy a developer a beer!
