                               Psi4 1.4a3.dev225

  ==> Input File <==

--------------------------------------------------------------------------
#psi4
#
memory 32 gb

molecule  {
0 1
 Br        1.6153390    -0.1257620     0.0000000
 Br       -1.6153390    -0.1257620     0.0000000
  C        0.0416206     0.9218196     0.0000000
  H        0.0000000     1.5531010    -0.9023440
  H        0.0000000     1.5531010     0.9023440
units angstrom
no_reorient  #important for SAPT in psi4, default
symmetry c1  #important for SAPT in psi4, default
}

set PROPERTIES_ORIGIN ["COM"]
properties('MP2/aug-cc-pvtz', properties = ['dipole'])
--------------------------------------------------------------------------

    Molecular point group: c1
  Charge       = 0
  Multiplicity = 1
  Basis Set: AUG-CC-PVTZ
    Blend: AUG-CC-PVTZ
  Basis Set: (AUG-CC-PVTZ AUX)
    Blend: AUG-CC-PVTZ-JKFIT

    Orbital Energies [Eh]
    ---------------------

    Doubly Occupied:

       1A   -490.039388     2A   -490.032160     3A    -65.179409
       4A    -65.171925     5A    -58.534735     6A    -58.533251
       7A    -58.533207     8A    -58.527277     9A    -58.525771
      10A    -58.525739    11A    -11.360156    12A     -9.852574
      13A     -9.844647    14A     -7.464488    15A     -7.457231
      16A     -7.457025    17A     -7.456368    18A     -7.449288
      19A     -7.449135    20A     -3.208342    21A     -3.204531
      22A     -3.204310    23A     -3.200115    24A     -3.196511
      25A     -3.196360    26A     -3.195061    27A     -3.195060
      28A     -3.187209    29A     -3.187208    30A     -1.117108
      31A     -1.013016    32A     -0.872075    33A     -0.653368
      34A     -0.578320    35A     -0.537921    36A     -0.430709
      37A     -0.430596    38A     -0.413585    39A     -0.406876

  @DF-RHF Final Energy: -5183.96219616825874

   => Energetics <=

    Nuclear Repulsion Energy =            351.8294128936803418
    One-Electron Energy =               -7919.9391080997365862
    Two-Electron Energy =                2384.1474990377973882
    Total Energy =                      -5183.9621961682587425
  Basis Set: (AUG-CC-PVTZ AUX)
    Blend: AUG-CC-PVTZ-RI
    Molecular point group: c1

    Geometry (in Angstrom), charge = 0, multiplicity = 1:

       Center              X                  Y                   Z               Mass
    ------------   -----------------  -----------------  -----------------  -----------------
         BR           1.612432741972    -0.092841219865    -0.000000000000    78.918337600000
         BR          -1.618245258028    -0.092841219865    -0.000000000000    78.918337600000
         C            0.038714341972     0.954740380135    -0.000000000000    12.000000000000
         H           -0.002906258028     1.586021780135    -0.902344000000     1.007825032230
         H           -0.002906258028     1.586021780135     0.902344000000     1.007825032230

  Basis Set: AUG-CC-PVTZ
    Blend: AUG-CC-PVTZ
  Basis Set: (AUG-CC-PVTZ AUX)
    Blend: AUG-CC-PVTZ-JKFIT
	 Reference Energy          =   -5183.9621961682587425 [Eh]
	 Singles Energy            =      -0.0000000000000000 [Eh]
	 Same-Spin Energy          =      -0.2176335299603993 [Eh]
	 Opposite-Spin Energy      =      -0.5534001745026637 [Eh]
	 Correlation Energy        =      -0.7710337044630630 [Eh]
	 Total Energy              =   -5184.7332298727214948 [Eh]

	 ================> DF-SCS-MP2 Energies <==================
	-----------------------------------------------------------
	 SCS Same-Spin Scale       =       0.3333333333333333 [-]
	 SCS Opposite-Spin Scale   =       1.2000000000000000 [-]
	 SCS Same-Spin Energy      =      -0.0725445099867998 [Eh]
	 SCS Opposite-Spin Energy  =      -0.6640802094031963 [Eh]
	 SCS Correlation Energy    =      -0.7366247193899961 [Eh]
	 SCS Total Energy          =   -5184.6988208876491626 [Eh]
	-----------------------------------------------------------

  Dipole Moment: [D]
     X:     0.2242      Y:     1.4434      Z:    -0.0000     Total:     1.4607

*** Psi4 exiting successfully. Buy a developer a beer!
