                               Psi4 1.3.2 release

  ==> Input File <==

--------------------------------------------------------------------------
#psi4
#
memory 32 gb

molecule  {
0 1
 Br       -1.5961368    -0.1525384    -0.0591345
 Br        1.6153920    -0.1257290     0.0000000
  C        0.0000060     0.9489830    -0.0000030
  H       -0.0000020     1.5534780     0.9022070
  H        0.0000000     1.5536080    -0.9021240
units angstrom
no_reorient  #important for SAPT in psi4, default
symmetry c1  #important for SAPT in psi4, default
}

set PROPERTIES_ORIGIN ["COM"]
properties('MP2/aug-cc-pvtz', properties = ['dipole'])
--------------------------------------------------------------------------

    Molecular point group: c1
  Charge       = 0
  Multiplicity = 1
  Basis Set: AUG-CC-PVTZ
    Blend: AUG-CC-PVTZ
  Basis Set: (AUG-CC-PVTZ AUX)
    Blend: AUG-CC-PVTZ-JKFIT

    Orbital Energies [Eh]
    ---------------------

    Doubly Occupied:

       1A   -490.035425     2A   -490.034961     3A    -65.175237
       4A    -65.174787     5A    -58.530590     6A    -58.530136
       7A    -58.529077     8A    -58.529046     9A    -58.528628
      10A    -58.528596    11A    -11.360249    12A     -9.848060
      13A     -9.847621    14A     -7.459853    15A     -7.459407
      16A     -7.452675    17A     -7.452528    18A     -7.452247
      19A     -7.452098    20A     -3.203649    21A     -3.203193
      22A     -3.199957    23A     -3.199805    24A     -3.199513
      25A     -3.199358    26A     -3.190558    27A     -3.190557
      28A     -3.190137    29A     -3.190137    30A     -1.113812
      31A     -1.010493    32A     -0.877567    33A     -0.662027
      34A     -0.574299    35A     -0.534319    36A     -0.432772
      37A     -0.428909    38A     -0.416353    39A     -0.404389

  @DF-RHF Final Energy: -5183.96364603313032

   => Energetics <=

    Nuclear Repulsion Energy =            352.1111845056744869
    One-Electron Energy =               -7920.5436105042044801
    Two-Electron Energy =                2384.4687799653993352
    Total Energy =                      -5183.9636460331303169
  Basis Set: (AUG-CC-PVTZ AUX)
    Blend: AUG-CC-PVTZ-RI
    Molecular point group: c1

    Geometry (in Angstrom), charge = 0, multiplicity = 1:

       Center              X                  Y                   Z               Mass
    ------------   -----------------  -----------------  -----------------  -----------------
         BR          -1.604979615226    -0.109238400674    -0.031978924548    78.918337600000
         BR           1.606549184774    -0.082429000674     0.027155575452    78.918337600000
         C           -0.008836815226     0.992282999326     0.027152575452    12.000000000000
         H           -0.008844815226     1.596777999326     0.929362575452     1.007825032230
         H           -0.008842815226     1.596907999326    -0.874968424548     1.007825032230

  Basis Set: AUG-CC-PVTZ
    Blend: AUG-CC-PVTZ
  Basis Set: (AUG-CC-PVTZ AUX)
    Blend: AUG-CC-PVTZ-JKFIT
	 Reference Energy          =   -5183.9636460331303169 [Eh]
	 Singles Energy            =      -0.0000000000000000 [Eh]
	 Same-Spin Energy          =      -0.2172895151248293 [Eh]
	 Opposite-Spin Energy      =      -0.5530934769545246 [Eh]
	 Correlation Energy        =      -0.7703829920793539 [Eh]
	 Total Energy              =   -5184.7340290252095656 [Eh]

	 ================> DF-SCS-MP2 Energies <==================
	-----------------------------------------------------------
	 SCS Same-Spin Scale       =       0.3333333333333333 [-]
	 SCS Opposite-Spin Scale   =       1.2000000000000000 [-]
	 SCS Same-Spin Energy      =      -0.0724298383749431 [Eh]
	 SCS Opposite-Spin Energy  =      -0.6637121723454295 [Eh]
	 SCS Correlation Energy    =      -0.7361420107203726 [Eh]
	 SCS Total Energy          =   -5184.6997880438502762 [Eh]
	-----------------------------------------------------------

  Dipole Moment: [D]
     X:    -0.0181      Y:     1.4794      Z:     0.0225     Total:     1.4797

*** Psi4 exiting successfully. Buy a developer a beer!
