                               Psi4 1.3.2 release

  ==> Input File <==

--------------------------------------------------------------------------
#psi4
#
memory 32 gb

molecule  {
0 1
 Br       -1.6242844    -0.1118297     0.0295717
 Br        1.6153920    -0.1257290     0.0000000
  C        0.0000060     0.9489830    -0.0000030
  H       -0.0000020     1.5534780     0.9022070
  H        0.0000000     1.5536080    -0.9021240
units angstrom
no_reorient  #important for SAPT in psi4, default
symmetry c1  #important for SAPT in psi4, default
}

set PROPERTIES_ORIGIN ["COM"]
properties('MP2/aug-cc-pvtz', properties = ['dipole'])
--------------------------------------------------------------------------

    Molecular point group: c1
  Charge       = 0
  Multiplicity = 1
  Basis Set: AUG-CC-PVTZ
    Blend: AUG-CC-PVTZ
  Basis Set: (AUG-CC-PVTZ AUX)
    Blend: AUG-CC-PVTZ-JKFIT

    Orbital Energies [Eh]
    ---------------------

    Doubly Occupied:

       1A   -490.035698     2A   -490.035475     3A    -65.175499
       4A    -65.175283     5A    -58.530853     6A    -58.530635
       7A    -58.529344     8A    -58.529308     9A    -58.529128
      10A    -58.529092    11A    -11.360072    12A     -9.848309
      13A     -9.848099    14A     -7.460095    15A     -7.459882
      16A     -7.452937    17A     -7.452773    18A     -7.452732
      19A     -7.452566    20A     -3.203888    21A     -3.203670
      22A     -3.200213    23A     -3.200038    24A     -3.200001
      25A     -3.199825    26A     -3.190818    27A     -3.190817
      28A     -3.190616    29A     -3.190615    30A     -1.113420
      31A     -1.011533    32A     -0.877050    33A     -0.661943
      34A     -0.573016    35A     -0.535443    36A     -0.431492
      37A     -0.429693    38A     -0.415895    39A     -0.406296

  @DF-RHF Final Energy: -5183.96385049472883

   => Energetics <=

    Nuclear Repulsion Energy =            350.4456602609128026
    One-Electron Energy =               -7917.1908929998371605
    Two-Electron Energy =                2382.7813822441962657
    Total Energy =                      -5183.9638504947288311
  Basis Set: (AUG-CC-PVTZ AUX)
    Blend: AUG-CC-PVTZ-RI
    Molecular point group: c1

    Geometry (in Angstrom), charge = 0, multiplicity = 1:

       Center              X                  Y                   Z               Mass
    ------------   -----------------  -----------------  -----------------  -----------------
         BR          -1.620201223122    -0.087224023982     0.015991452832    78.918337600000
         BR           1.619475176878    -0.101123323982    -0.013580247168    78.918337600000
         C            0.004089176878     0.973588676018    -0.013583247168    12.000000000000
         H            0.004081176878     1.578083676018     0.888626752832     1.007825032230
         H            0.004083176878     1.578213676018    -0.915704247168     1.007825032230

  Basis Set: AUG-CC-PVTZ
    Blend: AUG-CC-PVTZ
  Basis Set: (AUG-CC-PVTZ AUX)
    Blend: AUG-CC-PVTZ-JKFIT
	 Reference Energy          =   -5183.9638504947288311 [Eh]
	 Singles Energy            =      -0.0000000000000000 [Eh]
	 Same-Spin Energy          =      -0.2172348546501499 [Eh]
	 Opposite-Spin Energy      =      -0.5530461060210241 [Eh]
	 Correlation Energy        =      -0.7702809606711740 [Eh]
	 Total Energy              =   -5184.7341314553996199 [Eh]

	 ================> DF-SCS-MP2 Energies <==================
	-----------------------------------------------------------
	 SCS Same-Spin Scale       =       0.3333333333333333 [-]
	 SCS Opposite-Spin Scale   =       1.2000000000000000 [-]
	 SCS Same-Spin Energy      =      -0.0724116182167166 [Eh]
	 SCS Opposite-Spin Energy  =      -0.6636553272252289 [Eh]
	 SCS Correlation Energy    =      -0.7360669454419455 [Eh]
	 SCS Total Energy          =   -5184.6999174401707933 [Eh]
	-----------------------------------------------------------

  Dipole Moment: [D]
     X:     0.0089      Y:     1.4655      Z:    -0.0113     Total:     1.4655

*** Psi4 exiting successfully. Buy a developer a beer!
