                               Psi4 1.4a3.dev225

  ==> Input File <==

--------------------------------------------------------------------------
#psi4
#
memory 32 gb

molecule  {
0 1
 Br        1.6153390    -0.1257620     0.0000000
 Br       -1.6153390    -0.1257620     0.0000000
  C       -0.0416226     0.9772324     0.0000000
  H        0.0000000     1.5531010    -0.9023440
  H        0.0000000     1.5531010     0.9023440
units angstrom
no_reorient  #important for SAPT in psi4, default
symmetry c1  #important for SAPT in psi4, default
}

set PROPERTIES_ORIGIN ["COM"]
properties('MP2/aug-cc-pvtz', properties = ['dipole'])
--------------------------------------------------------------------------

    Molecular point group: c1
  Charge       = 0
  Multiplicity = 1
  Basis Set: AUG-CC-PVTZ
    Blend: AUG-CC-PVTZ
  Basis Set: (AUG-CC-PVTZ AUX)
    Blend: AUG-CC-PVTZ-JKFIT

    Orbital Energies [Eh]
    ---------------------

    Doubly Occupied:

       1A   -490.038848     2A   -490.031120     3A    -65.178702
       4A    -65.170777     5A    -58.534053     6A    -58.532543
       7A    -58.532504     8A    -58.526140     9A    -58.524623
      10A    -58.524597    11A    -11.360925    12A     -9.851617
      13A     -9.843326    14A     -7.463464    15A     -7.456234
      16A     -7.456060    17A     -7.454983    18A     -7.447944
      19A     -7.447822    20A     -3.207298    21A     -3.203556
      22A     -3.203360    23A     -3.198700    24A     -3.195158
      25A     -3.195034    26A     -3.194079    27A     -3.194079
      28A     -3.185898    29A     -3.185898    30A     -1.112253
      31A     -1.008148    32A     -0.882262    33A     -0.671278
      34A     -0.571745    35A     -0.530704    36A     -0.431788
      37A     -0.429298    38A     -0.417087    39A     -0.403888

  @DF-RHF Final Energy: -5183.96275829873139

   => Energetics <=

    Nuclear Repulsion Energy =            350.1798186447643388
    One-Electron Energy =               -7916.6895696413703263
    Two-Electron Energy =                2382.5469926978748845
    Total Energy =                      -5183.9627582987313872
  Basis Set: (AUG-CC-PVTZ AUX)
    Blend: AUG-CC-PVTZ-RI
    Molecular point group: c1

    Geometry (in Angstrom), charge = 0, multiplicity = 1:

       Center              X                  Y                   Z               Mass
    ------------   -----------------  -----------------  -----------------  -----------------
         BR           1.618245397683    -0.096710551275    -0.000000000000    78.918337600000
         BR          -1.612432602317    -0.096710551275    -0.000000000000    78.918337600000
         C           -0.038716202317     1.006283848725    -0.000000000000    12.000000000000
         H            0.002906397683     1.582152448725    -0.902344000000     1.007825032230
         H            0.002906397683     1.582152448725     0.902344000000     1.007825032230

  Basis Set: AUG-CC-PVTZ
    Blend: AUG-CC-PVTZ
  Basis Set: (AUG-CC-PVTZ AUX)
    Blend: AUG-CC-PVTZ-JKFIT
	 Reference Energy          =   -5183.9627582987313872 [Eh]
	 Singles Energy            =      -0.0000000000000000 [Eh]
	 Same-Spin Energy          =      -0.2169885386187607 [Eh]
	 Opposite-Spin Energy      =      -0.5528733995443784 [Eh]
	 Correlation Energy        =      -0.7698619381631391 [Eh]
	 Total Energy              =   -5184.7326202368949453 [Eh]

	 ================> DF-SCS-MP2 Energies <==================
	-----------------------------------------------------------
	 SCS Same-Spin Scale       =       0.3333333333333333 [-]
	 SCS Opposite-Spin Scale   =       1.2000000000000000 [-]
	 SCS Same-Spin Energy      =      -0.0723295128729202 [Eh]
	 SCS Opposite-Spin Energy  =      -0.6634480794532541 [Eh]
	 SCS Correlation Energy    =      -0.7357775923261743 [Eh]
	 SCS Total Energy          =   -5184.6985358910578725 [Eh]
	-----------------------------------------------------------

  Dipole Moment: [D]
     X:    -0.2244      Y:     1.4975      Z:     0.0000     Total:     1.5142

*** Psi4 exiting successfully. Buy a developer a beer!
