                               Psi4 1.3.2 release

  ==> Input File <==

--------------------------------------------------------------------------
#psi4
#
memory 32 gb

molecule  {
0 1
 Br       -1.6153930    -0.1257280     0.0000000
 Br        1.6153920    -0.1257290     0.0000000
  C       -0.1665097     0.8382016    -0.0000027
  H       -0.0000020     1.5534780     0.9022070
  H        0.0000000     1.5536080    -0.9021240
units angstrom
no_reorient  #important for SAPT in psi4, default
symmetry c1  #important for SAPT in psi4, default
}

set PROPERTIES_ORIGIN ["COM"]
properties('MP2/aug-cc-pvtz', properties = ['dipole'])
--------------------------------------------------------------------------

    Molecular point group: c1
  Charge       = 0
  Multiplicity = 1
  Basis Set: AUG-CC-PVTZ
    Blend: AUG-CC-PVTZ
  Basis Set: (AUG-CC-PVTZ AUX)
    Blend: AUG-CC-PVTZ-JKFIT

    Orbital Energies [Eh]
    ---------------------

    Doubly Occupied:

       1A   -490.049738     2A   -490.022463     3A    -65.190833
       4A    -65.162126     5A    -58.545974     6A    -58.544677
       7A    -58.544585     8A    -58.517469     9A    -58.515981
      10A    -58.515948    11A    -11.364455    12A     -9.865682
      13A     -9.834615    14A     -7.478035    15A     -7.470531
      16A     -7.470111    17A     -7.446131    18A     -7.439311
      19A     -7.439142    20A     -3.222041    21A     -3.217758
      22A     -3.217308    23A     -3.208285    24A     -3.208278
      25A     -3.189740    26A     -3.186378    27A     -3.186228
      28A     -3.177343    29A     -3.177340    30A     -1.144337
      31A     -1.010942    32A     -0.854484    33A     -0.630399
      34A     -0.605347    35A     -0.544001    36A     -0.433699
      37A     -0.420508    38A     -0.407549    39A     -0.402082

  @DF-RHF Final Energy: -5183.93456995434553

   => Energetics <=

    Nuclear Repulsion Energy =            354.7572934923903176
    One-Electron Energy =               -7925.6600170869005524
    Two-Electron Energy =                2386.9681536401649282
    Total Energy =                      -5183.9345699543455339
  Basis Set: (AUG-CC-PVTZ AUX)
    Blend: AUG-CC-PVTZ-RI
    Molecular point group: c1

    Geometry (in Angstrom), charge = 0, multiplicity = 1:

       Center              X                  Y                   Z               Mass
    ------------   -----------------  -----------------  -----------------  -----------------
         BR          -1.603765590648    -0.087004344911    -0.000000298218    78.918337600000
         BR           1.627019409352    -0.087005344911    -0.000000298218    78.918337600000
         C           -0.154882290648     0.876925255089    -0.000002998218    12.000000000000
         H            0.011625409352     1.592201655089     0.902206701782     1.007825032230
         H            0.011627409352     1.592331655089    -0.902124298218     1.007825032230

  Basis Set: AUG-CC-PVTZ
    Blend: AUG-CC-PVTZ
  Basis Set: (AUG-CC-PVTZ AUX)
    Blend: AUG-CC-PVTZ-JKFIT
	 Reference Energy          =   -5183.9345699543455339 [Eh]
	 Singles Energy            =      -0.0000000000000000 [Eh]
	 Same-Spin Energy          =      -0.2198523997507489 [Eh]
	 Opposite-Spin Energy      =      -0.5559144220852089 [Eh]
	 Correlation Energy        =      -0.7757668218359578 [Eh]
	 Total Energy              =   -5184.7103367761810659 [Eh]

	 ================> DF-SCS-MP2 Energies <==================
	-----------------------------------------------------------
	 SCS Same-Spin Scale       =       0.3333333333333333 [-]
	 SCS Opposite-Spin Scale   =       1.2000000000000000 [-]
	 SCS Same-Spin Energy      =      -0.0732841332502496 [Eh]
	 SCS Opposite-Spin Energy  =      -0.6670973065022506 [Eh]
	 SCS Correlation Energy    =      -0.7403814397525003 [Eh]
	 SCS Total Energy          =   -5184.6749513940976613 [Eh]
	-----------------------------------------------------------

  Dipole Moment: [D]
     X:    -0.9236      Y:     1.3532      Z:     0.0001     Total:     1.6384

*** Psi4 exiting successfully. Buy a developer a beer!
