                               Psi4 1.3.2 release

  ==> Input File <==

--------------------------------------------------------------------------
#psi4
#
memory 32 gb

molecule  {
0 1
 Br       -1.5518162    -0.2021020    -0.1771154
 Br        1.6153920    -0.1257290     0.0000000
  C        0.0000060     0.9489830    -0.0000030
  H       -0.0000020     1.5534780     0.9022070
  H        0.0000000     1.5536080    -0.9021240
units angstrom
no_reorient  #important for SAPT in psi4, default
symmetry c1  #important for SAPT in psi4, default
}

set PROPERTIES_ORIGIN ["COM"]
properties('MP2/aug-cc-pvtz', properties = ['dipole'])
--------------------------------------------------------------------------

    Molecular point group: c1
  Charge       = 0
  Multiplicity = 1
  Basis Set: AUG-CC-PVTZ
    Blend: AUG-CC-PVTZ
  Basis Set: (AUG-CC-PVTZ AUX)
    Blend: AUG-CC-PVTZ-JKFIT

    Orbital Energies [Eh]
    ---------------------

    Doubly Occupied:

       1A   -490.035402     2A   -490.033933     3A    -65.175224
       4A    -65.173793     5A    -58.530580     6A    -58.529137
       7A    -58.529055     8A    -58.529028     9A    -58.527629
      10A    -58.527602    11A    -11.360410    12A     -9.848065
      13A     -9.846665    14A     -7.459881    15A     -7.458450
      16A     -7.452651    17A     -7.452524    18A     -7.451285
      19A     -7.451157    20A     -3.203687    21A     -3.202230
      22A     -3.199965    23A     -3.199838    24A     -3.198541
      25A     -3.198413    26A     -3.190521    27A     -3.190520
      28A     -3.189187    29A     -3.189185    30A     -1.114551
      31A     -1.009060    32A     -0.878237    33A     -0.662350
      34A     -0.575938    35A     -0.532549    36A     -0.434789
      37A     -0.427844    38A     -0.416600    39A     -0.401606

  @DF-RHF Final Energy: -5183.96219445700171

   => Energetics <=

    Nuclear Repulsion Energy =            354.5408687348702301
    One-Electron Energy =               -7925.4299599869773374
    Two-Electron Energy =                2386.9268967951056766
    Total Energy =                      -5183.9621944570017149
  Basis Set: (AUG-CC-PVTZ AUX)
    Blend: AUG-CC-PVTZ-RI
    Molecular point group: c1

    Geometry (in Angstrom), charge = 0, multiplicity = 1:

       Center              X                  Y                   Z               Mass
    ------------   -----------------  -----------------  -----------------  -----------------
         BR          -1.581012001827    -0.136041314070    -0.095780420910    78.918337600000
         BR           1.586196198173    -0.059668314070     0.081334979090    78.918337600000
         C           -0.029189801827     1.015043685930     0.081331979090    12.000000000000
         H           -0.029197801827     1.619538685930     0.983541979090     1.007825032230
         H           -0.029195801827     1.619668685930    -0.820789020910     1.007825032230

  Basis Set: AUG-CC-PVTZ
    Blend: AUG-CC-PVTZ
  Basis Set: (AUG-CC-PVTZ AUX)
    Blend: AUG-CC-PVTZ-JKFIT
	 Reference Energy          =   -5183.9621944570017149 [Eh]
	 Singles Energy            =      -0.0000000000000000 [Eh]
	 Same-Spin Energy          =      -0.2174199911332136 [Eh]
	 Opposite-Spin Energy      =      -0.5532617454351401 [Eh]
	 Correlation Energy        =      -0.7706817365683537 [Eh]
	 Total Energy              =   -5184.7328761935705188 [Eh]

	 ================> DF-SCS-MP2 Energies <==================
	-----------------------------------------------------------
	 SCS Same-Spin Scale       =       0.3333333333333333 [-]
	 SCS Opposite-Spin Scale   =       1.2000000000000000 [-]
	 SCS Same-Spin Energy      =      -0.0724733303777379 [Eh]
	 SCS Opposite-Spin Energy  =      -0.6639140945221681 [Eh]
	 SCS Correlation Energy    =      -0.7363874248999059 [Eh]
	 SCS Total Energy          =   -5184.6985818819011911 [Eh]
	-----------------------------------------------------------

  Dipole Moment: [D]
     X:    -0.0562      Y:     1.4957      Z:     0.0661     Total:     1.4982

*** Psi4 exiting successfully. Buy a developer a beer!
