                               Psi4 1.3.2 release

  ==> Input File <==

--------------------------------------------------------------------------
#psi4
#
memory 32 gb

molecule  {
0 1
  O       -1.3267430     1.3986080    -0.4043610
  N        1.4095890     0.5516460     0.0718950
  N       -2.0453878    -0.6827574     0.1248915
  C        0.3280180    -0.2917100    -0.0638180
  C        0.8200520    -1.5979270    -0.1446940
  C        2.5591820    -0.1927100     0.0828840
  C        2.2225030    -1.5310870    -0.0531270
  C       -1.0490640     0.2229840    -0.1220780
  C        1.3775260     2.0070720     0.1804590
  C       -3.4119730    -0.3353390     0.1671430
  H        0.2239390    -2.4879400    -0.3067250
  H        3.5227950     0.2883690     0.1888050
  H        2.9194420    -2.3581700    -0.0891670
  H        0.6999810     2.3106600     0.9777950
  H        2.3913760     2.3394710     0.4091260
  H        1.0337950     2.4512300    -0.7527080
  H       -1.7260750    -1.5572290     0.6147920
  H       -4.0269330    -1.2262470     0.0275940
  H       -3.5972090     0.3657440    -0.6460440
  H       -3.6872220     0.1511560     1.1097960
units angstrom
no_reorient  #important for SAPT in psi4, default
symmetry c1  #important for SAPT in psi4, default
}

set PROPERTIES_ORIGIN ["COM"]
properties('MP2/aug-cc-pvtz', properties = ['dipole'])
--------------------------------------------------------------------------

    Molecular point group: c1
  Charge       = 0
  Multiplicity = 1
  Basis Set: AUG-CC-PVTZ
    Blend: AUG-CC-PVTZ
  Basis Set: (AUG-CC-PVTZ AUX)
    Blend: AUG-CC-PVTZ-JKFIT

    Orbital Energies [Eh]
    ---------------------

    Doubly Occupied:

       1A    -20.514134     2A    -15.622205     3A    -15.584312
       4A    -11.354607     5A    -11.268218     6A    -11.265047
       7A    -11.263780     8A    -11.253579     9A    -11.234053
      10A    -11.221536    11A     -1.372867    12A     -1.307964
      13A     -1.227656    14A     -1.083558    15A     -1.018549
      16A     -0.943558    17A     -0.938865    18A     -0.821538
      19A     -0.786989    20A     -0.756587    21A     -0.725649
      22A     -0.655287    23A     -0.643438    24A     -0.636329
      25A     -0.620249    26A     -0.596809    27A     -0.580552
      28A     -0.577783    29A     -0.551151    30A     -0.542073
      31A     -0.537402    32A     -0.530968    33A     -0.513111
      34A     -0.428927    35A     -0.388755    36A     -0.348798
      37A     -0.307862

  @DF-RHF Final Energy:  -454.81607607045498

   => Energetics <=

    Nuclear Repulsion Energy =            522.9237417451246301
    One-Electron Energy =               -1655.4301433653822642
    Two-Electron Energy =                 677.6903255498027647
    Total Energy =                       -454.8160760704549830
  Basis Set: (AUG-CC-PVTZ AUX)
    Blend: AUG-CC-PVTZ-RI
    Molecular point group: c1

    Geometry (in Angstrom), charge = 0, multiplicity = 1:

       Center              X                  Y                   Z               Mass
    ------------   -----------------  -----------------  -----------------  -----------------
         O           -1.339539721072     1.397237332784    -0.392732799704    15.994914619570
         N            1.396792278928     0.550275332784     0.083523200296    14.003074004430
         N           -2.058184521072    -0.684128067216     0.136519700296    14.003074004430
         C            0.315221278928    -0.293080667216    -0.052189799704    12.000000000000
         C            0.807255278928    -1.599297667216    -0.133065799704    12.000000000000
         C            2.546385278928    -0.194080667216     0.094512200296    12.000000000000
         C            2.209706278928    -1.532457667216    -0.041498799704    12.000000000000
         C           -1.061860721072     0.221613332784    -0.110449799704    12.000000000000
         C            1.364729278928     2.005701332784     0.192087200296    12.000000000000
         C           -3.424769721072    -0.336709667216     0.178771200296    12.000000000000
         H            0.211142278928    -2.489310667216    -0.295096799704     1.007825032230
         H            3.509998278928     0.286998332784     0.200433200296     1.007825032230
         H            2.906645278928    -2.359540667216    -0.077538799704     1.007825032230
         H            0.687184278928     2.309289332784     0.989423200296     1.007825032230
         H            2.378579278928     2.338100332784     0.420754200296     1.007825032230
         H            1.020998278928     2.449859332784    -0.741079799704     1.007825032230
         H           -1.738871721072    -1.558599667216     0.626420200296     1.007825032230
         H           -4.039729721072    -1.227617667216     0.039222200296     1.007825032230
         H           -3.610005721072     0.364373332784    -0.634415799704     1.007825032230
         H           -3.700018721072     0.149785332784     1.121424200296     1.007825032230

  Basis Set: AUG-CC-PVTZ
    Blend: AUG-CC-PVTZ
  Basis Set: (AUG-CC-PVTZ AUX)
    Blend: AUG-CC-PVTZ-JKFIT
	 Reference Energy          =    -454.8160760704549830 [Eh]
	 Singles Energy            =      -0.0000000000000000 [Eh]
	 Same-Spin Energy          =      -0.4856756133920028 [Eh]
	 Opposite-Spin Energy      =      -1.5173007155219693 [Eh]
	 Correlation Energy        =      -2.0029763289139719 [Eh]
	 Total Energy              =    -456.8190523993689567 [Eh]

	 ================> DF-SCS-MP2 Energies <==================
	-----------------------------------------------------------
	 SCS Same-Spin Scale       =       0.3333333333333333 [-]
	 SCS Opposite-Spin Scale   =       1.2000000000000000 [-]
	 SCS Same-Spin Energy      =      -0.1618918711306676 [Eh]
	 SCS Opposite-Spin Energy  =      -1.8207608586263631 [Eh]
	 SCS Correlation Energy    =      -1.9826527297570307 [Eh]
	 SCS Total Energy          =    -456.7987288002120181 [Eh]
	-----------------------------------------------------------

  Dipole Moment: [D]
     X:     0.3978      Y:    -1.2423      Z:     1.3469     Total:     1.8751

*** Psi4 exiting successfully. Buy a developer a beer!
