                               Psi4 1.3.2 release

  ==> Input File <==

--------------------------------------------------------------------------
#psi4
#
memory 32 gb

molecule  {
0 1
  O       -1.3267430     1.3986080    -0.4043610
  N        1.4095890     0.5516460     0.0718950
  N       -2.0120760    -0.7164460     0.1311050
  C        0.2713635    -0.2140152    -0.0610287
  C        0.8200520    -1.5979270    -0.1446940
  C        2.5591820    -0.1927100     0.0828840
  C        2.2225030    -1.5310870    -0.0531270
  C       -1.0490640     0.2229840    -0.1220780
  C        1.3775260     2.0070720     0.1804590
  C       -3.4119730    -0.3353390     0.1671430
  H        0.2239390    -2.4879400    -0.3067250
  H        3.5227950     0.2883690     0.1888050
  H        2.9194420    -2.3581700    -0.0891670
  H        0.6999810     2.3106600     0.9777950
  H        2.3913760     2.3394710     0.4091260
  H        1.0337950     2.4512300    -0.7527080
  H       -1.7260750    -1.5572290     0.6147920
  H       -4.0269330    -1.2262470     0.0275940
  H       -3.5972090     0.3657440    -0.6460440
  H       -3.6872220     0.1511560     1.1097960
units angstrom
no_reorient  #important for SAPT in psi4, default
symmetry c1  #important for SAPT in psi4, default
}

set PROPERTIES_ORIGIN ["COM"]
properties('MP2/aug-cc-pvtz', properties = ['dipole'])
--------------------------------------------------------------------------

    Molecular point group: c1
  Charge       = 0
  Multiplicity = 1
  Basis Set: AUG-CC-PVTZ
    Blend: AUG-CC-PVTZ
  Basis Set: (AUG-CC-PVTZ AUX)
    Blend: AUG-CC-PVTZ-JKFIT

    Orbital Energies [Eh]
    ---------------------

    Doubly Occupied:

       1A    -20.508525     2A    -15.630172     3A    -15.579316
       4A    -11.345258     5A    -11.273611     6A    -11.263604
       7A    -11.262926     8A    -11.255135     9A    -11.245270
      10A    -11.226626    11A     -1.370879    12A     -1.306338
      13A     -1.222693    14A     -1.076993    15A     -1.025825
      16A     -0.940475    17A     -0.936336    18A     -0.839849
      19A     -0.785507    20A     -0.761647    21A     -0.722731
      22A     -0.658032    23A     -0.644001    24A     -0.633551
      25A     -0.616140    26A     -0.593004    27A     -0.581792
      28A     -0.574206    29A     -0.551268    30A     -0.544725
      31A     -0.537784    32A     -0.521594    33A     -0.510162
      34A     -0.427463    35A     -0.390436    36A     -0.349272
      37A     -0.300936

  @DF-RHF Final Energy:  -454.80300668151841

   => Energetics <=

    Nuclear Repulsion Energy =            522.9328313158551964
    One-Electron Energy =               -1655.4435115502735698
    Two-Electron Energy =                 677.7076735529000189
    Total Energy =                       -454.8030066815184682
  Basis Set: (AUG-CC-PVTZ AUX)
    Blend: AUG-CC-PVTZ-RI
    Molecular point group: c1

    Geometry (in Angstrom), charge = 0, multiplicity = 1:

       Center              X                  Y                   Z               Mass
    ------------   -----------------  -----------------  -----------------  -----------------
         O           -1.337994331000     1.393901614846    -0.393605339535    15.994914619570
         N            1.398337669000     0.546939614846     0.082650660465    14.003074004430
         N           -2.023327331000    -0.721152385154     0.141860660465    14.003074004430
         C            0.260112169000    -0.218721585154    -0.050273039535    12.000000000000
         C            0.808800669000    -1.602633385154    -0.133938339535    12.000000000000
         C            2.547930669000    -0.197416385154     0.093639660465    12.000000000000
         C            2.211251669000    -1.535793385154    -0.042371339535    12.000000000000
         C           -1.060315331000     0.218277614846    -0.111322339535    12.000000000000
         C            1.366274669000     2.002365614846     0.191214660465    12.000000000000
         C           -3.423224331000    -0.340045385154     0.177898660465    12.000000000000
         H            0.212687669000    -2.492646385154    -0.295969339535     1.007825032230
         H            3.511543669000     0.283662614846     0.199560660465     1.007825032230
         H            2.908190669000    -2.362876385154    -0.078411339535     1.007825032230
         H            0.688729669000     2.305953614846     0.988550660465     1.007825032230
         H            2.380124669000     2.334764614846     0.419881660465     1.007825032230
         H            1.022543669000     2.446523614846    -0.741952339535     1.007825032230
         H           -1.737326331000    -1.561935385154     0.625547660465     1.007825032230
         H           -4.038184331000    -1.230953385154     0.038349660465     1.007825032230
         H           -3.608460331000     0.361037614846    -0.635288339535     1.007825032230
         H           -3.698473331000     0.146449614846     1.120551660465     1.007825032230

  Basis Set: AUG-CC-PVTZ
    Blend: AUG-CC-PVTZ
  Basis Set: (AUG-CC-PVTZ AUX)
    Blend: AUG-CC-PVTZ-JKFIT
	 Reference Energy          =    -454.8030066815184114 [Eh]
	 Singles Energy            =      -0.0000000000000000 [Eh]
	 Same-Spin Energy          =      -0.4874098793377464 [Eh]
	 Opposite-Spin Energy      =      -1.5202475506298276 [Eh]
	 Correlation Energy        =      -2.0076574299675740 [Eh]
	 Total Energy              =    -456.8106641114860054 [Eh]

	 ================> DF-SCS-MP2 Energies <==================
	-----------------------------------------------------------
	 SCS Same-Spin Scale       =       0.3333333333333333 [-]
	 SCS Opposite-Spin Scale   =       1.2000000000000000 [-]
	 SCS Same-Spin Energy      =      -0.1624699597792488 [Eh]
	 SCS Opposite-Spin Energy  =      -1.8242970607557931 [Eh]
	 SCS Correlation Energy    =      -1.9867670205350418 [Eh]
	 SCS Total Energy          =    -456.7897737020534805 [Eh]
	-----------------------------------------------------------

  Dipole Moment: [D]
     X:     0.6372      Y:    -1.2301      Z:     1.3766     Total:     1.9530

*** Psi4 exiting successfully. Buy a developer a beer!
