                               Psi4 1.3.2 release

  ==> Input File <==

--------------------------------------------------------------------------
#psi4
#
memory 32 gb

molecule  {
0 1
  O       -1.3267430     1.3986080    -0.4043610
  N        1.3476418     0.6252003     0.0744060
  N       -2.0120760    -0.7164460     0.1311050
  C        0.3280180    -0.2917100    -0.0638180
  C        0.8200520    -1.5979270    -0.1446940
  C        2.5591820    -0.1927100     0.0828840
  C        2.2225030    -1.5310870    -0.0531270
  C       -1.0490640     0.2229840    -0.1220780
  C        1.3775260     2.0070720     0.1804590
  C       -3.4119730    -0.3353390     0.1671430
  H        0.2239390    -2.4879400    -0.3067250
  H        3.5227950     0.2883690     0.1888050
  H        2.9194420    -2.3581700    -0.0891670
  H        0.6999810     2.3106600     0.9777950
  H        2.3913760     2.3394710     0.4091260
  H        1.0337950     2.4512300    -0.7527080
  H       -1.7260750    -1.5572290     0.6147920
  H       -4.0269330    -1.2262470     0.0275940
  H       -3.5972090     0.3657440    -0.6460440
  H       -3.6872220     0.1511560     1.1097960
units angstrom
no_reorient  #important for SAPT in psi4, default
symmetry c1  #important for SAPT in psi4, default
}

set PROPERTIES_ORIGIN ["COM"]
properties('MP2/aug-cc-pvtz', properties = ['dipole'])
--------------------------------------------------------------------------

    Molecular point group: c1
  Charge       = 0
  Multiplicity = 1
  Basis Set: AUG-CC-PVTZ
    Blend: AUG-CC-PVTZ
  Basis Set: (AUG-CC-PVTZ AUX)
    Blend: AUG-CC-PVTZ-JKFIT

    Orbital Energies [Eh]
    ---------------------

    Doubly Occupied:

       1A    -20.518090     2A    -15.618043     3A    -15.583721
       4A    -11.354458     5A    -11.272396     6A    -11.271649
       7A    -11.257558     8A    -11.254805     9A    -11.234201
      10A    -11.229144    11A     -1.373895    12A     -1.295768
      13A     -1.226588    14A     -1.096386    15A     -1.012620
      16A     -0.943220    17A     -0.932140    18A     -0.825780
      19A     -0.784099    20A     -0.763838    21A     -0.725662
      22A     -0.647171    23A     -0.641741    24A     -0.637222
      25A     -0.618297    26A     -0.601442    27A     -0.594813
      28A     -0.567081    29A     -0.552606    30A     -0.546507
      31A     -0.535661    32A     -0.523235    33A     -0.504705
      34A     -0.429789    35A     -0.393874    36A     -0.348556
      37A     -0.305583

  @DF-RHF Final Energy:  -454.80443496485242

   => Energetics <=

    Nuclear Repulsion Energy =            522.5727608225428185
    One-Electron Energy =               -1654.7097076474053665
    Two-Electron Energy =                 677.3325118600101860
    Total Energy =                       -454.8044349648524758
  Basis Set: (AUG-CC-PVTZ AUX)
    Blend: AUG-CC-PVTZ-RI
    Molecular point group: c1

    Geometry (in Angstrom), charge = 0, multiplicity = 1:

       Center              X                  Y                   Z               Mass
    ------------   -----------------  -----------------  -----------------  -----------------
         O           -1.336635711653     1.393194421971    -0.393617579738    15.994914619570
         N            1.337749088347     0.619786721971     0.085149420262    14.003074004430
         N           -2.021968711653    -0.721859578029     0.141848420262    14.003074004430
         C            0.318125288347    -0.297123578029    -0.053074579738    12.000000000000
         C            0.810159288347    -1.603340578029    -0.133950579738    12.000000000000
         C            2.549289288347    -0.198123578029     0.093627420262    12.000000000000
         C            2.212610288347    -1.536500578029    -0.042383579738    12.000000000000
         C           -1.058956711653     0.217570421971    -0.111334579738    12.000000000000
         C            1.367633288347     2.001658421971     0.191202420262    12.000000000000
         C           -3.421865711653    -0.340752578029     0.177886420262    12.000000000000
         H            0.214046288347    -2.493353578029    -0.295981579738     1.007825032230
         H            3.512902288347     0.282955421971     0.199548420262     1.007825032230
         H            2.909549288347    -2.363583578029    -0.078423579738     1.007825032230
         H            0.690088288347     2.305246421971     0.988538420262     1.007825032230
         H            2.381483288347     2.334057421971     0.419869420262     1.007825032230
         H            1.023902288347     2.445816421971    -0.741964579738     1.007825032230
         H           -1.735967711653    -1.562642578029     0.625535420262     1.007825032230
         H           -4.036825711653    -1.231660578029     0.038337420262     1.007825032230
         H           -3.607101711653     0.360330421971    -0.635300579738     1.007825032230
         H           -3.697114711653     0.145742421971     1.120539420262     1.007825032230

  Basis Set: AUG-CC-PVTZ
    Blend: AUG-CC-PVTZ
  Basis Set: (AUG-CC-PVTZ AUX)
    Blend: AUG-CC-PVTZ-JKFIT
	 Reference Energy          =    -454.8044349648524189 [Eh]
	 Singles Energy            =      -0.0000000000000000 [Eh]
	 Same-Spin Energy          =      -0.4861464627437210 [Eh]
	 Opposite-Spin Energy      =      -1.5194819502093226 [Eh]
	 Correlation Energy        =      -2.0056284129530435 [Eh]
	 Total Energy              =    -456.8100633778054771 [Eh]

	 ================> DF-SCS-MP2 Energies <==================
	-----------------------------------------------------------
	 SCS Same-Spin Scale       =       0.3333333333333333 [-]
	 SCS Opposite-Spin Scale   =       1.2000000000000000 [-]
	 SCS Same-Spin Energy      =      -0.1620488209145737 [Eh]
	 SCS Opposite-Spin Energy  =      -1.8233783402511872 [Eh]
	 SCS Correlation Energy    =      -1.9854271611657608 [Eh]
	 SCS Total Energy          =    -456.7898621260181926 [Eh]
	-----------------------------------------------------------

  Dipole Moment: [D]
     X:     0.2971      Y:    -1.4473      Z:     1.3351     Total:     1.9913

*** Psi4 exiting successfully. Buy a developer a beer!
