                               Psi4 1.3.2 release

  ==> Input File <==

--------------------------------------------------------------------------
#psi4
#
memory 32 gb

molecule  {
0 1
  O       -1.3267430     1.3986080    -0.4043610
  N        1.3096628     0.5544828     0.0521693
  N       -2.0120760    -0.7164460     0.1311050
  C        0.3280180    -0.2917100    -0.0638180
  C        0.8200520    -1.5979270    -0.1446940
  C        2.5591820    -0.1927100     0.0828840
  C        2.2225030    -1.5310870    -0.0531270
  C       -1.0490640     0.2229840    -0.1220780
  C        1.3775260     2.0070720     0.1804590
  C       -3.4119730    -0.3353390     0.1671430
  H        0.2239390    -2.4879400    -0.3067250
  H        3.5227950     0.2883690     0.1888050
  H        2.9194420    -2.3581700    -0.0891670
  H        0.6999810     2.3106600     0.9777950
  H        2.3913760     2.3394710     0.4091260
  H        1.0337950     2.4512300    -0.7527080
  H       -1.7260750    -1.5572290     0.6147920
  H       -4.0269330    -1.2262470     0.0275940
  H       -3.5972090     0.3657440    -0.6460440
  H       -3.6872220     0.1511560     1.1097960
units angstrom
no_reorient  #important for SAPT in psi4, default
symmetry c1  #important for SAPT in psi4, default
}

set PROPERTIES_ORIGIN ["COM"]
properties('MP2/aug-cc-pvtz', properties = ['dipole'])
--------------------------------------------------------------------------

    Molecular point group: c1
  Charge       = 0
  Multiplicity = 1
  Basis Set: AUG-CC-PVTZ
    Blend: AUG-CC-PVTZ
  Basis Set: (AUG-CC-PVTZ AUX)
    Blend: AUG-CC-PVTZ-JKFIT

    Orbital Energies [Eh]
    ---------------------

    Doubly Occupied:

       1A    -20.520123     2A    -15.619609     3A    -15.584880
       4A    -11.356089     5A    -11.265423     6A    -11.264334
       7A    -11.264196     8A    -11.258258     9A    -11.226685
      10A    -11.223616    11A     -1.376792    12A     -1.307999
      13A     -1.227576    14A     -1.081272    15A     -1.017975
      16A     -0.950572    17A     -0.928289    18A     -0.827050
      19A     -0.786263    20A     -0.762861    21A     -0.724203
      22A     -0.650023    23A     -0.643868    24A     -0.637421
      25A     -0.617517    26A     -0.597576    27A     -0.589094
      28A     -0.561864    29A     -0.551003    30A     -0.547270
      31A     -0.539489    32A     -0.528347    33A     -0.512037
      34A     -0.431754    35A     -0.394831    36A     -0.351623
      37A     -0.300912

  @DF-RHF Final Energy:  -454.80605061518617

   => Energetics <=

    Nuclear Repulsion Energy =            523.6627624111985142
    One-Electron Energy =               -1656.8802357958454650
    Two-Electron Energy =                 678.4114227694606143
    Total Energy =                       -454.8060506151862228
  Basis Set: (AUG-CC-PVTZ AUX)
    Blend: AUG-CC-PVTZ-RI
    Molecular point group: c1

    Geometry (in Angstrom), charge = 0, multiplicity = 1:

       Center              X                  Y                   Z               Mass
    ------------   -----------------  -----------------  -----------------  -----------------
         O           -1.332784137248     1.400366114564    -0.391362483380    15.994914619570
         N            1.303621662752     0.556240914564     0.065167816620    14.003074004430
         N           -2.018117137248    -0.714687885436     0.144103516620    14.003074004430
         C            0.321976862752    -0.289951885436    -0.050819483380    12.000000000000
         C            0.814010862752    -1.596168885436    -0.131695483380    12.000000000000
         C            2.553140862752    -0.190951885436     0.095882516620    12.000000000000
         C            2.216461862752    -1.529328885436    -0.040128483380    12.000000000000
         C           -1.055105137248     0.224742114564    -0.109079483380    12.000000000000
         C            1.371484862752     2.008830114564     0.193457516620    12.000000000000
         C           -3.418014137248    -0.333580885436     0.180141516620    12.000000000000
         H            0.217897862752    -2.486181885436    -0.293726483380     1.007825032230
         H            3.516753862752     0.290127114564     0.201803516620     1.007825032230
         H            2.913400862752    -2.356411885436    -0.076168483380     1.007825032230
         H            0.693939862752     2.312418114564     0.990793516620     1.007825032230
         H            2.385334862752     2.341229114564     0.422124516620     1.007825032230
         H            1.027753862752     2.452988114564    -0.739709483380     1.007825032230
         H           -1.732116137248    -1.555470885436     0.627790516620     1.007825032230
         H           -4.032974137248    -1.224488885436     0.040592516620     1.007825032230
         H           -3.603250137248     0.367502114564    -0.633045483380     1.007825032230
         H           -3.693263137248     0.152914114564     1.122794516620     1.007825032230

  Basis Set: AUG-CC-PVTZ
    Blend: AUG-CC-PVTZ
  Basis Set: (AUG-CC-PVTZ AUX)
    Blend: AUG-CC-PVTZ-JKFIT
	 Reference Energy          =    -454.8060506151861659 [Eh]
	 Singles Energy            =      -0.0000000000000000 [Eh]
	 Same-Spin Energy          =      -0.4858340026524852 [Eh]
	 Opposite-Spin Energy      =      -1.5185995503584178 [Eh]
	 Correlation Energy        =      -2.0044335530109030 [Eh]
	 Total Energy              =    -456.8104841681970925 [Eh]

	 ================> DF-SCS-MP2 Energies <==================
	-----------------------------------------------------------
	 SCS Same-Spin Scale       =       0.3333333333333333 [-]
	 SCS Opposite-Spin Scale   =       1.2000000000000000 [-]
	 SCS Same-Spin Energy      =      -0.1619446675508284 [Eh]
	 SCS Opposite-Spin Energy  =      -1.8223194604301012 [Eh]
	 SCS Correlation Energy    =      -1.9842641279809297 [Eh]
	 SCS Total Energy          =    -456.7903147431670732 [Eh]
	-----------------------------------------------------------

  Dipole Moment: [D]
     X:     0.2701      Y:    -1.1706      Z:     1.3655     Total:     1.8188

*** Psi4 exiting successfully. Buy a developer a beer!
