                               Psi4 1.4a3.dev225

  ==> Input File <==

--------------------------------------------------------------------------
#psi4
#
memory 32 gb

molecule  {
0 1
  O       -1.3267430     1.3986080    -0.4043610
  N        1.4095890     0.5516460     0.0718950
  N       -2.0120760    -0.7164460     0.1311050
  C        0.3280180    -0.2917100    -0.0638180
  C        0.8200520    -1.5979270    -0.1446940
  C        2.5591820    -0.1927100     0.0828840
  C        2.2225030    -1.5310870    -0.0531270
  C       -1.0490640     0.2229840    -0.1220780
  C        1.3779653     1.9871322     0.1789716
  C       -3.4119730    -0.3353390     0.1671430
  H        0.2239390    -2.4879400    -0.3067250
  H        3.5227950     0.2883690     0.1888050
  H        2.9194420    -2.3581700    -0.0891670
  H        0.6999810     2.3106600     0.9777950
  H        2.3913760     2.3394710     0.4091260
  H        1.0337950     2.4512300    -0.7527080
  H       -1.7260750    -1.5572290     0.6147920
  H       -4.0269330    -1.2262470     0.0275940
  H       -3.5972090     0.3657440    -0.6460440
  H       -3.6872220     0.1511560     1.1097960
units angstrom
no_reorient  #important for SAPT in psi4, default
symmetry c1  #important for SAPT in psi4, default
}

set PROPERTIES_ORIGIN ["COM"]
properties('MP2/aug-cc-pvtz', properties = ['dipole'])
--------------------------------------------------------------------------

    Molecular point group: c1
  Charge       = 0
  Multiplicity = 1
  Basis Set: AUG-CC-PVTZ
    Blend: AUG-CC-PVTZ
  Basis Set: (AUG-CC-PVTZ AUX)
    Blend: AUG-CC-PVTZ-JKFIT

    Orbital Energies [Eh]
    ---------------------

    Doubly Occupied:

       1A    -20.516335     2A    -15.621387     3A    -15.583148
       4A    -11.355173     5A    -11.267679     6A    -11.263619
       7A    -11.262810     8A    -11.257314     9A    -11.233446
      10A    -11.221226    11A     -1.372653    12A     -1.309943
      13A     -1.225873    14A     -1.085295    15A     -1.016805
      16A     -0.941868    17A     -0.936871    18A     -0.825778
      19A     -0.788137    20A     -0.762529    21A     -0.726739
      22A     -0.651734    23A     -0.642714    24A     -0.635216
      25A     -0.617065    26A     -0.592797    27A     -0.583839
      28A     -0.573952    29A     -0.551213    30A     -0.546953
      31A     -0.535662    32A     -0.530250    33A     -0.512438
      34A     -0.429634    35A     -0.393446    36A     -0.347901
      37A     -0.307332

  @DF-RHF Final Energy:  -454.81947012080821

   => Energetics <=

    Nuclear Repulsion Energy =            523.1538625075280606
    One-Electron Energy =               -1655.8931200063323104
    Two-Electron Energy =                 677.9197873779961583
    Total Energy =                       -454.8194701208082051
  Basis Set: (AUG-CC-PVTZ AUX)
    Blend: AUG-CC-PVTZ-RI
    Molecular point group: c1

    Geometry (in Angstrom), charge = 0, multiplicity = 1:

       Center              X                  Y                   Z               Mass
    ------------   -----------------  -----------------  -----------------  -----------------
         O           -1.342956157542     1.402386703415    -0.393233666191    15.994914619570
         N            1.393375842458     0.555424703415     0.083022333809    14.003074004430
         N           -2.028289157542    -0.712667296585     0.142232333809    14.003074004430
         C            0.311804842458    -0.287931296585    -0.052690666191    12.000000000000
         C            0.803838842458    -1.594148296585    -0.133566666191    12.000000000000
         C            2.542968842458    -0.188931296585     0.094011333809    12.000000000000
         C            2.206289842458    -1.527308296585    -0.041999666191    12.000000000000
         C           -1.065277157542     0.226762703415    -0.110950666191    12.000000000000
         C            1.361752142458     1.990910903415     0.190098933809    12.000000000000
         C           -3.428186157542    -0.331560296585     0.178270333809    12.000000000000
         H            0.207725842458    -2.484161296585    -0.295597666191     1.007825032230
         H            3.506581842458     0.292147703415     0.199932333809     1.007825032230
         H            2.903228842458    -2.354391296585    -0.078039666191     1.007825032230
         H            0.683767842458     2.314438703415     0.988922333809     1.007825032230
         H            2.375162842458     2.343249703415     0.420253333809     1.007825032230
         H            1.017581842458     2.455008703415    -0.741580666191     1.007825032230
         H           -1.742288157542    -1.553450296585     0.625919333809     1.007825032230
         H           -4.043146157542    -1.222468296585     0.038721333809     1.007825032230
         H           -3.613422157542     0.369522703415    -0.634916666191     1.007825032230
         H           -3.703435157542     0.154934703415     1.120923333809     1.007825032230

  Basis Set: AUG-CC-PVTZ
    Blend: AUG-CC-PVTZ
  Basis Set: (AUG-CC-PVTZ AUX)
    Blend: AUG-CC-PVTZ-JKFIT
	 Reference Energy          =    -454.8194701208082051 [Eh]
	 Singles Energy            =      -0.0000000000000000 [Eh]
	 Same-Spin Energy          =      -0.4853763683563854 [Eh]
	 Opposite-Spin Energy      =      -1.5169065577048739 [Eh]
	 Correlation Energy        =      -2.0022829260612593 [Eh]
	 Total Energy              =    -456.8217530468694463 [Eh]

	 ================> DF-SCS-MP2 Energies <==================
	-----------------------------------------------------------
	 SCS Same-Spin Scale       =       0.3333333333333333 [-]
	 SCS Opposite-Spin Scale   =       1.2000000000000000 [-]
	 SCS Same-Spin Energy      =      -0.1617921227854618 [Eh]
	 SCS Opposite-Spin Energy  =      -1.8202878692458486 [Eh]
	 SCS Correlation Energy    =      -1.9820799920313104 [Eh]
	 SCS Total Energy          =    -456.8015501128394931 [Eh]
	-----------------------------------------------------------

  Dipole Moment: [D]
     X:     0.2795      Y:    -1.2386      Z:     1.3532     Total:     1.8556

*** Psi4 exiting successfully. Buy a developer a beer!
