                               Psi4 1.3.2 release

  ==> Input File <==

--------------------------------------------------------------------------
#psi4
#
memory 32 gb

molecule  {
0 1
  O       -1.3267430     1.3986080    -0.4043610
  N        1.4095890     0.5516460     0.0718950
  N       -2.0120760    -0.7164460     0.1311050
  C        0.4227265    -0.4005089    -0.0658247
  C        0.8200520    -1.5979270    -0.1446940
  C        2.5591820    -0.1927100     0.0828840
  C        2.2225030    -1.5310870    -0.0531270
  C       -1.0490640     0.2229840    -0.1220780
  C        1.3775260     2.0070720     0.1804590
  C       -3.4119730    -0.3353390     0.1671430
  H        0.2239390    -2.4879400    -0.3067250
  H        3.5227950     0.2883690     0.1888050
  H        2.9194420    -2.3581700    -0.0891670
  H        0.6999810     2.3106600     0.9777950
  H        2.3913760     2.3394710     0.4091260
  H        1.0337950     2.4512300    -0.7527080
  H       -1.7260750    -1.5572290     0.6147920
  H       -4.0269330    -1.2262470     0.0275940
  H       -3.5972090     0.3657440    -0.6460440
  H       -3.6872220     0.1511560     1.1097960
units angstrom
no_reorient  #important for SAPT in psi4, default
symmetry c1  #important for SAPT in psi4, default
}

set PROPERTIES_ORIGIN ["COM"]
properties('MP2/aug-cc-pvtz', properties = ['dipole'])
--------------------------------------------------------------------------

    Molecular point group: c1
  Charge       = 0
  Multiplicity = 1
  Basis Set: AUG-CC-PVTZ
    Blend: AUG-CC-PVTZ
  Basis Set: (AUG-CC-PVTZ AUX)
    Blend: AUG-CC-PVTZ-JKFIT

    Orbital Energies [Eh]
    ---------------------

    Doubly Occupied:

       1A    -20.523566     2A    -15.608514     3A    -15.585915
       4A    -11.362810     5A    -11.264513     6A    -11.260317
       7A    -11.260157     8A    -11.258612     9A    -11.214188
      10A    -11.212499    11A     -1.372987    12A     -1.310428
      13A     -1.227258    14A     -1.100251    15A     -1.003171
      16A     -0.946238    17A     -0.938369    18A     -0.807814
      19A     -0.791247    20A     -0.756409    21A     -0.728572
      22A     -0.646272    23A     -0.639943    24A     -0.635238
      25A     -0.616928    26A     -0.604379    27A     -0.585301
      28A     -0.558000    29A     -0.550036    30A     -0.547069
      31A     -0.539995    32A     -0.535645    33A     -0.518890
      34A     -0.422565    35A     -0.395556    36A     -0.355935
      37A     -0.310275

  @DF-RHF Final Energy:  -454.79451808663305

   => Energetics <=

    Nuclear Repulsion Energy =            522.8596348036725203
    One-Electron Energy =               -1655.3165781177654026
    Two-Electron Energy =                 677.6624252274597211
    Total Energy =                       -454.7945180866330475
  Basis Set: (AUG-CC-PVTZ AUX)
    Blend: AUG-CC-PVTZ-RI
    Molecular point group: c1

    Geometry (in Angstrom), charge = 0, multiplicity = 1:

       Center              X                  Y                   Z               Mass
    ------------   -----------------  -----------------  -----------------  -----------------
         O           -1.351148770728     1.410109143347    -0.393188535607    15.994914619570
         N            1.385183229272     0.563147143347     0.083067464393    14.003074004430
         N           -2.036481770728    -0.704944856653     0.142277464393    14.003074004430
         C            0.398320729272    -0.389007756653    -0.054652235607    12.000000000000
         C            0.795646229272    -1.586425856653    -0.133521535607    12.000000000000
         C            2.534776229272    -0.181208856653     0.094056464393    12.000000000000
         C            2.198097229272    -1.519585856653    -0.041954535607    12.000000000000
         C           -1.073469770728     0.234485143347    -0.110905535607    12.000000000000
         C            1.353120229272     2.018573143347     0.191631464393    12.000000000000
         C           -3.436378770728    -0.323837856653     0.178315464393    12.000000000000
         H            0.199533229272    -2.476438856653    -0.295552535607     1.007825032230
         H            3.498389229272     0.299870143347     0.199977464393     1.007825032230
         H            2.895036229272    -2.346668856653    -0.077994535607     1.007825032230
         H            0.675575229272     2.322161143347     0.988967464393     1.007825032230
         H            2.366970229272     2.350972143347     0.420298464393     1.007825032230
         H            1.009389229272     2.462731143347    -0.741535535607     1.007825032230
         H           -1.750480770728    -1.545727856653     0.625964464393     1.007825032230
         H           -4.051338770728    -1.214745856653     0.038766464393     1.007825032230
         H           -3.621614770728     0.377245143347    -0.634871535607     1.007825032230
         H           -3.711627770728     0.162657143347     1.120968464393     1.007825032230

  Basis Set: AUG-CC-PVTZ
    Blend: AUG-CC-PVTZ
  Basis Set: (AUG-CC-PVTZ AUX)
    Blend: AUG-CC-PVTZ-JKFIT
	 Reference Energy          =    -454.7945180866330475 [Eh]
	 Singles Energy            =      -0.0000000000000000 [Eh]
	 Same-Spin Energy          =      -0.4833091840203709 [Eh]
	 Opposite-Spin Energy      =      -1.5146479221607880 [Eh]
	 Correlation Energy        =      -1.9979571061811590 [Eh]
	 Total Energy              =    -456.7924751928142086 [Eh]

	 ================> DF-SCS-MP2 Energies <==================
	-----------------------------------------------------------
	 SCS Same-Spin Scale       =       0.3333333333333333 [-]
	 SCS Opposite-Spin Scale   =       1.2000000000000000 [-]
	 SCS Same-Spin Energy      =      -0.1611030613401236 [Eh]
	 SCS Opposite-Spin Energy  =      -1.8175775065929456 [Eh]
	 SCS Correlation Energy    =      -1.9786805679330692 [Eh]
	 SCS Total Energy          =    -456.7731986545661016 [Eh]
	-----------------------------------------------------------

  Dipole Moment: [D]
     X:    -0.1928      Y:    -1.1534      Z:     1.3250     Total:     1.7673

*** Psi4 exiting successfully. Buy a developer a beer!
