                               Psi4 1.3.2 release

  ==> Input File <==

--------------------------------------------------------------------------
#psi4
#
memory 32 gb

molecule  {
0 1
  O       -1.2418411     1.4135092    -0.4125396
  N        1.4095890     0.5516460     0.0718950
  N       -2.0120760    -0.7164460     0.1311050
  C        0.3280180    -0.2917100    -0.0638180
  C        0.8200520    -1.5979270    -0.1446940
  C        2.5591820    -0.1927100     0.0828840
  C        2.2225030    -1.5310870    -0.0531270
  C       -1.0490640     0.2229840    -0.1220780
  C        1.3775260     2.0070720     0.1804590
  C       -3.4119730    -0.3353390     0.1671430
  H        0.2239390    -2.4879400    -0.3067250
  H        3.5227950     0.2883690     0.1888050
  H        2.9194420    -2.3581700    -0.0891670
  H        0.6999810     2.3106600     0.9777950
  H        2.3913760     2.3394710     0.4091260
  H        1.0337950     2.4512300    -0.7527080
  H       -1.7260750    -1.5572290     0.6147920
  H       -4.0269330    -1.2262470     0.0275940
  H       -3.5972090     0.3657440    -0.6460440
  H       -3.6872220     0.1511560     1.1097960
units angstrom
no_reorient  #important for SAPT in psi4, default
symmetry c1  #important for SAPT in psi4, default
}

set PROPERTIES_ORIGIN ["COM"]
properties('MP2/aug-cc-pvtz', properties = ['dipole'])
--------------------------------------------------------------------------

    Molecular point group: c1
  Charge       = 0
  Multiplicity = 1
  Basis Set: AUG-CC-PVTZ
    Blend: AUG-CC-PVTZ
  Basis Set: (AUG-CC-PVTZ AUX)
    Blend: AUG-CC-PVTZ-JKFIT

    Orbital Energies [Eh]
    ---------------------

    Doubly Occupied:

       1A    -20.517861     2A    -15.618436     3A    -15.587567
       4A    -11.356110     5A    -11.264641     6A    -11.260602
       7A    -11.260571     8A    -11.259682     9A    -11.229810
      10A    -11.218425    11A     -1.373128    12A     -1.303835
      13A     -1.231574    14A     -1.079992    15A     -1.013970
      16A     -0.943384    17A     -0.935695    18A     -0.825132
      19A     -0.785429    20A     -0.763818    21A     -0.723030
      22A     -0.651109    23A     -0.642327    24A     -0.635976
      25A     -0.617574    26A     -0.591984    27A     -0.577343
      28A     -0.575043    29A     -0.551753    30A     -0.548209
      31A     -0.537021    32A     -0.530293    33A     -0.513335
      34A     -0.428745    35A     -0.397212    36A     -0.345641
      37A     -0.304124

  @DF-RHF Final Energy:  -454.81830967812783

   => Energetics <=

    Nuclear Repulsion Energy =            523.2854921160884487
    One-Electron Energy =               -1656.2068444645558429
    Two-Electron Energy =                 678.1030426703393914
    Total Energy =                       -454.8183096781278891
  Basis Set: (AUG-CC-PVTZ AUX)
    Blend: AUG-CC-PVTZ-RI
    Molecular point group: c1

    Geometry (in Angstrom), charge = 0, multiplicity = 1:

       Center              X                  Y                   Z               Mass
    ------------   -----------------  -----------------  -----------------  -----------------
         O           -1.267850996914     1.413828869535    -0.400594133436    15.994914619570
         N            1.383579103086     0.551965669535     0.083840466564    14.003074004430
         N           -2.038085896914    -0.716126330465     0.143050466564    14.003074004430
         C            0.302008103086    -0.291390330465    -0.051872533436    12.000000000000
         C            0.794042103086    -1.597607330465    -0.132748533436    12.000000000000
         C            2.533172103086    -0.192390330465     0.094829466564    12.000000000000
         C            2.196493103086    -1.530767330465    -0.041181533436    12.000000000000
         C           -1.075073896914     0.223303669535    -0.110132533436    12.000000000000
         C            1.351516103086     2.007391669535     0.192404466564    12.000000000000
         C           -3.437982896914    -0.335019330465     0.179088466564    12.000000000000
         H            0.197929103086    -2.487620330465    -0.294779533436     1.007825032230
         H            3.496785103086     0.288688669535     0.200750466564     1.007825032230
         H            2.893432103086    -2.357850330465    -0.077221533436     1.007825032230
         H            0.673971103086     2.310979669535     0.989740466564     1.007825032230
         H            2.365366103086     2.339790669535     0.421071466564     1.007825032230
         H            1.007785103086     2.451549669535    -0.740762533436     1.007825032230
         H           -1.752084896914    -1.556909330465     0.626737466564     1.007825032230
         H           -4.052942896914    -1.225927330465     0.039539466564     1.007825032230
         H           -3.623218896914     0.366063669535    -0.634098533436     1.007825032230
         H           -3.713231896914     0.151475669535     1.121741466564     1.007825032230

  Basis Set: AUG-CC-PVTZ
    Blend: AUG-CC-PVTZ
  Basis Set: (AUG-CC-PVTZ AUX)
    Blend: AUG-CC-PVTZ-JKFIT
	 Reference Energy          =    -454.8183096781278323 [Eh]
	 Singles Energy            =      -0.0000000000000000 [Eh]
	 Same-Spin Energy          =      -0.4853270550621895 [Eh]
	 Opposite-Spin Energy      =      -1.5170348319627116 [Eh]
	 Correlation Energy        =      -2.0023618870249011 [Eh]
	 Total Energy              =    -456.8206715651527361 [Eh]

	 ================> DF-SCS-MP2 Energies <==================
	-----------------------------------------------------------
	 SCS Same-Spin Scale       =       0.3333333333333333 [-]
	 SCS Opposite-Spin Scale   =       1.2000000000000000 [-]
	 SCS Same-Spin Energy      =      -0.1617756850207298 [Eh]
	 SCS Opposite-Spin Energy  =      -1.8204417983552539 [Eh]
	 SCS Correlation Energy    =      -1.9822174833759838 [Eh]
	 SCS Total Energy          =    -456.8005271615037941 [Eh]
	-----------------------------------------------------------

  Dipole Moment: [D]
     X:    -0.0484      Y:    -1.2052      Z:     1.3717     Total:     1.8266

*** Psi4 exiting successfully. Buy a developer a beer!
