                               Psi4 1.3.2 release

  ==> Input File <==

--------------------------------------------------------------------------
#psi4
#
memory 32 gb

molecule  {
0 1
  O       -1.3267430     1.3986080    -0.4043610
  N        1.4095890     0.5516460     0.0718950
  N       -2.0120760    -0.7164460     0.1311050
  C        0.3280180    -0.2917100    -0.0638180
  C        0.7496687    -1.4110785    -0.1331251
  C        2.5591820    -0.1927100     0.0828840
  C        2.2225030    -1.5310870    -0.0531270
  C       -1.0490640     0.2229840    -0.1220780
  C        1.3775260     2.0070720     0.1804590
  C       -3.4119730    -0.3353390     0.1671430
  H        0.2239390    -2.4879400    -0.3067250
  H        3.5227950     0.2883690     0.1888050
  H        2.9194420    -2.3581700    -0.0891670
  H        0.6999810     2.3106600     0.9777950
  H        2.3913760     2.3394710     0.4091260
  H        1.0337950     2.4512300    -0.7527080
  H       -1.7260750    -1.5572290     0.6147920
  H       -4.0269330    -1.2262470     0.0275940
  H       -3.5972090     0.3657440    -0.6460440
  H       -3.6872220     0.1511560     1.1097960
units angstrom
no_reorient  #important for SAPT in psi4, default
symmetry c1  #important for SAPT in psi4, default
}

set PROPERTIES_ORIGIN ["COM"]
properties('MP2/aug-cc-pvtz', properties = ['dipole'])
--------------------------------------------------------------------------

    Molecular point group: c1
  Charge       = 0
  Multiplicity = 1
  Basis Set: AUG-CC-PVTZ
    Blend: AUG-CC-PVTZ
  Basis Set: (AUG-CC-PVTZ AUX)
    Blend: AUG-CC-PVTZ-JKFIT

    Orbital Energies [Eh]
    ---------------------

    Doubly Occupied:

       1A    -20.520855     2A    -15.601573     3A    -15.585927
       4A    -11.358379     5A    -11.268680     6A    -11.259111
       7A    -11.257668     8A    -11.242387     9A    -11.224054
      10A    -11.219195    11A     -1.376614    12A     -1.313174
      13A     -1.229092    14A     -1.094764    15A     -1.027297
      16A     -0.948983    17A     -0.922394    18A     -0.827160
      19A     -0.796186    20A     -0.763049    21A     -0.713504
      22A     -0.654195    23A     -0.646532    24A     -0.636475
      25A     -0.617387    26A     -0.600383    27A     -0.581120
      28A     -0.566398    29A     -0.550488    30A     -0.546491
      31A     -0.543431    32A     -0.516738    33A     -0.496029
      34A     -0.431057    35A     -0.395176    36A     -0.355570
      37A     -0.319542

  @DF-RHF Final Energy:  -454.76416960481544

   => Energetics <=

    Nuclear Repulsion Energy =            526.7380409996872004
    One-Electron Energy =               -1662.9903068278053979
    Two-Electron Energy =                 681.4880962233027049
    Total Energy =                       -454.7641696048154927
  Basis Set: (AUG-CC-PVTZ AUX)
    Blend: AUG-CC-PVTZ-RI
    Molecular point group: c1

    Geometry (in Angstrom), charge = 0, multiplicity = 1:

       Center              X                  Y                   Z               Mass
    ------------   -----------------  -----------------  -----------------  -----------------
         O           -1.336801208029     1.384415440762    -0.394368344490    15.994914619570
         N            1.399530791971     0.537453440762     0.081887655510    14.003074004430
         N           -2.022134208029    -0.730638559238     0.141097655510    14.003074004430
         C            0.317959791971    -0.305902559238    -0.053825344490    12.000000000000
         C            0.739610491971    -1.425271059238    -0.123132444490    12.000000000000
         C            2.549123791971    -0.206902559238     0.092876655510    12.000000000000
         C            2.212444791971    -1.545279559238    -0.043134344490    12.000000000000
         C           -1.059122208029     0.208791440762    -0.112085344490    12.000000000000
         C            1.367467791971     1.992879440762     0.190451655510    12.000000000000
         C           -3.422031208029    -0.349531559238     0.177135655510    12.000000000000
         H            0.213880791971    -2.502132559238    -0.296732344490     1.007825032230
         H            3.512736791971     0.274176440762     0.198797655510     1.007825032230
         H            2.909383791971    -2.372362559238    -0.079174344490     1.007825032230
         H            0.689922791971     2.296467440762     0.987787655510     1.007825032230
         H            2.381317791971     2.325278440762     0.419118655510     1.007825032230
         H            1.023736791971     2.437037440762    -0.742715344490     1.007825032230
         H           -1.736133208029    -1.571421559238     0.624784655510     1.007825032230
         H           -4.036991208029    -1.240439559238     0.037586655510     1.007825032230
         H           -3.607267208029     0.351551440762    -0.636051344490     1.007825032230
         H           -3.697280208029     0.136963440762     1.119788655510     1.007825032230

  Basis Set: AUG-CC-PVTZ
    Blend: AUG-CC-PVTZ
  Basis Set: (AUG-CC-PVTZ AUX)
    Blend: AUG-CC-PVTZ-JKFIT
	 Reference Energy          =    -454.7641696048154358 [Eh]
	 Singles Energy            =      -0.0000000000000000 [Eh]
	 Same-Spin Energy          =      -0.4829289828573058 [Eh]
	 Opposite-Spin Energy      =      -1.5146322129694187 [Eh]
	 Correlation Energy        =      -1.9975611958267245 [Eh]
	 Total Energy              =    -456.7617308006421695 [Eh]

	 ================> DF-SCS-MP2 Energies <==================
	-----------------------------------------------------------
	 SCS Same-Spin Scale       =       0.3333333333333333 [-]
	 SCS Opposite-Spin Scale   =       1.2000000000000000 [-]
	 SCS Same-Spin Energy      =      -0.1609763276191019 [Eh]
	 SCS Opposite-Spin Energy  =      -1.8175586555633023 [Eh]
	 SCS Correlation Energy    =      -1.9785349831824042 [Eh]
	 SCS Total Energy          =    -456.7427045879978209 [Eh]
	-----------------------------------------------------------

  Dipole Moment: [D]
     X:     0.0294      Y:    -1.2939      Z:     1.3493     Total:     1.8697

*** Psi4 exiting successfully. Buy a developer a beer!
