                               Psi4 1.4a3.dev225

  ==> Input File <==

--------------------------------------------------------------------------
#psi4
#
memory 32 gb

molecule  {
0 1
  O       -1.3267430     1.3986080    -0.4043610
  N        1.4095890     0.5516460     0.0718950
  N       -2.0120760    -0.7164460     0.1311050
  C        0.3280180    -0.2917100    -0.0638180
  C        0.8200520    -1.5979270    -0.1446940
  C        2.5591820    -0.1927100     0.0828840
  C        2.2225030    -1.5310870    -0.0531270
  C       -1.0490640     0.2229840    -0.1220780
  C        1.3770867     2.0270118     0.1819464
  C       -3.4119730    -0.3353390     0.1671430
  H        0.2239390    -2.4879400    -0.3067250
  H        3.5227950     0.2883690     0.1888050
  H        2.9194420    -2.3581700    -0.0891670
  H        0.6999810     2.3106600     0.9777950
  H        2.3913760     2.3394710     0.4091260
  H        1.0337950     2.4512300    -0.7527080
  H       -1.7260750    -1.5572290     0.6147920
  H       -4.0269330    -1.2262470     0.0275940
  H       -3.5972090     0.3657440    -0.6460440
  H       -3.6872220     0.1511560     1.1097960
units angstrom
no_reorient  #important for SAPT in psi4, default
symmetry c1  #important for SAPT in psi4, default
}

set PROPERTIES_ORIGIN ["COM"]
properties('MP2/aug-cc-pvtz', properties = ['dipole'])
--------------------------------------------------------------------------

    Molecular point group: c1
  Charge       = 0
  Multiplicity = 1
  Basis Set: AUG-CC-PVTZ
    Blend: AUG-CC-PVTZ
  Basis Set: (AUG-CC-PVTZ AUX)
    Blend: AUG-CC-PVTZ-JKFIT

    Orbital Energies [Eh]
    ---------------------

    Doubly Occupied:

       1A    -20.516049     2A    -15.620335     3A    -15.582760
       4A    -11.354669     5A    -11.266367     6A    -11.264026
       7A    -11.262268     8A    -11.257074     9A    -11.232029
      10A    -11.219930    11A     -1.372093    12A     -1.303837
      13A     -1.225474    14A     -1.079603    15A     -1.015387
      16A     -0.941223    17A     -0.939344    18A     -0.825011
      19A     -0.785828    20A     -0.761513    21A     -0.723005
      22A     -0.650377    23A     -0.641685    24A     -0.634675
      25A     -0.616982    26A     -0.595273    27A     -0.575259
      28A     -0.574148    29A     -0.549951    30A     -0.547416
      31A     -0.539323    32A     -0.534237    33A     -0.514536
      34A     -0.429734    35A     -0.393286    36A     -0.347636
      37A     -0.306050

  @DF-RHF Final Energy:  -454.81956374968382

   => Energetics <=

    Nuclear Repulsion Energy =            522.3711417107515445
    One-Electron Energy =               -1654.3846243176321877
    Two-Electron Energy =                 677.1939188571967634
    Total Energy =                       -454.8195637496838799
  Basis Set: (AUG-CC-PVTZ AUX)
    Blend: AUG-CC-PVTZ-RI
    Molecular point group: c1

    Geometry (in Angstrom), charge = 0, multiplicity = 1:

       Center              X                  Y                   Z               Mass
    ------------   -----------------  -----------------  -----------------  -----------------
         O           -1.342879801427     1.398920904015    -0.393492195866    15.994914619570
         N            1.393452198573     0.551958904015     0.082763804134    14.003074004430
         N           -2.028212801427    -0.716133095985     0.141973804134    14.003074004430
         C            0.311881198573    -0.291397095985    -0.052949195866    12.000000000000
         C            0.803915198573    -1.597614095985    -0.133825195866    12.000000000000
         C            2.543045198573    -0.192397095985     0.093752804134    12.000000000000
         C            2.206366198573    -1.530774095985    -0.042258195866    12.000000000000
         C           -1.065200801427     0.223296904015    -0.111209195866    12.000000000000
         C            1.360949898573     2.027324704015     0.192815204134    12.000000000000
         C           -3.428109801427    -0.335026095985     0.178011804134    12.000000000000
         H            0.207802198573    -2.487627095985    -0.295856195866     1.007825032230
         H            3.506658198573     0.288681904015     0.199673804134     1.007825032230
         H            2.903305198573    -2.357857095985    -0.078298195866     1.007825032230
         H            0.683844198573     2.310972904015     0.988663804134     1.007825032230
         H            2.375239198573     2.339783904015     0.419994804134     1.007825032230
         H            1.017658198573     2.451542904015    -0.741839195866     1.007825032230
         H           -1.742211801427    -1.556916095985     0.625660804134     1.007825032230
         H           -4.043069801427    -1.225934095985     0.038462804134     1.007825032230
         H           -3.613345801427     0.366056904015    -0.635175195866     1.007825032230
         H           -3.703358801427     0.151468904015     1.120664804134     1.007825032230

  Basis Set: AUG-CC-PVTZ
    Blend: AUG-CC-PVTZ
  Basis Set: (AUG-CC-PVTZ AUX)
    Blend: AUG-CC-PVTZ-JKFIT
	 Reference Energy          =    -454.8195637496838231 [Eh]
	 Singles Energy            =      -0.0000000000000000 [Eh]
	 Same-Spin Energy          =      -0.4851535402907134 [Eh]
	 Opposite-Spin Energy      =      -1.5168507123195627 [Eh]
	 Correlation Energy        =      -2.0020042526102761 [Eh]
	 Total Energy              =    -456.8215680022941001 [Eh]

	 ================> DF-SCS-MP2 Energies <==================
	-----------------------------------------------------------
	 SCS Same-Spin Scale       =       0.3333333333333333 [-]
	 SCS Opposite-Spin Scale   =       1.2000000000000000 [-]
	 SCS Same-Spin Energy      =      -0.1617178467635711 [Eh]
	 SCS Opposite-Spin Energy  =      -1.8202208547834751 [Eh]
	 SCS Correlation Energy    =      -1.9819387015470462 [Eh]
	 SCS Total Energy          =    -456.8015024512308742 [Eh]
	-----------------------------------------------------------

  Dipole Moment: [D]
     X:     0.2889      Y:    -1.1279      Z:     1.3625     Total:     1.7923

*** Psi4 exiting successfully. Buy a developer a beer!
