                               Psi4 1.3.2 release

  ==> Input File <==

--------------------------------------------------------------------------
#psi4
#
memory 32 gb

molecule  {
0 1
  O       -1.2844354     1.4067797    -0.4086248
  N        1.4095890     0.5516460     0.0718950
  N       -2.0120760    -0.7164460     0.1311050
  C        0.3280180    -0.2917100    -0.0638180
  C        0.8200520    -1.5979270    -0.1446940
  C        2.5591820    -0.1927100     0.0828840
  C        2.2225030    -1.5310870    -0.0531270
  C       -1.0490640     0.2229840    -0.1220780
  C        1.3775260     2.0070720     0.1804590
  C       -3.4119730    -0.3353390     0.1671430
  H        0.2239390    -2.4879400    -0.3067250
  H        3.5227950     0.2883690     0.1888050
  H        2.9194420    -2.3581700    -0.0891670
  H        0.6999810     2.3106600     0.9777950
  H        2.3913760     2.3394710     0.4091260
  H        1.0337950     2.4512300    -0.7527080
  H       -1.7260750    -1.5572290     0.6147920
  H       -4.0269330    -1.2262470     0.0275940
  H       -3.5972090     0.3657440    -0.6460440
  H       -3.6872220     0.1511560     1.1097960
units angstrom
no_reorient  #important for SAPT in psi4, default
symmetry c1  #important for SAPT in psi4, default
}

set PROPERTIES_ORIGIN ["COM"]
properties('MP2/aug-cc-pvtz', properties = ['dipole'])
--------------------------------------------------------------------------

    Molecular point group: c1
  Charge       = 0
  Multiplicity = 1
  Basis Set: AUG-CC-PVTZ
    Blend: AUG-CC-PVTZ
  Basis Set: (AUG-CC-PVTZ AUX)
    Blend: AUG-CC-PVTZ-JKFIT

    Orbital Energies [Eh]
    ---------------------

    Doubly Occupied:

       1A    -20.517057     2A    -15.619687     3A    -15.585270
       4A    -11.355498     5A    -11.265845     6A    -11.261957
       7A    -11.261313     8A    -11.258918     9A    -11.231292
      10A    -11.219513    11A     -1.372658    12A     -1.305337
      13A     -1.228669    14A     -1.081197    15A     -1.015033
      16A     -0.942461    17A     -0.936904    18A     -0.825254
      19A     -0.786191    20A     -0.762964    21A     -0.723947
      22A     -0.651032    23A     -0.642105    24A     -0.635481
      25A     -0.617297    26A     -0.592964    27A     -0.578469
      28A     -0.574584    29A     -0.550511    30A     -0.548298
      31A     -0.537215    32A     -0.531483    33A     -0.513555
      34A     -0.429341    35A     -0.395304    36A     -0.346740
      37A     -0.305428

  @DF-RHF Final Energy:  -454.81948140226268

   => Energetics <=

    Nuclear Repulsion Energy =            523.0049017812401644
    One-Electron Energy =               -1655.6352155087304254
    Two-Electron Energy =                 677.8108323252276932
    Total Energy =                       -454.8194814022626815
  Basis Set: (AUG-CC-PVTZ AUX)
    Blend: AUG-CC-PVTZ-RI
    Molecular point group: c1

    Geometry (in Angstrom), charge = 0, multiplicity = 1:

       Center              X                  Y                   Z               Mass
    ------------   -----------------  -----------------  -----------------  -----------------
         O           -1.305511232735     1.407878905409    -0.397132818396    15.994914619570
         N            1.388513167265     0.552745205409     0.083386981604    14.003074004430
         N           -2.033151832735    -0.715346794591     0.142596981604    14.003074004430
         C            0.306942167265    -0.290610794591    -0.052326018396    12.000000000000
         C            0.798976167265    -1.596827794591    -0.133202018396    12.000000000000
         C            2.538106167265    -0.191610794591     0.094375981604    12.000000000000
         C            2.201427167265    -1.529987794591    -0.041635018396    12.000000000000
         C           -1.070139832735     0.224083205409    -0.110586018396    12.000000000000
         C            1.356450167265     2.008171205409     0.191950981604    12.000000000000
         C           -3.433048832735    -0.334239794591     0.178634981604    12.000000000000
         H            0.202863167265    -2.486840794591    -0.295233018396     1.007825032230
         H            3.501719167265     0.289468205409     0.200296981604     1.007825032230
         H            2.898366167265    -2.357070794591    -0.077675018396     1.007825032230
         H            0.678905167265     2.311759205409     0.989286981604     1.007825032230
         H            2.370300167265     2.340570205409     0.420617981604     1.007825032230
         H            1.012719167265     2.452329205409    -0.741216018396     1.007825032230
         H           -1.747150832735    -1.556129794591     0.626283981604     1.007825032230
         H           -4.048008832735    -1.225147794591     0.039085981604     1.007825032230
         H           -3.618284832735     0.366843205409    -0.634552018396     1.007825032230
         H           -3.708297832735     0.152255205409     1.121287981604     1.007825032230

  Basis Set: AUG-CC-PVTZ
    Blend: AUG-CC-PVTZ
  Basis Set: (AUG-CC-PVTZ AUX)
    Blend: AUG-CC-PVTZ-JKFIT
	 Reference Energy          =    -454.8194814022626815 [Eh]
	 Singles Energy            =      -0.0000000000000000 [Eh]
	 Same-Spin Energy          =      -0.4852697011707908 [Eh]
	 Opposite-Spin Energy      =      -1.5169130632368486 [Eh]
	 Correlation Energy        =      -2.0021827644076393 [Eh]
	 Total Energy              =    -456.8216641666703026 [Eh]

	 ================> DF-SCS-MP2 Energies <==================
	-----------------------------------------------------------
	 SCS Same-Spin Scale       =       0.3333333333333333 [-]
	 SCS Opposite-Spin Scale   =       1.2000000000000000 [-]
	 SCS Same-Spin Energy      =      -0.1617565670569303 [Eh]
	 SCS Opposite-Spin Energy  =      -1.8202956758842181 [Eh]
	 SCS Correlation Energy    =      -1.9820522429411485 [Eh]
	 SCS Total Energy          =    -456.8015336452038468 [Eh]
	-----------------------------------------------------------

  Dipole Moment: [D]
     X:     0.1186      Y:    -1.1961      Z:     1.3654     Total:     1.8191

*** Psi4 exiting successfully. Buy a developer a beer!
