                               Psi4 1.4a3.dev225

  ==> Input File <==

--------------------------------------------------------------------------
#psi4
#
memory 32 gb

molecule  {
0 1
  O       -1.3267430     1.3986080    -0.4043610
  N        1.4095890     0.5516460     0.0718950
  N       -2.0120760    -0.7164460     0.1311050
  C        0.3280180    -0.2917100    -0.0638180
  C        0.8024562    -1.5512149    -0.1418018
  C        2.5591820    -0.1927100     0.0828840
  C        2.2225030    -1.5310870    -0.0531270
  C       -1.0490640     0.2229840    -0.1220780
  C        1.3775260     2.0070720     0.1804590
  C       -3.4119730    -0.3353390     0.1671430
  H        0.2239390    -2.4879400    -0.3067250
  H        3.5227950     0.2883690     0.1888050
  H        2.9194420    -2.3581700    -0.0891670
  H        0.6999810     2.3106600     0.9777950
  H        2.3913760     2.3394710     0.4091260
  H        1.0337950     2.4512300    -0.7527080
  H       -1.7260750    -1.5572290     0.6147920
  H       -4.0269330    -1.2262470     0.0275940
  H       -3.5972090     0.3657440    -0.6460440
  H       -3.6872220     0.1511560     1.1097960
units angstrom
no_reorient  #important for SAPT in psi4, default
symmetry c1  #important for SAPT in psi4, default
}

set PROPERTIES_ORIGIN ["COM"]
properties('MP2/aug-cc-pvtz', properties = ['dipole'])
--------------------------------------------------------------------------

    Molecular point group: c1
  Charge       = 0
  Multiplicity = 1
  Basis Set: AUG-CC-PVTZ
    Blend: AUG-CC-PVTZ
  Basis Set: (AUG-CC-PVTZ AUX)
    Blend: AUG-CC-PVTZ-JKFIT

    Orbital Energies [Eh]
    ---------------------

    Doubly Occupied:

       1A    -20.517297     2A    -15.615893     3A    -15.583666
       4A    -11.355765     5A    -11.267390     6A    -11.261858
       7A    -11.258590     8A    -11.257652     9A    -11.230784
      10A    -11.219845    11A     -1.373331    12A     -1.307630
      13A     -1.226485    14A     -1.083681    15A     -1.019230
      16A     -0.943167    17A     -0.934126    18A     -0.825363
      19A     -0.788040    20A     -0.762376    21A     -0.723293
      22A     -0.650963    23A     -0.642836    24A     -0.635299
      25A     -0.616938    26A     -0.594873    27A     -0.577439
      28A     -0.574325    29A     -0.548380    30A     -0.546550
      31A     -0.538266    32A     -0.530025    33A     -0.514190
      34A     -0.430712    35A     -0.393843    36A     -0.345986
      37A     -0.312409

  @DF-RHF Final Energy:  -454.81858142243703

   => Energetics <=

    Nuclear Repulsion Energy =            523.6900414863249580
    One-Electron Energy =               -1657.0002474053326296
    Two-Electron Energy =                 678.4916244965708074
    Total Energy =                       -454.8185814224369778
  Basis Set: (AUG-CC-PVTZ AUX)
    Blend: AUG-CC-PVTZ-RI
    Molecular point group: c1

    Geometry (in Angstrom), charge = 0, multiplicity = 1:

       Center              X                  Y                   Z               Mass
    ------------   -----------------  -----------------  -----------------  -----------------
         O           -1.341388788793     1.396594215150    -0.393614282221    15.994914619570
         N            1.394943211207     0.549632215150     0.082641717779    14.003074004430
         N           -2.026721788793    -0.718459784850     0.141851717779    14.003074004430
         C            0.313372211207    -0.293723784850    -0.053071282221    12.000000000000
         C            0.787810411207    -1.553228684850    -0.131055082221    12.000000000000
         C            2.544536211207    -0.194723784850     0.093630717779    12.000000000000
         C            2.207857211207    -1.533100784850    -0.042380282221    12.000000000000
         C           -1.063709788793     0.220970215150    -0.111331282221    12.000000000000
         C            1.362880211207     2.005058215150     0.191205717779    12.000000000000
         C           -3.426618788793    -0.337352784850     0.177889717779    12.000000000000
         H            0.209293211207    -2.489953784850    -0.295978282221     1.007825032230
         H            3.508149211207     0.286355215150     0.199551717779     1.007825032230
         H            2.904796211207    -2.360183784850    -0.078420282221     1.007825032230
         H            0.685335211207     2.308646215150     0.988541717779     1.007825032230
         H            2.376730211207     2.337457215150     0.419872717779     1.007825032230
         H            1.019149211207     2.449216215150    -0.741961282221     1.007825032230
         H           -1.740720788793    -1.559242784850     0.625538717779     1.007825032230
         H           -4.041578788793    -1.228260784850     0.038340717779     1.007825032230
         H           -3.611854788793     0.363730215150    -0.635297282221     1.007825032230
         H           -3.701867788793     0.149142215150     1.120542717779     1.007825032230

  Basis Set: AUG-CC-PVTZ
    Blend: AUG-CC-PVTZ
  Basis Set: (AUG-CC-PVTZ AUX)
    Blend: AUG-CC-PVTZ-JKFIT
	 Reference Energy          =    -454.8185814224370347 [Eh]
	 Singles Energy            =      -0.0000000000000000 [Eh]
	 Same-Spin Energy          =      -0.4845342506393218 [Eh]
	 Opposite-Spin Energy      =      -1.5159217642661889 [Eh]
	 Correlation Energy        =      -2.0004560149055104 [Eh]
	 Total Energy              =    -456.8190374373425584 [Eh]

	 ================> DF-SCS-MP2 Energies <==================
	-----------------------------------------------------------
	 SCS Same-Spin Scale       =       0.3333333333333333 [-]
	 SCS Opposite-Spin Scale   =       1.2000000000000000 [-]
	 SCS Same-Spin Energy      =      -0.1615114168797739 [Eh]
	 SCS Opposite-Spin Energy  =      -1.8191061171194265 [Eh]
	 SCS Correlation Energy    =      -1.9806175339992005 [Eh]
	 SCS Total Energy          =    -456.7991989564362143 [Eh]
	-----------------------------------------------------------

  Dipole Moment: [D]
     X:     0.2278      Y:    -1.2109      Z:     1.3561     Total:     1.8323

*** Psi4 exiting successfully. Buy a developer a beer!
