                               Psi4 1.4a3.dev225

  ==> Input File <==

--------------------------------------------------------------------------
#psi4
#
memory 32 gb

molecule  {
0 1
  O       -1.3267430     1.3986080    -0.4043610
  N        1.4095890     0.5516460     0.0718950
  N       -2.0120760    -0.7164460     0.1311050
  C        0.3280180    -0.2917100    -0.0638180
  C        0.8200520    -1.5979270    -0.1446940
  C        2.5591820    -0.1927100     0.0828840
  C        2.2225030    -1.5310870    -0.0531270
  C       -1.0490640     0.2229840    -0.1220780
  C        1.3764278     2.0569214     0.1841774
  C       -3.4119730    -0.3353390     0.1671430
  H        0.2239390    -2.4879400    -0.3067250
  H        3.5227950     0.2883690     0.1888050
  H        2.9194420    -2.3581700    -0.0891670
  H        0.6999810     2.3106600     0.9777950
  H        2.3913760     2.3394710     0.4091260
  H        1.0337950     2.4512300    -0.7527080
  H       -1.7260750    -1.5572290     0.6147920
  H       -4.0269330    -1.2262470     0.0275940
  H       -3.5972090     0.3657440    -0.6460440
  H       -3.6872220     0.1511560     1.1097960
units angstrom
no_reorient  #important for SAPT in psi4, default
symmetry c1  #important for SAPT in psi4, default
}

set PROPERTIES_ORIGIN ["COM"]
properties('MP2/aug-cc-pvtz', properties = ['dipole'])
--------------------------------------------------------------------------

    Molecular point group: c1
  Charge       = 0
  Multiplicity = 1
  Basis Set: AUG-CC-PVTZ
    Blend: AUG-CC-PVTZ
  Basis Set: (AUG-CC-PVTZ AUX)
    Blend: AUG-CC-PVTZ-JKFIT

    Orbital Energies [Eh]
    ---------------------

    Doubly Occupied:

       1A    -20.515823     2A    -15.619312     3A    -15.582457
       4A    -11.354276     5A    -11.265363     6A    -11.265338
       7A    -11.261230     8A    -11.256887     9A    -11.230975
      10A    -11.218961    11A     -1.371699    12A     -1.299661
      13A     -1.225164    14A     -1.075656    15A     -1.014343
      16A     -0.941854    17A     -0.940230    18A     -0.824417
      19A     -0.784168    20A     -0.760790    21A     -0.720236
      22A     -0.649436    23A     -0.641198    24A     -0.634492
      25A     -0.617180    26A     -0.597974    27A     -0.574158
      28A     -0.568752    29A     -0.549375    30A     -0.547748
      31A     -0.541646    32A     -0.536164    33A     -0.515368
      34A     -0.429740    35A     -0.393149    36A     -0.347198
      37A     -0.305089

  @DF-RHF Final Energy:  -454.81781997503350

   => Energetics <=

    Nuclear Repulsion Energy =            521.7972796778942666
    One-Electron Energy =               -1653.2751854223558894
    Two-Electron Energy =                 676.6600857694281785
    Total Energy =                       -454.8178199750334443
  Basis Set: (AUG-CC-PVTZ AUX)
    Blend: AUG-CC-PVTZ-RI
    Molecular point group: c1

    Geometry (in Angstrom), charge = 0, multiplicity = 1:

       Center              X                  Y                   Z               Mass
    ------------   -----------------  -----------------  -----------------  -----------------
         O           -1.342822538685     1.396321563156    -0.393686084432    15.994914619570
         N            1.393509461315     0.549359563156     0.082569915568    14.003074004430
         N           -2.028155538685    -0.718732436844     0.141779915568    14.003074004430
         C            0.311938461315    -0.293996436844    -0.053143084432    12.000000000000
         C            0.803972461315    -1.600213436844    -0.134019084432    12.000000000000
         C            2.543102461315    -0.194996436844     0.093558915568    12.000000000000
         C            2.206423461315    -1.533373436844    -0.042452084432    12.000000000000
         C           -1.065143538685     0.220697563156    -0.111403084432    12.000000000000
         C            1.360348261315     2.054634963156     0.194852315568    12.000000000000
         C           -3.428052538685    -0.337625436844     0.177817915568    12.000000000000
         H            0.207859461315    -2.490226436844    -0.296050084432     1.007825032230
         H            3.506715461315     0.286082563156     0.199479915568     1.007825032230
         H            2.903362461315    -2.360456436844    -0.078492084432     1.007825032230
         H            0.683901461315     2.308373563156     0.988469915568     1.007825032230
         H            2.375296461315     2.337184563156     0.419800915568     1.007825032230
         H            1.017715461315     2.448943563156    -0.742033084432     1.007825032230
         H           -1.742154538685    -1.559515436844     0.625466915568     1.007825032230
         H           -4.043012538685    -1.228533436844     0.038268915568     1.007825032230
         H           -3.613288538685     0.363457563156    -0.635369084432     1.007825032230
         H           -3.703301538685     0.148869563156     1.120470915568     1.007825032230

  Basis Set: AUG-CC-PVTZ
    Blend: AUG-CC-PVTZ
  Basis Set: (AUG-CC-PVTZ AUX)
    Blend: AUG-CC-PVTZ-JKFIT
	 Reference Energy          =    -454.8178199750335011 [Eh]
	 Singles Energy            =      -0.0000000000000000 [Eh]
	 Same-Spin Energy          =      -0.4850555530765920 [Eh]
	 Opposite-Spin Energy      =      -1.5169203374633082 [Eh]
	 Correlation Energy        =      -2.0019758905399003 [Eh]
	 Total Energy              =    -456.8197958655733828 [Eh]

	 ================> DF-SCS-MP2 Energies <==================
	-----------------------------------------------------------
	 SCS Same-Spin Scale       =       0.3333333333333333 [-]
	 SCS Opposite-Spin Scale   =       1.2000000000000000 [-]
	 SCS Same-Spin Energy      =      -0.1616851843588640 [Eh]
	 SCS Opposite-Spin Energy  =      -1.8203044049559698 [Eh]
	 SCS Correlation Energy    =      -1.9819895893148338 [Eh]
	 SCS Total Energy          =    -456.7998095643483225 [Eh]
	-----------------------------------------------------------

  Dipole Moment: [D]
     X:     0.2962      Y:    -1.0458      Z:     1.3696     Total:     1.7485

*** Psi4 exiting successfully. Buy a developer a beer!
