                               Psi4 1.3.2 release

  ==> Input File <==

--------------------------------------------------------------------------
#psi4
#
memory 32 gb

molecule  {
0 1
  O       -1.3267430     1.3986080    -0.4043610
  N        1.3149289     0.6604977     0.0731877
  N       -2.0120760    -0.7164460     0.1311050
  C        0.3280180    -0.2917100    -0.0638180
  C        0.8200520    -1.5979270    -0.1446940
  C        2.5591820    -0.1927100     0.0828840
  C        2.2225030    -1.5310870    -0.0531270
  C       -1.0490640     0.2229840    -0.1220780
  C        1.3775260     2.0070720     0.1804590
  C       -3.4119730    -0.3353390     0.1671430
  H        0.2239390    -2.4879400    -0.3067250
  H        3.5227950     0.2883690     0.1888050
  H        2.9194420    -2.3581700    -0.0891670
  H        0.6999810     2.3106600     0.9777950
  H        2.3913760     2.3394710     0.4091260
  H        1.0337950     2.4512300    -0.7527080
  H       -1.7260750    -1.5572290     0.6147920
  H       -4.0269330    -1.2262470     0.0275940
  H       -3.5972090     0.3657440    -0.6460440
  H       -3.6872220     0.1511560     1.1097960
units angstrom
no_reorient  #important for SAPT in psi4, default
symmetry c1  #important for SAPT in psi4, default
}

set PROPERTIES_ORIGIN ["COM"]
properties('MP2/aug-cc-pvtz', properties = ['dipole'])
--------------------------------------------------------------------------

    Molecular point group: c1
  Charge       = 0
  Multiplicity = 1
  Basis Set: AUG-CC-PVTZ
    Blend: AUG-CC-PVTZ
  Basis Set: (AUG-CC-PVTZ AUX)
    Blend: AUG-CC-PVTZ-JKFIT

    Orbital Energies [Eh]
    ---------------------

    Doubly Occupied:

       1A    -20.518923     2A    -15.616584     3A    -15.584028
       4A    -11.354186     5A    -11.276235     6A    -11.274635
       7A    -11.257689     8A    -11.251079     9A    -11.234908
      10A    -11.233088    11A     -1.374713    12A     -1.293303
      13A     -1.226996    14A     -1.103130    15A     -1.012357
      16A     -0.944567    17A     -0.928756    18A     -0.825648
      19A     -0.783306    20A     -0.764685    21A     -0.725486
      22A     -0.647870    23A     -0.641918    24A     -0.638298
      25A     -0.619390    26A     -0.610464    27A     -0.596256
      28A     -0.565947    29A     -0.552753    30A     -0.546003
      31A     -0.535430    32A     -0.513920    33A     -0.500560
      34A     -0.429467    35A     -0.394096    36A     -0.349369
      37A     -0.304039

  @DF-RHF Final Energy:  -454.78817636488219

   => Energetics <=

    Nuclear Repulsion Energy =            522.5625194131980606
    One-Electron Energy =               -1654.6412303635393073
    Two-Electron Energy =                 677.2905345854591133
    Total Energy =                       -454.7881763648821334
  Basis Set: (AUG-CC-PVTZ AUX)
    Blend: AUG-CC-PVTZ-RI
    Molecular point group: c1

    Geometry (in Angstrom), charge = 0, multiplicity = 1:

       Center              X                  Y                   Z               Mass
    ------------   -----------------  -----------------  -----------------  -----------------
         O           -1.333318189645     1.389614797379    -0.393494027957    15.994914619570
         N            1.308353710355     0.651504497379     0.084054672043    14.003074004430
         N           -2.018651189645    -0.725439202621     0.141971972043    14.003074004430
         C            0.321442810355    -0.300703202621    -0.052951027957    12.000000000000
         C            0.813476810355    -1.606920202621    -0.133827027957    12.000000000000
         C            2.552606810355    -0.201703202621     0.093750972043    12.000000000000
         C            2.215927810355    -1.540080202621    -0.042260027957    12.000000000000
         C           -1.055639189645     0.213990797379    -0.111211027957    12.000000000000
         C            1.370950810355     1.998078797379     0.191325972043    12.000000000000
         C           -3.418548189645    -0.344332202621     0.178009972043    12.000000000000
         H            0.217363810355    -2.496933202621    -0.295858027957     1.007825032230
         H            3.516219810355     0.279375797379     0.199671972043     1.007825032230
         H            2.912866810355    -2.367163202621    -0.078300027957     1.007825032230
         H            0.693405810355     2.301666797379     0.988661972043     1.007825032230
         H            2.384800810355     2.330477797379     0.419992972043     1.007825032230
         H            1.027219810355     2.442236797379    -0.741841027957     1.007825032230
         H           -1.732650189645    -1.566222202621     0.625658972043     1.007825032230
         H           -4.033508189645    -1.235240202621     0.038460972043     1.007825032230
         H           -3.603784189645     0.356750797379    -0.635177027957     1.007825032230
         H           -3.693797189645     0.142162797379     1.120662972043     1.007825032230

  Basis Set: AUG-CC-PVTZ
    Blend: AUG-CC-PVTZ
  Basis Set: (AUG-CC-PVTZ AUX)
    Blend: AUG-CC-PVTZ-JKFIT
	 Reference Energy          =    -454.7881763648821902 [Eh]
	 Singles Energy            =      -0.0000000000000000 [Eh]
	 Same-Spin Energy          =      -0.4868534147590012 [Eh]
	 Opposite-Spin Energy      =      -1.5213196420941046 [Eh]
	 Correlation Energy        =      -2.0081730568531060 [Eh]
	 Total Energy              =    -456.7963494217352718 [Eh]

	 ================> DF-SCS-MP2 Energies <==================
	-----------------------------------------------------------
	 SCS Same-Spin Scale       =       0.3333333333333333 [-]
	 SCS Opposite-Spin Scale   =       1.2000000000000000 [-]
	 SCS Same-Spin Energy      =      -0.1622844715863337 [Eh]
	 SCS Opposite-Spin Energy  =      -1.8255835705129255 [Eh]
	 SCS Correlation Energy    =      -1.9878680420992592 [Eh]
	 SCS Total Energy          =    -456.7760444069814412 [Eh]
	-----------------------------------------------------------

  Dipole Moment: [D]
     X:     0.3139      Y:    -1.5642      Z:     1.3269     Total:     2.0751

*** Psi4 exiting successfully. Buy a developer a beer!
