                               Psi4 1.4a3.dev225

  ==> Input File <==

--------------------------------------------------------------------------
#psi4
#
memory 32 gb

molecule  {
0 1
  O       -1.3267430     1.3986080    -0.4043610
  N        1.4095890     0.5516460     0.0718950
  N       -2.0120760    -0.7164460     0.1311050
  C        0.3280180    -0.2917100    -0.0638180
  C        0.8200520    -1.5979270    -0.1446940
  C        2.5591820    -0.1927100     0.0828840
  C        2.1726656    -1.5334622    -0.0563809
  C       -1.0490640     0.2229840    -0.1220780
  C        1.3775260     2.0070720     0.1804590
  C       -3.4119730    -0.3353390     0.1671430
  H        0.2239390    -2.4879400    -0.3067250
  H        3.5227950     0.2883690     0.1888050
  H        2.9194420    -2.3581700    -0.0891670
  H        0.6999810     2.3106600     0.9777950
  H        2.3913760     2.3394710     0.4091260
  H        1.0337950     2.4512300    -0.7527080
  H       -1.7260750    -1.5572290     0.6147920
  H       -4.0269330    -1.2262470     0.0275940
  H       -3.5972090     0.3657440    -0.6460440
  H       -3.6872220     0.1511560     1.1097960
units angstrom
no_reorient  #important for SAPT in psi4, default
symmetry c1  #important for SAPT in psi4, default
}

set PROPERTIES_ORIGIN ["COM"]
properties('MP2/aug-cc-pvtz', properties = ['dipole'])
--------------------------------------------------------------------------

    Molecular point group: c1
  Charge       = 0
  Multiplicity = 1
  Basis Set: AUG-CC-PVTZ
    Blend: AUG-CC-PVTZ
  Basis Set: (AUG-CC-PVTZ AUX)
    Blend: AUG-CC-PVTZ-JKFIT

    Orbital Energies [Eh]
    ---------------------

    Doubly Occupied:

       1A    -20.514712     2A    -15.624418     3A    -15.582126
       4A    -11.353627     5A    -11.267456     6A    -11.263956
       7A    -11.260662     8A    -11.256677     9A    -11.227995
      10A    -11.220111    11A     -1.371275    12A     -1.308922
      13A     -1.224859    14A     -1.089185    15A     -1.013781
      16A     -0.943111    17A     -0.939839    18A     -0.823706
      19A     -0.783996    20A     -0.762489    21A     -0.725656
      22A     -0.651598    23A     -0.642273    24A     -0.634335
      25A     -0.616581    26A     -0.591470    27A     -0.579325
      28A     -0.572638    29A     -0.560155    30A     -0.546254
      31A     -0.538428    32A     -0.525199    33A     -0.514187
      34A     -0.428587    35A     -0.392747    36A     -0.354781
      37A     -0.301774

  @DF-RHF Final Energy:  -454.81564704957106

   => Energetics <=

    Nuclear Repulsion Energy =            523.4836359415028255
    One-Electron Energy =               -1656.5807772352827669
    Two-Electron Energy =                 678.2814942442088295
    Total Energy =                       -454.8156470495711119
  Basis Set: (AUG-CC-PVTZ AUX)
    Blend: AUG-CC-PVTZ-RI
    Molecular point group: c1

    Geometry (in Angstrom), charge = 0, multiplicity = 1:

       Center              X                  Y                   Z               Mass
    ------------   -----------------  -----------------  -----------------  -----------------
         O           -1.338586781804     1.400860224209    -0.393080145728    15.994914619570
         N            1.397745218196     0.553898224209     0.083175854272    14.003074004430
         N           -2.023919781804    -0.714193775791     0.142385854272    14.003074004430
         C            0.316174218196    -0.289457775791    -0.052537145728    12.000000000000
         C            0.808208218196    -1.595674775791    -0.133413145728    12.000000000000
         C            2.547338218196    -0.190457775791     0.094164854272    12.000000000000
         C            2.160821818196    -1.531209975791    -0.045100045728    12.000000000000
         C           -1.060907781804     0.225236224209    -0.110797145728    12.000000000000
         C            1.365682218196     2.009324224209     0.191739854272    12.000000000000
         C           -3.423816781804    -0.333086775791     0.178423854272    12.000000000000
         H            0.212095218196    -2.485687775791    -0.295444145728     1.007825032230
         H            3.510951218196     0.290621224209     0.200085854272     1.007825032230
         H            2.907598218196    -2.355917775791    -0.077886145728     1.007825032230
         H            0.688137218196     2.312912224209     0.989075854272     1.007825032230
         H            2.379532218196     2.341723224209     0.420406854272     1.007825032230
         H            1.021951218196     2.453482224209    -0.741427145728     1.007825032230
         H           -1.737918781804    -1.554976775791     0.626072854272     1.007825032230
         H           -4.038776781804    -1.223994775791     0.038874854272     1.007825032230
         H           -3.609052781804     0.367996224209    -0.634763145728     1.007825032230
         H           -3.699065781804     0.153408224209     1.121076854272     1.007825032230

  Basis Set: AUG-CC-PVTZ
    Blend: AUG-CC-PVTZ
  Basis Set: (AUG-CC-PVTZ AUX)
    Blend: AUG-CC-PVTZ-JKFIT
	 Reference Energy          =    -454.8156470495710550 [Eh]
	 Singles Energy            =      -0.0000000000000000 [Eh]
	 Same-Spin Energy          =      -0.4859895530301657 [Eh]
	 Opposite-Spin Energy      =      -1.5175535847349495 [Eh]
	 Correlation Energy        =      -2.0035431377651154 [Eh]
	 Total Energy              =    -456.8191901873361758 [Eh]

	 ================> DF-SCS-MP2 Energies <==================
	-----------------------------------------------------------
	 SCS Same-Spin Scale       =       0.3333333333333333 [-]
	 SCS Opposite-Spin Scale   =       1.2000000000000000 [-]
	 SCS Same-Spin Energy      =      -0.1619965176767219 [Eh]
	 SCS Opposite-Spin Energy  =      -1.8210643016819392 [Eh]
	 SCS Correlation Energy    =      -1.9830608193586612 [Eh]
	 SCS Total Energy          =    -456.7987078689297391 [Eh]
	-----------------------------------------------------------

  Dipole Moment: [D]
     X:     0.3228      Y:    -1.1884      Z:     1.3598     Total:     1.8346

*** Psi4 exiting successfully. Buy a developer a beer!
