                               Psi4 1.3.2 release

  ==> Input File <==

--------------------------------------------------------------------------
#psi4
#
memory 32 gb

molecule  {
0 1
  O       -1.3267430     1.3986080    -0.4043610
  N        1.4095890     0.5516460     0.0718950
  N       -2.0120760    -0.7164460     0.1311050
  C        0.3280180    -0.2917100    -0.0638180
  C        0.8552436    -1.6913512    -0.1504785
  C        2.5591820    -0.1927100     0.0828840
  C        2.2225030    -1.5310870    -0.0531270
  C       -1.0490640     0.2229840    -0.1220780
  C        1.3775260     2.0070720     0.1804590
  C       -3.4119730    -0.3353390     0.1671430
  H        0.2239390    -2.4879400    -0.3067250
  H        3.5227950     0.2883690     0.1888050
  H        2.9194420    -2.3581700    -0.0891670
  H        0.6999810     2.3106600     0.9777950
  H        2.3913760     2.3394710     0.4091260
  H        1.0337950     2.4512300    -0.7527080
  H       -1.7260750    -1.5572290     0.6147920
  H       -4.0269330    -1.2262470     0.0275940
  H       -3.5972090     0.3657440    -0.6460440
  H       -3.6872220     0.1511560     1.1097960
units angstrom
no_reorient  #important for SAPT in psi4, default
symmetry c1  #important for SAPT in psi4, default
}

set PROPERTIES_ORIGIN ["COM"]
properties('MP2/aug-cc-pvtz', properties = ['dipole'])
--------------------------------------------------------------------------

    Molecular point group: c1
  Charge       = 0
  Multiplicity = 1
  Basis Set: AUG-CC-PVTZ
    Blend: AUG-CC-PVTZ
  Basis Set: (AUG-CC-PVTZ AUX)
    Blend: AUG-CC-PVTZ-JKFIT

    Orbital Energies [Eh]
    ---------------------

    Doubly Occupied:

       1A    -20.514229     2A    -15.630763     3A    -15.581684
       4A    -11.353327     5A    -11.269939     6A    -11.266288
       7A    -11.266260     8A    -11.256373     9A    -11.236590
      10A    -11.222946    11A     -1.370681    12A     -1.306167
      13A     -1.224212    14A     -1.081674    15A     -1.010399
      16A     -0.945954    17A     -0.938796    18A     -0.826466
      19A     -0.788415    20A     -0.761095    21A     -0.725453
      22A     -0.653945    23A     -0.641608    24A     -0.633964
      25A     -0.617290    26A     -0.596638    27A     -0.586299
      28A     -0.571399    29A     -0.561520    30A     -0.545429
      31A     -0.536589    32A     -0.520683    33A     -0.512646
      34A     -0.426845    35A     -0.392450    36A     -0.353887
      37A     -0.295186

  @DF-RHF Final Energy:  -454.80484719125144

   => Energetics <=

    Nuclear Repulsion Energy =            520.9907939005760227
    One-Electron Energy =               -1651.5431082583031639
    Two-Electron Energy =                 675.7474671664756443
    Total Energy =                       -454.8048471912513833
  Basis Set: (AUG-CC-PVTZ AUX)
    Blend: AUG-CC-PVTZ-RI
    Molecular point group: c1

    Geometry (in Angstrom), charge = 0, multiplicity = 1:

       Center              X                  Y                   Z               Mass
    ------------   -----------------  -----------------  -----------------  -----------------
         O           -1.345976360867     1.408772980847    -0.392860219952    15.994914619570
         N            1.390355639133     0.561810980847     0.083395780048    14.003074004430
         N           -2.031309360867    -0.706281019153     0.142605780048    14.003074004430
         C            0.308784639133    -0.281545019153    -0.052317219952    12.000000000000
         C            0.836010239133    -1.681186219153    -0.138977719952    12.000000000000
         C            2.539948639133    -0.182545019153     0.094384780048    12.000000000000
         C            2.203269639133    -1.520922019153    -0.041626219952    12.000000000000
         C           -1.068297360867     0.233148980847    -0.110577219952    12.000000000000
         C            1.358292639133     2.017236980847     0.191959780048    12.000000000000
         C           -3.431206360867    -0.325174019153     0.178643780048    12.000000000000
         H            0.204705639133    -2.477775019153    -0.295224219952     1.007825032230
         H            3.503561639133     0.298533980847     0.200305780048     1.007825032230
         H            2.900208639133    -2.348005019153    -0.077666219952     1.007825032230
         H            0.680747639133     2.320824980847     0.989295780048     1.007825032230
         H            2.372142639133     2.349635980847     0.420626780048     1.007825032230
         H            1.014561639133     2.461394980847    -0.741207219952     1.007825032230
         H           -1.745308360867    -1.547064019153     0.626292780048     1.007825032230
         H           -4.046166360867    -1.216082019153     0.039094780048     1.007825032230
         H           -3.616442360867     0.375908980847    -0.634543219952     1.007825032230
         H           -3.706455360867     0.161320980847     1.121296780048     1.007825032230

  Basis Set: AUG-CC-PVTZ
    Blend: AUG-CC-PVTZ
  Basis Set: (AUG-CC-PVTZ AUX)
    Blend: AUG-CC-PVTZ-JKFIT
	 Reference Energy          =    -454.8048471912514401 [Eh]
	 Singles Energy            =      -0.0000000000000000 [Eh]
	 Same-Spin Energy          =      -0.4868508278733802 [Eh]
	 Opposite-Spin Energy      =      -1.5194432529272310 [Eh]
	 Correlation Energy        =      -2.0062940808006111 [Eh]
	 Total Energy              =    -456.8111412720520548 [Eh]

	 ================> DF-SCS-MP2 Energies <==================
	-----------------------------------------------------------
	 SCS Same-Spin Scale       =       0.3333333333333333 [-]
	 SCS Opposite-Spin Scale   =       1.2000000000000000 [-]
	 SCS Same-Spin Energy      =      -0.1622836092911267 [Eh]
	 SCS Opposite-Spin Energy  =      -1.8233319035126772 [Eh]
	 SCS Correlation Energy    =      -1.9856155128038040 [Eh]
	 SCS Total Energy          =    -456.7904627040552441 [Eh]
	-----------------------------------------------------------

  Dipole Moment: [D]
     X:     0.3820      Y:    -1.1337      Z:     1.3602     Total:     1.8114

*** Psi4 exiting successfully. Buy a developer a beer!
