                               Psi4 1.3.2 release

  ==> Input File <==

--------------------------------------------------------------------------
#psi4
#
memory 32 gb

molecule  {
0 1
  O       -1.3267430     1.3986080    -0.4043610
  N        1.4925425     0.4337281     0.0668934
  N       -2.0120760    -0.7164460     0.1311050
  C        0.3280180    -0.2917100    -0.0638180
  C        0.8200520    -1.5979270    -0.1446940
  C        2.5591820    -0.1927100     0.0828840
  C        2.2225030    -1.5310870    -0.0531270
  C       -1.0490640     0.2229840    -0.1220780
  C        1.3775260     2.0070720     0.1804590
  C       -3.4119730    -0.3353390     0.1671430
  H        0.2239390    -2.4879400    -0.3067250
  H        3.5227950     0.2883690     0.1888050
  H        2.9194420    -2.3581700    -0.0891670
  H        0.6999810     2.3106600     0.9777950
  H        2.3913760     2.3394710     0.4091260
  H        1.0337950     2.4512300    -0.7527080
  H       -1.7260750    -1.5572290     0.6147920
  H       -4.0269330    -1.2262470     0.0275940
  H       -3.5972090     0.3657440    -0.6460440
  H       -3.6872220     0.1511560     1.1097960
units angstrom
no_reorient  #important for SAPT in psi4, default
symmetry c1  #important for SAPT in psi4, default
}

set PROPERTIES_ORIGIN ["COM"]
properties('MP2/aug-cc-pvtz', properties = ['dipole'])
--------------------------------------------------------------------------

    Molecular point group: c1
  Charge       = 0
  Multiplicity = 1
  Basis Set: AUG-CC-PVTZ
    Blend: AUG-CC-PVTZ
  Basis Set: (AUG-CC-PVTZ AUX)
    Blend: AUG-CC-PVTZ-JKFIT

    Orbital Energies [Eh]
    ---------------------

    Doubly Occupied:

       1A    -20.512971     2A    -15.623927     3A    -15.581532
       4A    -11.355464     5A    -11.276894     6A    -11.257322
       7A    -11.256451     8A    -11.251496     9A    -11.230109
      10A    -11.207698    11A     -1.371059    12A     -1.338583
      13A     -1.224134    14A     -1.064820    15A     -1.026616
      16A     -0.948610    17A     -0.935920    18A     -0.824102
      19A     -0.793411    20A     -0.760042    21A     -0.720270
      22A     -0.668835    23A     -0.644145    24A     -0.633232
      25A     -0.616996    26A     -0.593973    27A     -0.585059
      28A     -0.557357    29A     -0.549628    30A     -0.546616
      31A     -0.536719    32A     -0.526155    33A     -0.519706
      34A     -0.428467    35A     -0.392484    36A     -0.350559
      37A     -0.302643

  @DF-RHF Final Energy:  -454.79211729173653

   => Energetics <=

    Nuclear Repulsion Energy =            523.5155807532672725
    One-Electron Energy =               -1656.5873888636299398
    Two-Electron Energy =                 678.2796908186262499
    Total Energy =                       -454.7921172917365311
  Basis Set: (AUG-CC-PVTZ AUX)
    Blend: AUG-CC-PVTZ-RI
    Molecular point group: c1

    Geometry (in Angstrom), charge = 0, multiplicity = 1:

       Center              X                  Y                   Z               Mass
    ------------   -----------------  -----------------  -----------------  -----------------
         O           -1.351330564792     1.412612242998    -0.392855702441    15.994914619570
         N            1.467954935208     0.447732342998     0.078398697559    14.003074004430
         N           -2.036663564792    -0.702441757002     0.142610297559    14.003074004430
         C            0.303430435208    -0.277705757002    -0.052312702441    12.000000000000
         C            0.795464435208    -1.583922757002    -0.133188702441    12.000000000000
         C            2.534594435208    -0.178705757002     0.094389297559    12.000000000000
         C            2.197915435208    -1.517082757002    -0.041621702441    12.000000000000
         C           -1.073651564792     0.236988242998    -0.110572702441    12.000000000000
         C            1.352938435208     2.021076242998     0.191964297559    12.000000000000
         C           -3.436560564792    -0.321334757002     0.178648297559    12.000000000000
         H            0.199351435208    -2.473935757002    -0.295219702441     1.007825032230
         H            3.498207435208     0.302373242998     0.200310297559     1.007825032230
         H            2.894854435208    -2.344165757002    -0.077661702441     1.007825032230
         H            0.675393435208     2.324664242998     0.989300297559     1.007825032230
         H            2.366788435208     2.353475242998     0.420631297559     1.007825032230
         H            1.009207435208     2.465234242998    -0.741202702441     1.007825032230
         H           -1.750662564792    -1.543224757002     0.626297297559     1.007825032230
         H           -4.051520564792    -1.212242757002     0.039099297559     1.007825032230
         H           -3.621796564792     0.379748242998    -0.634538702441     1.007825032230
         H           -3.711809564792     0.165160242998     1.121301297559     1.007825032230

  Basis Set: AUG-CC-PVTZ
    Blend: AUG-CC-PVTZ
  Basis Set: (AUG-CC-PVTZ AUX)
    Blend: AUG-CC-PVTZ-JKFIT
	 Reference Energy          =    -454.7921172917365311 [Eh]
	 Singles Energy            =      -0.0000000000000000 [Eh]
	 Same-Spin Energy          =      -0.4850193141790077 [Eh]
	 Opposite-Spin Energy      =      -1.5155456624349304 [Eh]
	 Correlation Energy        =      -2.0005649766139380 [Eh]
	 Total Energy              =    -456.7926822683504611 [Eh]

	 ================> DF-SCS-MP2 Energies <==================
	-----------------------------------------------------------
	 SCS Same-Spin Scale       =       0.3333333333333333 [-]
	 SCS Opposite-Spin Scale   =       1.2000000000000000 [-]
	 SCS Same-Spin Energy      =      -0.1616731047263359 [Eh]
	 SCS Opposite-Spin Energy  =      -1.8186547949219163 [Eh]
	 SCS Correlation Energy    =      -1.9803278996482523 [Eh]
	 SCS Total Energy          =    -456.7724451913848043 [Eh]
	-----------------------------------------------------------

  Dipole Moment: [D]
     X:     0.3408      Y:    -0.7589      Z:     1.3982     Total:     1.6269

*** Psi4 exiting successfully. Buy a developer a beer!
