                               Psi4 1.3.2 release

  ==> Input File <==

--------------------------------------------------------------------------
#psi4
#
memory 32 gb

molecule  {
0 1
  O       -1.3267430     1.3986080    -0.4043610
  N        1.4095890     0.5516460     0.0718950
  N       -1.9775909    -0.7489901     0.1370101
  C        0.3280180    -0.2917100    -0.0638180
  C        0.8200520    -1.5979270    -0.1446940
  C        2.5591820    -0.1927100     0.0828840
  C        2.2225030    -1.5310870    -0.0531270
  C       -1.0490640     0.2229840    -0.1220780
  C        1.3775260     2.0070720     0.1804590
  C       -3.4119730    -0.3353390     0.1671430
  H        0.2239390    -2.4879400    -0.3067250
  H        3.5227950     0.2883690     0.1888050
  H        2.9194420    -2.3581700    -0.0891670
  H        0.6999810     2.3106600     0.9777950
  H        2.3913760     2.3394710     0.4091260
  H        1.0337950     2.4512300    -0.7527080
  H       -1.7260750    -1.5572290     0.6147920
  H       -4.0269330    -1.2262470     0.0275940
  H       -3.5972090     0.3657440    -0.6460440
  H       -3.6872220     0.1511560     1.1097960
units angstrom
no_reorient  #important for SAPT in psi4, default
symmetry c1  #important for SAPT in psi4, default
}

set PROPERTIES_ORIGIN ["COM"]
properties('MP2/aug-cc-pvtz', properties = ['dipole'])
--------------------------------------------------------------------------

    Molecular point group: c1
  Charge       = 0
  Multiplicity = 1
  Basis Set: AUG-CC-PVTZ
    Blend: AUG-CC-PVTZ
  Basis Set: (AUG-CC-PVTZ AUX)
    Blend: AUG-CC-PVTZ-JKFIT

    Orbital Energies [Eh]
    ---------------------

    Doubly Occupied:

       1A    -20.518383     2A    -15.619620     3A    -15.581531
       4A    -11.355717     5A    -11.265862     6A    -11.262933
       7A    -11.260900     8A    -11.260876     9A    -11.231429
      10A    -11.219628    11A     -1.372209    12A     -1.305707
      13A     -1.225111    14A     -1.081252    15A     -1.013673
      16A     -0.939799    17A     -0.937331    18A     -0.831451
      19A     -0.787379    20A     -0.766113    21A     -0.724043
      22A     -0.648118    23A     -0.640744    24A     -0.633452
      25A     -0.613973    26A     -0.591412    27A     -0.578670
      28A     -0.569805    29A     -0.552346    30A     -0.549021
      31A     -0.537608    32A     -0.532485    33A     -0.514142
      34A     -0.430268    35A     -0.397763    36A     -0.346842
      37A     -0.305520

  @DF-RHF Final Energy:  -454.81720361385396

   => Energetics <=

    Nuclear Repulsion Energy =            522.6386404816422555
    One-Electron Energy =               -1654.9054538053314900
    Two-Electron Energy =                 677.4496097098353857
    Total Energy =                       -454.8172036138539625
  Basis Set: (AUG-CC-PVTZ AUX)
    Blend: AUG-CC-PVTZ-RI
    Molecular point group: c1

    Geometry (in Angstrom), charge = 0, multiplicity = 1:

       Center              X                  Y                   Z               Mass
    ------------   -----------------  -----------------  -----------------  -----------------
         O           -1.346415226082     1.403954207164    -0.393961786502    15.994914619570
         N            1.389916773918     0.556992207164     0.082294213498    14.003074004430
         N           -1.997263126082    -0.743643892836     0.147409313498    14.003074004430
         C            0.308345773918    -0.286363792836    -0.053418786502    12.000000000000
         C            0.800379773918    -1.592580792836    -0.134294786502    12.000000000000
         C            2.539509773918    -0.187363792836     0.093283213498    12.000000000000
         C            2.202830773918    -1.525740792836    -0.042727786502    12.000000000000
         C           -1.068736226082     0.228330207164    -0.111678786502    12.000000000000
         C            1.357853773918     2.012418207164     0.190858213498    12.000000000000
         C           -3.431645226082    -0.329992792836     0.177542213498    12.000000000000
         H            0.204266773918    -2.482593792836    -0.296325786502     1.007825032230
         H            3.503122773918     0.293715207164     0.199204213498     1.007825032230
         H            2.899769773918    -2.352823792836    -0.078767786502     1.007825032230
         H            0.680308773918     2.316006207164     0.988194213498     1.007825032230
         H            2.371703773918     2.344817207164     0.419525213498     1.007825032230
         H            1.014122773918     2.456576207164    -0.742308786502     1.007825032230
         H           -1.745747226082    -1.551882792836     0.625191213498     1.007825032230
         H           -4.046605226082    -1.220900792836     0.037993213498     1.007825032230
         H           -3.616881226082     0.371090207164    -0.635644786502     1.007825032230
         H           -3.706894226082     0.156502207164     1.120195213498     1.007825032230

  Basis Set: AUG-CC-PVTZ
    Blend: AUG-CC-PVTZ
  Basis Set: (AUG-CC-PVTZ AUX)
    Blend: AUG-CC-PVTZ-JKFIT
	 Reference Energy          =    -454.8172036138539625 [Eh]
	 Singles Energy            =      -0.0000000000000000 [Eh]
	 Same-Spin Energy          =      -0.4849965491086187 [Eh]
	 Opposite-Spin Energy      =      -1.5168251119892373 [Eh]
	 Correlation Energy        =      -2.0018216610978561 [Eh]
	 Total Energy              =    -456.8190252749517981 [Eh]

	 ================> DF-SCS-MP2 Energies <==================
	-----------------------------------------------------------
	 SCS Same-Spin Scale       =       0.3333333333333333 [-]
	 SCS Opposite-Spin Scale   =       1.2000000000000000 [-]
	 SCS Same-Spin Energy      =      -0.1616655163695395 [Eh]
	 SCS Opposite-Spin Energy  =      -1.8201901343870848 [Eh]
	 SCS Correlation Energy    =      -1.9818556507566243 [Eh]
	 SCS Total Energy          =    -456.7990592646106052 [Eh]
	-----------------------------------------------------------

  Dipole Moment: [D]
     X:     0.1729      Y:    -1.1190      Z:     1.3653     Total:     1.7737

*** Psi4 exiting successfully. Buy a developer a beer!
