                               Psi4 1.3.2 release

  ==> Input File <==

--------------------------------------------------------------------------
#psi4
#
memory 32 gb

molecule  {
0 1
  O       -1.3267430     1.3986080    -0.4043610
  N        1.4095890     0.5516460     0.0718950
  N       -2.0120760    -0.7164460     0.1311050
  C        0.3280180    -0.2917100    -0.0638180
  C        0.8200520    -1.5979270    -0.1446940
  C        2.5591820    -0.1927100     0.0828840
  C        2.2225030    -1.5310870    -0.0531270
  C       -1.0490640     0.2229840    -0.1220780
  C        1.3775260     2.0070720     0.1804590
  C       -3.4119730    -0.3353390     0.1671430
  H        0.2789621    -2.4057890    -0.2917690
  H        3.5227950     0.2883690     0.1888050
  H        2.9194420    -2.3581700    -0.0891670
  H        0.6999810     2.3106600     0.9777950
  H        2.3913760     2.3394710     0.4091260
  H        1.0337950     2.4512300    -0.7527080
  H       -1.7260750    -1.5572290     0.6147920
  H       -4.0269330    -1.2262470     0.0275940
  H       -3.5972090     0.3657440    -0.6460440
  H       -3.6872220     0.1511560     1.1097960
units angstrom
no_reorient  #important for SAPT in psi4, default
symmetry c1  #important for SAPT in psi4, default
}

set PROPERTIES_ORIGIN ["COM"]
properties('MP2/aug-cc-pvtz', properties = ['dipole'])
--------------------------------------------------------------------------

    Molecular point group: c1
  Charge       = 0
  Multiplicity = 1
  Basis Set: AUG-CC-PVTZ
    Blend: AUG-CC-PVTZ
  Basis Set: (AUG-CC-PVTZ AUX)
    Blend: AUG-CC-PVTZ-JKFIT

    Orbital Energies [Eh]
    ---------------------

    Doubly Occupied:

       1A    -20.516234     2A    -15.620443     3A    -15.583307
       4A    -11.354935     5A    -11.266422     6A    -11.263044
       7A    -11.262287     8A    -11.257381     9A    -11.221104
      10A    -11.219544    11A     -1.372402    12A     -1.306288
      13A     -1.225945    14A     -1.083765    15A     -1.016219
      16A     -0.942570    17A     -0.940460    18A     -0.827779
      19A     -0.793172    20A     -0.762049    21A     -0.731587
      22A     -0.652205    23A     -0.641975    24A     -0.635285
      25A     -0.617593    26A     -0.599297    27A     -0.582388
      28A     -0.574054    29A     -0.552430    30A     -0.547235
      31A     -0.537873    32A     -0.534464    33A     -0.513416
      34A     -0.429663    35A     -0.393634    36A     -0.347407
      37A     -0.306246

  @DF-RHF Final Energy:  -454.81387664978467

   => Energetics <=

    Nuclear Repulsion Energy =            523.2957598363948364
    One-Electron Energy =               -1656.1550676932465649
    Two-Electron Energy =                 678.0454312070670539
    Total Energy =                       -454.8138766497846746
  Basis Set: (AUG-CC-PVTZ AUX)
    Blend: AUG-CC-PVTZ-RI
    Molecular point group: c1

    Geometry (in Angstrom), charge = 0, multiplicity = 1:

       Center              X                  Y                   Z               Mass
    ------------   -----------------  -----------------  -----------------  -----------------
         O           -1.343319586766     1.400054193010    -0.393472093153    15.994914619570
         N            1.393012413234     0.553092193010     0.082783906847    14.003074004430
         N           -2.028652586766    -0.714999806990     0.141993906847    14.003074004430
         C            0.311441413234    -0.290263806990    -0.052929093153    12.000000000000
         C            0.803475413234    -1.596480806990    -0.133805093153    12.000000000000
         C            2.542605413234    -0.191263806990     0.093772906847    12.000000000000
         C            2.205926413234    -1.529640806990    -0.042238093153    12.000000000000
         C           -1.065640586766     0.224430193010    -0.111189093153    12.000000000000
         C            1.360949413234     2.008518193010     0.191347906847    12.000000000000
         C           -3.428549586766    -0.333892806990     0.178031906847    12.000000000000
         H            0.262385513234    -2.404342806990    -0.280880093153     1.007825032230
         H            3.506218413234     0.289815193010     0.199693906847     1.007825032230
         H            2.902865413234    -2.356723806990    -0.078278093153     1.007825032230
         H            0.683404413234     2.312106193010     0.988683906847     1.007825032230
         H            2.374799413234     2.340917193010     0.420014906847     1.007825032230
         H            1.017218413234     2.452676193010    -0.741819093153     1.007825032230
         H           -1.742651586766    -1.555782806990     0.625680906847     1.007825032230
         H           -4.043509586766    -1.224800806990     0.038482906847     1.007825032230
         H           -3.613785586766     0.367190193010    -0.635155093153     1.007825032230
         H           -3.703798586766     0.152602193010     1.120684906847     1.007825032230

  Basis Set: AUG-CC-PVTZ
    Blend: AUG-CC-PVTZ
  Basis Set: (AUG-CC-PVTZ AUX)
    Blend: AUG-CC-PVTZ-JKFIT
	 Reference Energy          =    -454.8138766497846746 [Eh]
	 Singles Energy            =      -0.0000000000000000 [Eh]
	 Same-Spin Energy          =      -0.4850877437249537 [Eh]
	 Opposite-Spin Energy      =      -1.5163071216144652 [Eh]
	 Correlation Energy        =      -2.0013948653394191 [Eh]
	 Total Energy              =    -456.8152715151240955 [Eh]

	 ================> DF-SCS-MP2 Energies <==================
	-----------------------------------------------------------
	 SCS Same-Spin Scale       =       0.3333333333333333 [-]
	 SCS Opposite-Spin Scale   =       1.2000000000000000 [-]
	 SCS Same-Spin Energy      =      -0.1616959145749846 [Eh]
	 SCS Opposite-Spin Energy  =      -1.8195685459373583 [Eh]
	 SCS Correlation Energy    =      -1.9812644605123428 [Eh]
	 SCS Total Energy          =    -456.7951411102970383 [Eh]
	-----------------------------------------------------------

  Dipole Moment: [D]
     X:     0.2653      Y:    -1.1911      Z:     1.3594     Total:     1.8268

*** Psi4 exiting successfully. Buy a developer a beer!
