                               Psi4 1.3.2 release

  ==> Input File <==

--------------------------------------------------------------------------
#psi4
#
memory 32 gb

molecule  {
0 1
  O       -1.3687123     1.3890040    -0.3997532
  N        1.4095890     0.5516460     0.0718950
  N       -2.0120760    -0.7164460     0.1311050
  C        0.3280180    -0.2917100    -0.0638180
  C        0.8200520    -1.5979270    -0.1446940
  C        2.5591820    -0.1927100     0.0828840
  C        2.2225030    -1.5310870    -0.0531270
  C       -1.0490640     0.2229840    -0.1220780
  C        1.3775260     2.0070720     0.1804590
  C       -3.4119730    -0.3353390     0.1671430
  H        0.2239390    -2.4879400    -0.3067250
  H        3.5227950     0.2883690     0.1888050
  H        2.9194420    -2.3581700    -0.0891670
  H        0.6999810     2.3106600     0.9777950
  H        2.3913760     2.3394710     0.4091260
  H        1.0337950     2.4512300    -0.7527080
  H       -1.7260750    -1.5572290     0.6147920
  H       -4.0269330    -1.2262470     0.0275940
  H       -3.5972090     0.3657440    -0.6460440
  H       -3.6872220     0.1511560     1.1097960
units angstrom
no_reorient  #important for SAPT in psi4, default
symmetry c1  #important for SAPT in psi4, default
}

set PROPERTIES_ORIGIN ["COM"]
properties('MP2/aug-cc-pvtz', properties = ['dipole'])
--------------------------------------------------------------------------

    Molecular point group: c1
  Charge       = 0
  Multiplicity = 1
  Basis Set: AUG-CC-PVTZ
    Blend: AUG-CC-PVTZ
  Basis Set: (AUG-CC-PVTZ AUX)
    Blend: AUG-CC-PVTZ-JKFIT

    Orbital Energies [Eh]
    ---------------------

    Doubly Occupied:

       1A    -20.515268     2A    -15.622092     3A    -15.580624
       4A    -11.354387     5A    -11.268184     6A    -11.264724
       7A    -11.264582     8A    -11.255435     9A    -11.234140
      10A    -11.221615    11A     -1.372255    12A     -1.308244
      13A     -1.222587    14A     -1.083558    15A     -1.017143
      16A     -0.940597    17A     -0.939249    18A     -0.825558
      19A     -0.787750    20A     -0.760975    21A     -0.725797
      22A     -0.651132    23A     -0.642400    24A     -0.634284
      25A     -0.616617    26A     -0.594678    27A     -0.580713
      28A     -0.573537    29A     -0.551149    30A     -0.545666
      31A     -0.537796    32A     -0.533123    33A     -0.513623
      34A     -0.429803    35A     -0.391407    36A     -0.348872
      37A     -0.307910

  @DF-RHF Final Energy:  -454.81952553165110

   => Energetics <=

    Nuclear Repulsion Energy =            522.5503535370302188
    One-Electron Energy =               -1654.7048042703552255
    Two-Electron Energy =                 677.3349252016739683
    Total Energy =                       -454.8195255316511521
  Basis Set: (AUG-CC-PVTZ AUX)
    Blend: AUG-CC-PVTZ-RI
    Molecular point group: c1

    Geometry (in Angstrom), charge = 0, multiplicity = 1:

       Center              X                  Y                   Z               Mass
    ------------   -----------------  -----------------  -----------------  -----------------
         O           -1.380025614433     1.392162317652    -0.389288892140    15.994914619570
         N            1.398275685567     0.554804317652     0.082359307860    14.003074004430
         N           -2.023389314433    -0.713287682348     0.141569307860    14.003074004430
         C            0.316704685567    -0.288551682348    -0.053353692140    12.000000000000
         C            0.808738685567    -1.594768682348    -0.134229692140    12.000000000000
         C            2.547868685567    -0.189551682348     0.093348307860    12.000000000000
         C            2.211189685567    -1.527928682348    -0.042662692140    12.000000000000
         C           -1.060377314433     0.226142317652    -0.111613692140    12.000000000000
         C            1.366212685567     2.010230317652     0.190923307860    12.000000000000
         C           -3.423286314433    -0.332180682348     0.177607307860    12.000000000000
         H            0.212625685567    -2.484781682348    -0.296260692140     1.007825032230
         H            3.511481685567     0.291527317652     0.199269307860     1.007825032230
         H            2.908128685567    -2.355011682348    -0.078702692140     1.007825032230
         H            0.688667685567     2.313818317652     0.988259307860     1.007825032230
         H            2.380062685567     2.342629317652     0.419590307860     1.007825032230
         H            1.022481685567     2.454388317652    -0.742243692140     1.007825032230
         H           -1.737388314433    -1.554070682348     0.625256307860     1.007825032230
         H           -4.038246314433    -1.223088682348     0.038058307860     1.007825032230
         H           -3.608522314433     0.368902317652    -0.635579692140     1.007825032230
         H           -3.698535314433     0.154314317652     1.120260307860     1.007825032230

  Basis Set: AUG-CC-PVTZ
    Blend: AUG-CC-PVTZ
  Basis Set: (AUG-CC-PVTZ AUX)
    Blend: AUG-CC-PVTZ-JKFIT
	 Reference Energy          =    -454.8195255316510952 [Eh]
	 Singles Energy            =      -0.0000000000000000 [Eh]
	 Same-Spin Energy          =      -0.4852717242851264 [Eh]
	 Opposite-Spin Energy      =      -1.5168653698148058 [Eh]
	 Correlation Energy        =      -2.0021370940999321 [Eh]
	 Total Energy              =    -456.8216626257510029 [Eh]

	 ================> DF-SCS-MP2 Energies <==================
	-----------------------------------------------------------
	 SCS Same-Spin Scale       =       0.3333333333333333 [-]
	 SCS Opposite-Spin Scale   =       1.2000000000000000 [-]
	 SCS Same-Spin Energy      =      -0.1617572414283755 [Eh]
	 SCS Opposite-Spin Energy  =      -1.8202384437777668 [Eh]
	 SCS Correlation Energy    =      -1.9819956852061422 [Eh]
	 SCS Total Energy          =    -456.8015212168572248 [Eh]
	-----------------------------------------------------------

  Dipole Moment: [D]
     X:     0.4481      Y:    -1.1660      Z:     1.3490     Total:     1.8385

*** Psi4 exiting successfully. Buy a developer a beer!
