                               Psi4 1.3.2 release

  ==> Input File <==

--------------------------------------------------------------------------
#psi4
#
memory 32 gb

molecule  {
0 1
  O       -1.3267430     1.3986080    -0.4043610
  N        1.4095890     0.5516460     0.0718950
  N       -2.0120760    -0.7164460     0.1311050
  C        0.3280180    -0.2917100    -0.0638180
  C        0.8200520    -1.5979270    -0.1446940
  C        2.5591820    -0.1927100     0.0828840
  C        2.2225030    -1.5310870    -0.0531270
  C       -1.0490640     0.2229840    -0.1220780
  C        1.3775260     2.0070720     0.1804590
  C       -3.4119730    -0.3353390     0.1671430
  H        0.1689159    -2.5700910    -0.3216810
  H        3.5227950     0.2883690     0.1888050
  H        2.9194420    -2.3581700    -0.0891670
  H        0.6999810     2.3106600     0.9777950
  H        2.3913760     2.3394710     0.4091260
  H        1.0337950     2.4512300    -0.7527080
  H       -1.7260750    -1.5572290     0.6147920
  H       -4.0269330    -1.2262470     0.0275940
  H       -3.5972090     0.3657440    -0.6460440
  H       -3.6872220     0.1511560     1.1097960
units angstrom
no_reorient  #important for SAPT in psi4, default
symmetry c1  #important for SAPT in psi4, default
}

set PROPERTIES_ORIGIN ["COM"]
properties('MP2/aug-cc-pvtz', properties = ['dipole'])
--------------------------------------------------------------------------

    Molecular point group: c1
  Charge       = 0
  Multiplicity = 1
  Basis Set: AUG-CC-PVTZ
    Blend: AUG-CC-PVTZ
  Basis Set: (AUG-CC-PVTZ AUX)
    Blend: AUG-CC-PVTZ-JKFIT

    Orbital Energies [Eh]
    ---------------------

    Doubly Occupied:

       1A    -20.516222     2A    -15.621548     3A    -15.582600
       4A    -11.354985     5A    -11.267770     6A    -11.263905
       7A    -11.263750     8A    -11.257007     9A    -11.243862
      10A    -11.221647    11A     -1.372398    12A     -1.307494
      13A     -1.225415    14A     -1.081830    15A     -1.016227
      16A     -0.941497    17A     -0.936139    18A     -0.824268
      19A     -0.782974    20A     -0.762021    21A     -0.718822
      22A     -0.650312    23A     -0.642425    24A     -0.634694
      25A     -0.616638    26A     -0.591072    27A     -0.575866
      28A     -0.573506    29A     -0.548390    30A     -0.547180
      31A     -0.537435    32A     -0.526976    33A     -0.513985
      34A     -0.429810    35A     -0.393091    36A     -0.348468
      37A     -0.307300

  @DF-RHF Final Energy:  -454.81230706843922

   => Energetics <=

    Nuclear Repulsion Energy =            522.2830740600124955
    One-Electron Energy =               -1654.1917057024686528
    Two-Electron Energy =                 677.0963245740168759
    Total Energy =                       -454.8123070684392815
  Basis Set: (AUG-CC-PVTZ AUX)
    Blend: AUG-CC-PVTZ-RI
    Molecular point group: c1

    Geometry (in Angstrom), charge = 0, multiplicity = 1:

       Center              X                  Y                   Z               Mass
    ------------   -----------------  -----------------  -----------------  -----------------
         O           -1.342516372203     1.401253414421    -0.393253768904    15.994914619570
         N            1.393815627797     0.554291414421     0.083002231096    14.003074004430
         N           -2.027849372203    -0.713800585579     0.142212231096    14.003074004430
         C            0.312244627797    -0.289064585579    -0.052710768904    12.000000000000
         C            0.804278627797    -1.595281585579    -0.133586768904    12.000000000000
         C            2.543408627797    -0.190064585579     0.093991231096    12.000000000000
         C            2.206729627797    -1.528441585579    -0.042019768904    12.000000000000
         C           -1.064837372203     0.225629414421    -0.110970768904    12.000000000000
         C            1.361752627797     2.009717414421     0.191566231096    12.000000000000
         C           -3.427746372203    -0.332693585579     0.178250231096    12.000000000000
         H            0.153142527797    -2.567445585579    -0.310573768904     1.007825032230
         H            3.507021627797     0.291014414421     0.199912231096     1.007825032230
         H            2.903668627797    -2.355524585579    -0.078059768904     1.007825032230
         H            0.684207627797     2.313305414421     0.988902231096     1.007825032230
         H            2.375602627797     2.342116414421     0.420233231096     1.007825032230
         H            1.018021627797     2.453875414421    -0.741600768904     1.007825032230
         H           -1.741848372203    -1.554583585579     0.625899231096     1.007825032230
         H           -4.042706372203    -1.223601585579     0.038701231096     1.007825032230
         H           -3.612982372203     0.368389414421    -0.634936768904     1.007825032230
         H           -3.702995372203     0.153801414421     1.120903231096     1.007825032230

  Basis Set: AUG-CC-PVTZ
    Blend: AUG-CC-PVTZ
  Basis Set: (AUG-CC-PVTZ AUX)
    Blend: AUG-CC-PVTZ-JKFIT
	 Reference Energy          =    -454.8123070684392246 [Eh]
	 Singles Energy            =      -0.0000000000000000 [Eh]
	 Same-Spin Energy          =      -0.4854866898946253 [Eh]
	 Opposite-Spin Energy      =      -1.5178274793248276 [Eh]
	 Correlation Energy        =      -2.0033141692194532 [Eh]
	 Total Energy              =    -456.8156212376586609 [Eh]

	 ================> DF-SCS-MP2 Energies <==================
	-----------------------------------------------------------
	 SCS Same-Spin Scale       =       0.3333333333333333 [-]
	 SCS Opposite-Spin Scale   =       1.2000000000000000 [-]
	 SCS Same-Spin Energy      =      -0.1618288966315418 [Eh]
	 SCS Opposite-Spin Energy  =      -1.8213929751897930 [Eh]
	 SCS Correlation Energy    =      -1.9832218718213348 [Eh]
	 SCS Total Energy          =    -456.7955289402605672 [Eh]
	-----------------------------------------------------------

  Dipole Moment: [D]
     X:     0.3086      Y:    -1.1649      Z:     1.3577     Total:     1.8154

*** Psi4 exiting successfully. Buy a developer a beer!
