                               Psi4 1.3.2 release

  ==> Input File <==

--------------------------------------------------------------------------
#psi4
#
memory 32 gb

molecule  {
0 1
  O       -1.3267430     1.3986080    -0.4043610
  N        1.4662669     0.4739829     0.0687228
  N       -2.0120760    -0.7164460     0.1311050
  C        0.3280180    -0.2917100    -0.0638180
  C        0.8200520    -1.5979270    -0.1446940
  C        2.5591820    -0.1927100     0.0828840
  C        2.2225030    -1.5310870    -0.0531270
  C       -1.0490640     0.2229840    -0.1220780
  C        1.3775260     2.0070720     0.1804590
  C       -3.4119730    -0.3353390     0.1671430
  H        0.2239390    -2.4879400    -0.3067250
  H        3.5227950     0.2883690     0.1888050
  H        2.9194420    -2.3581700    -0.0891670
  H        0.6999810     2.3106600     0.9777950
  H        2.3913760     2.3394710     0.4091260
  H        1.0337950     2.4512300    -0.7527080
  H       -1.7260750    -1.5572290     0.6147920
  H       -4.0269330    -1.2262470     0.0275940
  H       -3.5972090     0.3657440    -0.6460440
  H       -3.6872220     0.1511560     1.1097960
units angstrom
no_reorient  #important for SAPT in psi4, default
symmetry c1  #important for SAPT in psi4, default
}

set PROPERTIES_ORIGIN ["COM"]
properties('MP2/aug-cc-pvtz', properties = ['dipole'])
--------------------------------------------------------------------------

    Molecular point group: c1
  Charge       = 0
  Multiplicity = 1
  Basis Set: AUG-CC-PVTZ
    Blend: AUG-CC-PVTZ
  Basis Set: (AUG-CC-PVTZ AUX)
    Blend: AUG-CC-PVTZ-JKFIT

    Orbital Energies [Eh]
    ---------------------

    Doubly Occupied:

       1A    -20.514074     2A    -15.623145     3A    -15.582027
       4A    -11.355294     5A    -11.272483     6A    -11.260690
       7A    -11.256716     8A    -11.255042     9A    -11.231011
      10A    -11.211854    11A     -1.371182    12A     -1.326176
      13A     -1.224658    14A     -1.069562    15A     -1.022959
      16A     -0.946196    17A     -0.937016    18A     -0.824525
      19A     -0.791112    20A     -0.760521    21A     -0.722205
      22A     -0.661739    23A     -0.642872    24A     -0.633590
      25A     -0.616745    26A     -0.593170    27A     -0.583046
      28A     -0.561248    29A     -0.547772    30A     -0.544870
      31A     -0.539221    32A     -0.532191    33A     -0.520556
      34A     -0.428981    35A     -0.392789    36A     -0.349080
      37A     -0.304686

  @DF-RHF Final Energy:  -454.80898642901678

   => Energetics <=

    Nuclear Repulsion Energy =            523.1964789954349726
    One-Electron Energy =               -1655.9889218664200143
    Two-Electron Energy =                 677.9834564419682010
    Total Energy =                       -454.8089864290168407
  Basis Set: (AUG-CC-PVTZ AUX)
    Blend: AUG-CC-PVTZ-RI
    Molecular point group: c1

    Geometry (in Angstrom), charge = 0, multiplicity = 1:

       Center              X                  Y                   Z               Mass
    ------------   -----------------  -----------------  -----------------  -----------------
         O           -1.348665870397     1.408529872284    -0.393041227868    15.994914619570
         N            1.444344029603     0.483904772284     0.080042572132    14.003074004430
         N           -2.033998870397    -0.706524127716     0.142424772132    14.003074004430
         C            0.306095129603    -0.281788127716    -0.052498227868    12.000000000000
         C            0.798129129603    -1.588005127716    -0.133374227868    12.000000000000
         C            2.537259129603    -0.182788127716     0.094203772132    12.000000000000
         C            2.200580129603    -1.521165127716    -0.041807227868    12.000000000000
         C           -1.070986870397     0.232905872284    -0.110758227868    12.000000000000
         C            1.355603129603     2.016993872284     0.191778772132    12.000000000000
         C           -3.433895870397    -0.325417127716     0.178462772132    12.000000000000
         H            0.202016129603    -2.478018127716    -0.295405227868     1.007825032230
         H            3.500872129603     0.298290872284     0.200124772132     1.007825032230
         H            2.897519129603    -2.348248127716    -0.077847227868     1.007825032230
         H            0.678058129603     2.320581872284     0.989114772132     1.007825032230
         H            2.369453129603     2.349392872284     0.420445772132     1.007825032230
         H            1.011872129603     2.461151872284    -0.741388227868     1.007825032230
         H           -1.747997870397    -1.547307127716     0.626111772132     1.007825032230
         H           -4.048855870397    -1.216325127716     0.038913772132     1.007825032230
         H           -3.619131870397     0.375665872284    -0.634724227868     1.007825032230
         H           -3.709144870397     0.161077872284     1.121115772132     1.007825032230

  Basis Set: AUG-CC-PVTZ
    Blend: AUG-CC-PVTZ
  Basis Set: (AUG-CC-PVTZ AUX)
    Blend: AUG-CC-PVTZ-JKFIT
	 Reference Energy          =    -454.8089864290167839 [Eh]
	 Singles Energy            =      -0.0000000000000000 [Eh]
	 Same-Spin Energy          =      -0.4849565945353765 [Eh]
	 Opposite-Spin Energy      =      -1.5156308478538709 [Eh]
	 Correlation Energy        =      -2.0005874423892474 [Eh]
	 Total Energy              =    -456.8095738714060303 [Eh]

	 ================> DF-SCS-MP2 Energies <==================
	-----------------------------------------------------------
	 SCS Same-Spin Scale       =       0.3333333333333333 [-]
	 SCS Opposite-Spin Scale   =       1.2000000000000000 [-]
	 SCS Same-Spin Energy      =      -0.1616521981784588 [Eh]
	 SCS Opposite-Spin Energy  =      -1.8187570174246450 [Eh]
	 SCS Correlation Energy    =      -1.9804092156031039 [Eh]
	 SCS Total Energy          =    -456.7893956446199013 [Eh]
	-----------------------------------------------------------

  Dipole Moment: [D]
     X:     0.3100      Y:    -0.8981      Z:     1.3843     Total:     1.6790

*** Psi4 exiting successfully. Buy a developer a beer!
