                               Psi4 1.3.2 release

  ==> Input File <==

--------------------------------------------------------------------------
#psi4
#
memory 32 gb

molecule  {
0 1
  O       -1.3267430     1.3986080    -0.4043610
  N        1.4095890     0.5516460     0.0718950
  N       -2.0120760    -0.7164460     0.1311050
  C        0.3280180    -0.2917100    -0.0638180
  C        0.9537075    -1.5403359    -0.1292948
  C        2.5591820    -0.1927100     0.0828840
  C        2.2225030    -1.5310870    -0.0531270
  C       -1.0490640     0.2229840    -0.1220780
  C        1.3775260     2.0070720     0.1804590
  C       -3.4119730    -0.3353390     0.1671430
  H        0.2239390    -2.4879400    -0.3067250
  H        3.5227950     0.2883690     0.1888050
  H        2.9194420    -2.3581700    -0.0891670
  H        0.6999810     2.3106600     0.9777950
  H        2.3913760     2.3394710     0.4091260
  H        1.0337950     2.4512300    -0.7527080
  H       -1.7260750    -1.5572290     0.6147920
  H       -4.0269330    -1.2262470     0.0275940
  H       -3.5972090     0.3657440    -0.6460440
  H       -3.6872220     0.1511560     1.1097960
units angstrom
no_reorient  #important for SAPT in psi4, default
symmetry c1  #important for SAPT in psi4, default
}

set PROPERTIES_ORIGIN ["COM"]
properties('MP2/aug-cc-pvtz', properties = ['dipole'])
--------------------------------------------------------------------------

    Molecular point group: c1
  Charge       = 0
  Multiplicity = 1
  Basis Set: AUG-CC-PVTZ
    Blend: AUG-CC-PVTZ
  Basis Set: (AUG-CC-PVTZ AUX)
    Blend: AUG-CC-PVTZ-JKFIT

    Orbital Energies [Eh]
    ---------------------

    Doubly Occupied:

       1A    -20.514656     2A    -15.626213     3A    -15.581590
       4A    -11.355963     5A    -11.267864     6A    -11.263095
       7A    -11.256156     8A    -11.254069     9A    -11.229244
      10A    -11.208233    11A     -1.371431    12A     -1.315436
      13A     -1.224178    14A     -1.105395    15A     -1.014868
      16A     -0.946122    17A     -0.940201    18A     -0.824494
      19A     -0.778425    20A     -0.764688    21A     -0.723983
      22A     -0.657942    23A     -0.643709    24A     -0.634306
      25A     -0.616045    26A     -0.597307    27A     -0.579268
      28A     -0.572220    29A     -0.559435    30A     -0.546026
      31A     -0.540943    32A     -0.518222    33A     -0.498951
      34A     -0.430492    35A     -0.392500    36A     -0.367352
      37A     -0.298759

  @DF-RHF Final Energy:  -454.78615533808841

   => Energetics <=

    Nuclear Repulsion Energy =            524.4502864201311922
    One-Electron Energy =               -1658.4333215357030440
    Two-Electron Energy =                 679.1968797774835593
    Total Energy =                       -454.7861553380884061
  Basis Set: (AUG-CC-PVTZ AUX)
    Blend: AUG-CC-PVTZ-RI
    Molecular point group: c1

    Geometry (in Angstrom), charge = 0, multiplicity = 1:

       Center              X                  Y                   Z               Mass
    ------------   -----------------  -----------------  -----------------  -----------------
         O           -1.354533521058     1.395648758534    -0.394701222740    15.994914619570
         N            1.381798478942     0.548686758534     0.081554777260    14.003074004430
         N           -2.039866521058    -0.719405241466     0.140764777260    14.003074004430
         C            0.300227478942    -0.294669241466    -0.054158222740    12.000000000000
         C            0.925916978942    -1.543295141466    -0.119635022740    12.000000000000
         C            2.531391478942    -0.195669241466     0.092543777260    12.000000000000
         C            2.194712478942    -1.534046241466    -0.043467222740    12.000000000000
         C           -1.076854521058     0.220024758534    -0.112418222740    12.000000000000
         C            1.349735478942     2.004112758534     0.190118777260    12.000000000000
         C           -3.439763521058    -0.338298241466     0.176802777260    12.000000000000
         H            0.196148478942    -2.490899241466    -0.297065222740     1.007825032230
         H            3.495004478942     0.285409758534     0.198464777260     1.007825032230
         H            2.891651478942    -2.361129241466    -0.079507222740     1.007825032230
         H            0.672190478942     2.307700758534     0.987454777260     1.007825032230
         H            2.363585478942     2.336511758534     0.418785777260     1.007825032230
         H            1.006004478942     2.448270758534    -0.743048222740     1.007825032230
         H           -1.753865521058    -1.560188241466     0.624451777260     1.007825032230
         H           -4.054723521058    -1.229206241466     0.037253777260     1.007825032230
         H           -3.624999521058     0.362784758534    -0.636384222740     1.007825032230
         H           -3.715012521058     0.148196758534     1.119455777260     1.007825032230

  Basis Set: AUG-CC-PVTZ
    Blend: AUG-CC-PVTZ
  Basis Set: (AUG-CC-PVTZ AUX)
    Blend: AUG-CC-PVTZ-JKFIT
	 Reference Energy          =    -454.7861553380884061 [Eh]
	 Singles Energy            =      -0.0000000000000000 [Eh]
	 Same-Spin Energy          =      -0.4871174860483128 [Eh]
	 Opposite-Spin Energy      =      -1.5189708823232271 [Eh]
	 Correlation Energy        =      -2.0060883683715400 [Eh]
	 Total Energy              =    -456.7922437064599421 [Eh]

	 ================> DF-SCS-MP2 Energies <==================
	-----------------------------------------------------------
	 SCS Same-Spin Scale       =       0.3333333333333333 [-]
	 SCS Opposite-Spin Scale   =       1.2000000000000000 [-]
	 SCS Same-Spin Energy      =      -0.1623724953494376 [Eh]
	 SCS Opposite-Spin Energy  =      -1.8227650587878723 [Eh]
	 SCS Correlation Energy    =      -1.9851375541373100 [Eh]
	 SCS Total Energy          =    -456.7712928922256879 [Eh]
	-----------------------------------------------------------

  Dipole Moment: [D]
     X:     0.3974      Y:    -1.2122      Z:     1.3716     Total:     1.8731

*** Psi4 exiting successfully. Buy a developer a beer!
