                               Psi4 1.3.2 release

  ==> Input File <==

--------------------------------------------------------------------------
#psi4
#
memory 32 gb

molecule  {
0 1
  O       -1.3267430     1.3986080    -0.4043610
  N        1.4095890     0.5516460     0.0718950
  N       -1.9052703    -0.8104874     0.1478664
  C        0.3280180    -0.2917100    -0.0638180
  C        0.8200520    -1.5979270    -0.1446940
  C        2.5591820    -0.1927100     0.0828840
  C        2.2225030    -1.5310870    -0.0531270
  C       -1.0490640     0.2229840    -0.1220780
  C        1.3775260     2.0070720     0.1804590
  C       -3.4119730    -0.3353390     0.1671430
  H        0.2239390    -2.4879400    -0.3067250
  H        3.5227950     0.2883690     0.1888050
  H        2.9194420    -2.3581700    -0.0891670
  H        0.6999810     2.3106600     0.9777950
  H        2.3913760     2.3394710     0.4091260
  H        1.0337950     2.4512300    -0.7527080
  H       -1.7260750    -1.5572290     0.6147920
  H       -4.0269330    -1.2262470     0.0275940
  H       -3.5972090     0.3657440    -0.6460440
  H       -3.6872220     0.1511560     1.1097960
units angstrom
no_reorient  #important for SAPT in psi4, default
symmetry c1  #important for SAPT in psi4, default
}

set PROPERTIES_ORIGIN ["COM"]
properties('MP2/aug-cc-pvtz', properties = ['dipole'])
--------------------------------------------------------------------------

    Molecular point group: c1
  Charge       = 0
  Multiplicity = 1
  Basis Set: AUG-CC-PVTZ
    Blend: AUG-CC-PVTZ
  Basis Set: (AUG-CC-PVTZ AUX)
    Blend: AUG-CC-PVTZ-JKFIT

    Orbital Energies [Eh]
    ---------------------

    Doubly Occupied:

       1A    -20.523087     2A    -15.617118     3A    -15.578583
       4A    -11.358667     5A    -11.268040     6A    -11.263646
       7A    -11.262208     8A    -11.257034     9A    -11.228896
      10A    -11.217800    11A     -1.372771    12A     -1.303696
      13A     -1.227744    14A     -1.079154    15A     -1.009389
      16A     -0.937548    17A     -0.935661    18A     -0.850097
      19A     -0.788728    20A     -0.769331    21A     -0.722346
      22A     -0.646729    23A     -0.637855    24A     -0.630119
      25A     -0.608691    26A     -0.588527    27A     -0.576917
      28A     -0.568141    29A     -0.549771    30A     -0.546856
      31A     -0.536003    32A     -0.531299    33A     -0.514855
      34A     -0.430775    35A     -0.405838    36A     -0.344945
      37A     -0.303218

  @DF-RHF Final Energy:  -454.79218329293576

   => Energetics <=

    Nuclear Repulsion Energy =            522.5284996870447003
    One-Electron Energy =               -1654.6572023682567760
    Two-Electron Energy =                 677.3365193882762014
    Total Energy =                       -454.7921832929357606
  Basis Set: (AUG-CC-PVTZ AUX)
    Blend: AUG-CC-PVTZ-RI
    Molecular point group: c1

    Geometry (in Angstrom), charge = 0, multiplicity = 1:

       Center              X                  Y                   Z               Mass
    ------------   -----------------  -----------------  -----------------  -----------------
         O           -1.353749494280     1.410190849168    -0.395062759334    15.994914619570
         N            1.382582505720     0.563228849168     0.081193240666    14.003074004430
         N           -1.932276794280    -0.798904550832     0.157164640666    14.003074004430
         C            0.301011505720    -0.280127150832    -0.054519759334    12.000000000000
         C            0.793045505720    -1.586344150832    -0.135395759334    12.000000000000
         C            2.532175505720    -0.181127150832     0.092182240666    12.000000000000
         C            2.195496505720    -1.519504150832    -0.043828759334    12.000000000000
         C           -1.076070494280     0.234566849168    -0.112779759334    12.000000000000
         C            1.350519505720     2.018654849168     0.189757240666    12.000000000000
         C           -3.438979494280    -0.323756150832     0.176441240666    12.000000000000
         H            0.196932505720    -2.476357150832    -0.297426759334     1.007825032230
         H            3.495788505720     0.299951849168     0.198103240666     1.007825032230
         H            2.892435505720    -2.346587150832    -0.079868759334     1.007825032230
         H            0.672974505720     2.322242849168     0.987093240666     1.007825032230
         H            2.364369505720     2.351053849168     0.418424240666     1.007825032230
         H            1.006788505720     2.462812849168    -0.743409759334     1.007825032230
         H           -1.753081494280    -1.545646150832     0.624090240666     1.007825032230
         H           -4.053939494280    -1.214664150832     0.036892240666     1.007825032230
         H           -3.624215494280     0.377326849168    -0.636745759334     1.007825032230
         H           -3.714228494280     0.162738849168     1.119094240666     1.007825032230

  Basis Set: AUG-CC-PVTZ
    Blend: AUG-CC-PVTZ
  Basis Set: (AUG-CC-PVTZ AUX)
    Blend: AUG-CC-PVTZ-JKFIT
	 Reference Energy          =    -454.7921832929357606 [Eh]
	 Singles Energy            =      -0.0000000000000000 [Eh]
	 Same-Spin Energy          =      -0.4850210609067857 [Eh]
	 Opposite-Spin Energy      =      -1.5180003674961058 [Eh]
	 Correlation Energy        =      -2.0030214284028913 [Eh]
	 Total Energy              =    -456.7952047213386777 [Eh]

	 ================> DF-SCS-MP2 Energies <==================
	-----------------------------------------------------------
	 SCS Same-Spin Scale       =       0.3333333333333333 [-]
	 SCS Opposite-Spin Scale   =       1.2000000000000000 [-]
	 SCS Same-Spin Energy      =      -0.1616736869689285 [Eh]
	 SCS Opposite-Spin Energy  =      -1.8216004409953268 [Eh]
	 SCS Correlation Energy    =      -1.9832741279642554 [Eh]
	 SCS Total Energy          =    -456.7754574209000111 [Eh]
	-----------------------------------------------------------

  Dipole Moment: [D]
     X:    -0.0343      Y:    -0.9819      Z:     1.3726     Total:     1.6880

*** Psi4 exiting successfully. Buy a developer a beer!
