                               Psi4 1.3.2 release

  ==> Input File <==

--------------------------------------------------------------------------
#psi4
#
memory 32 gb

molecule  {
0 1
  O       -1.3267430     1.3986080    -0.4043610
  N        1.2597933     0.5585573     0.0425349
  N       -2.0120760    -0.7164460     0.1311050
  C        0.3280180    -0.2917100    -0.0638180
  C        0.8200520    -1.5979270    -0.1446940
  C        2.5591820    -0.1927100     0.0828840
  C        2.2225030    -1.5310870    -0.0531270
  C       -1.0490640     0.2229840    -0.1220780
  C        1.3775260     2.0070720     0.1804590
  C       -3.4119730    -0.3353390     0.1671430
  H        0.2239390    -2.4879400    -0.3067250
  H        3.5227950     0.2883690     0.1888050
  H        2.9194420    -2.3581700    -0.0891670
  H        0.6999810     2.3106600     0.9777950
  H        2.3913760     2.3394710     0.4091260
  H        1.0337950     2.4512300    -0.7527080
  H       -1.7260750    -1.5572290     0.6147920
  H       -4.0269330    -1.2262470     0.0275940
  H       -3.5972090     0.3657440    -0.6460440
  H       -3.6872220     0.1511560     1.1097960
units angstrom
no_reorient  #important for SAPT in psi4, default
symmetry c1  #important for SAPT in psi4, default
}

set PROPERTIES_ORIGIN ["COM"]
properties('MP2/aug-cc-pvtz', properties = ['dipole'])
--------------------------------------------------------------------------

    Molecular point group: c1
  Charge       = 0
  Multiplicity = 1
  Basis Set: AUG-CC-PVTZ
    Blend: AUG-CC-PVTZ
  Basis Set: (AUG-CC-PVTZ AUX)
    Blend: AUG-CC-PVTZ-JKFIT

    Orbital Energies [Eh]
    ---------------------

    Doubly Occupied:

       1A    -20.521923     2A    -15.619153     3A    -15.585687
       4A    -11.356440     5A    -11.266527     6A    -11.266026
       7A    -11.262725     8A    -11.258684     9A    -11.229389
      10A    -11.218945    11A     -1.379278    12A     -1.311451
      13A     -1.228398    14A     -1.081161    15A     -1.019712
      16A     -0.955006    17A     -0.923411    18A     -0.827819
      19A     -0.785971    20A     -0.763141    21A     -0.723956
      22A     -0.650687    23A     -0.645082    24A     -0.638675
      25A     -0.618112    26A     -0.604153    27A     -0.590097
      28A     -0.559608    29A     -0.550185    30A     -0.544831
      31A     -0.540435    32A     -0.522090    33A     -0.511799
      34A     -0.432186    35A     -0.395481    36A     -0.356779
      37A     -0.295310

  @DF-RHF Final Energy:  -454.79036415461678

   => Energetics <=

    Nuclear Repulsion Energy =            524.1299809759441359
    One-Electron Energy =               -1657.7600632689386657
    Two-Electron Energy =                 678.8397181383777479
    Total Energy =                       -454.7903641546167819
  Basis Set: (AUG-CC-PVTZ AUX)
    Blend: AUG-CC-PVTZ-RI
    Molecular point group: c1

    Geometry (in Angstrom), charge = 0, multiplicity = 1:

       Center              X                  Y                   Z               Mass
    ------------   -----------------  -----------------  -----------------  -----------------
         O           -1.327726708411     1.399952906215    -0.390385427416    15.994914619570
         N            1.258809591589     0.559902206215     0.056510472584    14.003074004430
         N           -2.013059708411    -0.715101093785     0.145080572584    14.003074004430
         C            0.327034291589    -0.290365093785    -0.049842427416    12.000000000000
         C            0.819068291589    -1.596582093785    -0.130718427416    12.000000000000
         C            2.558198291589    -0.191365093785     0.096859572584    12.000000000000
         C            2.221519291589    -1.529742093785    -0.039151427416    12.000000000000
         C           -1.050047708411     0.224328906215    -0.108102427416    12.000000000000
         C            1.376542291589     2.008416906215     0.194434572584    12.000000000000
         C           -3.412956708411    -0.333994093785     0.181118572584    12.000000000000
         H            0.222955291589    -2.486595093785    -0.292749427416     1.007825032230
         H            3.521811291589     0.289713906215     0.202780572584     1.007825032230
         H            2.918458291589    -2.356825093785    -0.075191427416     1.007825032230
         H            0.698997291589     2.312004906215     0.991770572584     1.007825032230
         H            2.390392291589     2.340815906215     0.423101572584     1.007825032230
         H            1.032811291589     2.452574906215    -0.738732427416     1.007825032230
         H           -1.727058708411    -1.555884093785     0.628767572584     1.007825032230
         H           -4.027916708411    -1.224902093785     0.041569572584     1.007825032230
         H           -3.598192708411     0.367088906215    -0.632068427416     1.007825032230
         H           -3.688205708411     0.152500906215     1.123771572584     1.007825032230

  Basis Set: AUG-CC-PVTZ
    Blend: AUG-CC-PVTZ
  Basis Set: (AUG-CC-PVTZ AUX)
    Blend: AUG-CC-PVTZ-JKFIT
	 Reference Energy          =    -454.7903641546167819 [Eh]
	 Singles Energy            =      -0.0000000000000000 [Eh]
	 Same-Spin Energy          =      -0.4861241028958187 [Eh]
	 Opposite-Spin Energy      =      -1.5196447417662102 [Eh]
	 Correlation Energy        =      -2.0057688446620290 [Eh]
	 Total Energy              =    -456.7961329992788251 [Eh]

	 ================> DF-SCS-MP2 Energies <==================
	-----------------------------------------------------------
	 SCS Same-Spin Scale       =       0.3333333333333333 [-]
	 SCS Opposite-Spin Scale   =       1.2000000000000000 [-]
	 SCS Same-Spin Energy      =      -0.1620413676319395 [Eh]
	 SCS Opposite-Spin Energy  =      -1.8235736901194521 [Eh]
	 SCS Correlation Energy    =      -1.9856150577513918 [Eh]
	 SCS Total Energy          =    -456.7759792123681564 [Eh]
	-----------------------------------------------------------

  Dipole Moment: [D]
     X:     0.2622      Y:    -1.1419      Z:     1.3707     Total:     1.8031

*** Psi4 exiting successfully. Buy a developer a beer!
