                               Psi4 1.3.2 release

  ==> Input File <==

--------------------------------------------------------------------------
#psi4
#
memory 32 gb

molecule  {
0 1
  O       -1.3267430     1.3986080    -0.4043610
  N        1.4095890     0.5516460     0.0718950
  N       -2.0288811    -0.6997422     0.1280363
  C        0.3280180    -0.2917100    -0.0638180
  C        0.8200520    -1.5979270    -0.1446940
  C        2.5591820    -0.1927100     0.0828840
  C        2.2225030    -1.5310870    -0.0531270
  C       -1.0490640     0.2229840    -0.1220780
  C        1.3775260     2.0070720     0.1804590
  C       -3.4119730    -0.3353390     0.1671430
  H        0.2239390    -2.4879400    -0.3067250
  H        3.5227950     0.2883690     0.1888050
  H        2.9194420    -2.3581700    -0.0891670
  H        0.6999810     2.3106600     0.9777950
  H        2.3913760     2.3394710     0.4091260
  H        1.0337950     2.4512300    -0.7527080
  H       -1.7260750    -1.5572290     0.6147920
  H       -4.0269330    -1.2262470     0.0275940
  H       -3.5972090     0.3657440    -0.6460440
  H       -3.6872220     0.1511560     1.1097960
units angstrom
no_reorient  #important for SAPT in psi4, default
symmetry c1  #important for SAPT in psi4, default
}

set PROPERTIES_ORIGIN ["COM"]
properties('MP2/aug-cc-pvtz', properties = ['dipole'])
--------------------------------------------------------------------------

    Molecular point group: c1
  Charge       = 0
  Multiplicity = 1
  Basis Set: AUG-CC-PVTZ
    Blend: AUG-CC-PVTZ
  Basis Set: (AUG-CC-PVTZ AUX)
    Blend: AUG-CC-PVTZ-JKFIT

    Orbital Energies [Eh]
    ---------------------

    Doubly Occupied:

       1A    -20.515147     2A    -15.621554     3A    -15.583642
       4A    -11.354705     5A    -11.267619     6A    -11.263993
       7A    -11.263558     8A    -11.255372     9A    -11.233393
      10A    -11.221055    11A     -1.372571    12A     -1.307378
      13A     -1.226483    14A     -1.082969    15A     -1.017322
      16A     -0.942500    17A     -0.938485    18A     -0.823219
      19A     -0.786924    20A     -0.759413    21A     -0.725269
      22A     -0.653035    23A     -0.642790    24A     -0.635611
      25A     -0.618576    26A     -0.595296    27A     -0.580070
      28A     -0.576044    29A     -0.550789    30A     -0.544604
      31A     -0.537416    32A     -0.532037    33A     -0.513385
      34A     -0.429339    35A     -0.391088    36A     -0.348308
      37A     -0.307276

  @DF-RHF Final Energy:  -454.81878753311616

   => Energetics <=

    Nuclear Repulsion Energy =            522.8365659187362553
    One-Electron Energy =               -1655.2742368154881660
    Two-Electron Energy =                 677.6188833636358595
    Total Energy =                       -454.8187875331161649
  Basis Set: (AUG-CC-PVTZ AUX)
    Blend: AUG-CC-PVTZ-RI
    Molecular point group: c1

    Geometry (in Angstrom), charge = 0, multiplicity = 1:

       Center              X                  Y                   Z               Mass
    ------------   -----------------  -----------------  -----------------  -----------------
         O           -1.341213719419     1.398959816814    -0.393051724141    15.994914619570
         N            1.395118280581     0.551997816814     0.083204275859    14.003074004430
         N           -2.043351819419    -0.699390383186     0.139345575859    14.003074004430
         C            0.313547280581    -0.291358183186    -0.052508724141    12.000000000000
         C            0.805581280581    -1.597575183186    -0.133384724141    12.000000000000
         C            2.544711280581    -0.192358183186     0.094193275859    12.000000000000
         C            2.208032280581    -1.530735183186    -0.041817724141    12.000000000000
         C           -1.063534719419     0.223335816814    -0.110768724141    12.000000000000
         C            1.363055280581     2.007423816814     0.191768275859    12.000000000000
         C           -3.426443719419    -0.334987183186     0.178452275859    12.000000000000
         H            0.209468280581    -2.487588183186    -0.295415724141     1.007825032230
         H            3.508324280581     0.288720816814     0.200114275859     1.007825032230
         H            2.904971280581    -2.357818183186    -0.077857724141     1.007825032230
         H            0.685510280581     2.311011816814     0.989104275859     1.007825032230
         H            2.376905280581     2.339822816814     0.420435275859     1.007825032230
         H            1.019324280581     2.451581816814    -0.741398724141     1.007825032230
         H           -1.740545719419    -1.556877183186     0.626101275859     1.007825032230
         H           -4.041403719419    -1.225895183186     0.038903275859     1.007825032230
         H           -3.611679719419     0.366095816814    -0.634734724141     1.007825032230
         H           -3.701692719419     0.151507816814     1.121105275859     1.007825032230

  Basis Set: AUG-CC-PVTZ
    Blend: AUG-CC-PVTZ
  Basis Set: (AUG-CC-PVTZ AUX)
    Blend: AUG-CC-PVTZ-JKFIT
	 Reference Energy          =    -454.8187875331161649 [Eh]
	 Singles Energy            =      -0.0000000000000000 [Eh]
	 Same-Spin Energy          =      -0.4854426461753960 [Eh]
	 Opposite-Spin Energy      =      -1.5170271317746653 [Eh]
	 Correlation Energy        =      -2.0024697779500613 [Eh]
	 Total Energy              =    -456.8212573110662333 [Eh]

	 ================> DF-SCS-MP2 Energies <==================
	-----------------------------------------------------------
	 SCS Same-Spin Scale       =       0.3333333333333333 [-]
	 SCS Opposite-Spin Scale   =       1.2000000000000000 [-]
	 SCS Same-Spin Energy      =      -0.1618142153917987 [Eh]
	 SCS Opposite-Spin Energy  =      -1.8204325581295984 [Eh]
	 SCS Correlation Energy    =      -1.9822467735213971 [Eh]
	 SCS Total Energy          =    -456.8010343066375754 [Eh]
	-----------------------------------------------------------

  Dipole Moment: [D]
     X:     0.3408      Y:    -1.2134      Z:     1.3529     Total:     1.8490

*** Psi4 exiting successfully. Buy a developer a beer!
