                               Psi4 1.3.2 release

  ==> Input File <==

--------------------------------------------------------------------------
#psi4
#
memory 32 gb

molecule  {
0 1
  O       -1.3267430     1.3986080    -0.4043610
  N        1.4095890     0.5516460     0.0718950
  N       -2.0120760    -0.7164460     0.1311050
  C        0.3280180    -0.2917100    -0.0638180
  C        0.8200520    -1.5979270    -0.1446940
  C        2.5591820    -0.1927100     0.0828840
  C        2.2225030    -1.5310870    -0.0531270
  C       -1.0490640     0.2229840    -0.1220780
  C        1.3731333     2.2064698     0.1953326
  C       -3.4119730    -0.3353390     0.1671430
  H        0.2239390    -2.4879400    -0.3067250
  H        3.5227950     0.2883690     0.1888050
  H        2.9194420    -2.3581700    -0.0891670
  H        0.6999810     2.3106600     0.9777950
  H        2.3913760     2.3394710     0.4091260
  H        1.0337950     2.4512300    -0.7527080
  H       -1.7260750    -1.5572290     0.6147920
  H       -4.0269330    -1.2262470     0.0275940
  H       -3.5972090     0.3657440    -0.6460440
  H       -3.6872220     0.1511560     1.1097960
units angstrom
no_reorient  #important for SAPT in psi4, default
symmetry c1  #important for SAPT in psi4, default
}

set PROPERTIES_ORIGIN ["COM"]
properties('MP2/aug-cc-pvtz', properties = ['dipole'])
--------------------------------------------------------------------------

    Molecular point group: c1
  Charge       = 0
  Multiplicity = 1
  Basis Set: AUG-CC-PVTZ
    Blend: AUG-CC-PVTZ
  Basis Set: (AUG-CC-PVTZ AUX)
    Blend: AUG-CC-PVTZ-JKFIT

    Orbital Energies [Eh]
    ---------------------

    Doubly Occupied:

       1A    -20.514496     2A    -15.611394     3A    -15.580746
       4A    -11.352072     5A    -11.277119     6A    -11.259880
       7A    -11.255826     8A    -11.255590     9A    -11.225617
      10A    -11.213975    11A     -1.369784    12A     -1.282487
      13A     -1.223436    14A     -1.059519    15A     -1.009187
      16A     -0.952888    17A     -0.937423    18A     -0.821200
      19A     -0.776444    20A     -0.757388    21A     -0.707851
      22A     -0.646487    23A     -0.643657    24A     -0.635580
      25A     -0.621421    26A     -0.614565    27A     -0.572362
      28A     -0.556148    29A     -0.549612    30A     -0.547544
      31A     -0.538445    32A     -0.523232    33A     -0.514699
      34A     -0.429064    35A     -0.392215    36A     -0.342824
      37A     -0.300115

  @DF-RHF Final Energy:  -454.79266002463993

   => Energetics <=

    Nuclear Repulsion Energy =            519.0551241043328901
    One-Electron Energy =               -1647.9509898487167447
    Two-Electron Energy =                 674.1032057197438689
    Total Energy =                       -454.7926600246399857
  Basis Set: (AUG-CC-PVTZ AUX)
    Blend: AUG-CC-PVTZ-RI
    Molecular point group: c1

    Geometry (in Angstrom), charge = 0, multiplicity = 1:

       Center              X                  Y                   Z               Mass
    ------------   -----------------  -----------------  -----------------  -----------------
         O           -1.342536224978     1.383324824096    -0.394655544644    15.994914619570
         N            1.393795775022     0.536362824096     0.081600455356    14.003074004430
         N           -2.027869224978    -0.731729175904     0.140810455356    14.003074004430
         C            0.312224775022    -0.306993175904    -0.054112544644    12.000000000000
         C            0.804258775022    -1.613210175904    -0.134988544644    12.000000000000
         C            2.543388775022    -0.207993175904     0.092589455356    12.000000000000
         C            2.206709775022    -1.546370175904    -0.043421544644    12.000000000000
         C           -1.064857224978     0.207700824096    -0.112372544644    12.000000000000
         C            1.357340075022     2.191186624096     0.205038055356    12.000000000000
         C           -3.427766224978    -0.350622175904     0.176848455356    12.000000000000
         H            0.208145775022    -2.503223175904    -0.297019544644     1.007825032230
         H            3.507001775022     0.273085824096     0.198510455356     1.007825032230
         H            2.903648775022    -2.373453175904    -0.079461544644     1.007825032230
         H            0.684187775022     2.295376824096     0.987500455356     1.007825032230
         H            2.375582775022     2.324187824096     0.418831455356     1.007825032230
         H            1.018001775022     2.435946824096    -0.743002544644     1.007825032230
         H           -1.741868224978    -1.572512175904     0.624497455356     1.007825032230
         H           -4.042726224978    -1.241530175904     0.037299455356     1.007825032230
         H           -3.613002224978     0.350460824096    -0.636338544644     1.007825032230
         H           -3.703015224978     0.135872824096     1.119501455356     1.007825032230

  Basis Set: AUG-CC-PVTZ
    Blend: AUG-CC-PVTZ
  Basis Set: (AUG-CC-PVTZ AUX)
    Blend: AUG-CC-PVTZ-JKFIT
	 Reference Energy          =    -454.7926600246399289 [Eh]
	 Singles Energy            =      -0.0000000000000000 [Eh]
	 Same-Spin Energy          =      -0.4852870374802658 [Eh]
	 Opposite-Spin Energy      =      -1.5184139905203513 [Eh]
	 Correlation Energy        =      -2.0037010280006173 [Eh]
	 Total Energy              =    -456.7963610526405205 [Eh]

	 ================> DF-SCS-MP2 Energies <==================
	-----------------------------------------------------------
	 SCS Same-Spin Scale       =       0.3333333333333333 [-]
	 SCS Opposite-Spin Scale   =       1.2000000000000000 [-]
	 SCS Same-Spin Energy      =      -0.1617623458267552 [Eh]
	 SCS Opposite-Spin Energy  =      -1.8220967886244215 [Eh]
	 SCS Correlation Energy    =      -1.9838591344511767 [Eh]
	 SCS Total Energy          =    -456.7765191590910945 [Eh]
	-----------------------------------------------------------

  Dipole Moment: [D]
     X:     0.3343      Y:    -0.6506      Z:     1.4037     Total:     1.5829

*** Psi4 exiting successfully. Buy a developer a beer!
