                               Psi4 1.3.2 release

  ==> Input File <==

--------------------------------------------------------------------------
#psi4
#
memory 32 gb

molecule  {
0 1
  O       -1.3267430     1.3986080    -0.4043610
  N        1.4095890     0.5516460     0.0718950
  N       -2.0120760    -0.7164460     0.1311050
  C        0.3280180    -0.2917100    -0.0638180
  C        0.7848604    -1.5045028    -0.1389095
  C        2.5591820    -0.1927100     0.0828840
  C        2.2225030    -1.5310870    -0.0531270
  C       -1.0490640     0.2229840    -0.1220780
  C        1.3775260     2.0070720     0.1804590
  C       -3.4119730    -0.3353390     0.1671430
  H        0.2239390    -2.4879400    -0.3067250
  H        3.5227950     0.2883690     0.1888050
  H        2.9194420    -2.3581700    -0.0891670
  H        0.6999810     2.3106600     0.9777950
  H        2.3913760     2.3394710     0.4091260
  H        1.0337950     2.4512300    -0.7527080
  H       -1.7260750    -1.5572290     0.6147920
  H       -4.0269330    -1.2262470     0.0275940
  H       -3.5972090     0.3657440    -0.6460440
  H       -3.6872220     0.1511560     1.1097960
units angstrom
no_reorient  #important for SAPT in psi4, default
symmetry c1  #important for SAPT in psi4, default
}

set PROPERTIES_ORIGIN ["COM"]
properties('MP2/aug-cc-pvtz', properties = ['dipole'])
--------------------------------------------------------------------------

    Molecular point group: c1
  Charge       = 0
  Multiplicity = 1
  Basis Set: AUG-CC-PVTZ
    Blend: AUG-CC-PVTZ
  Basis Set: (AUG-CC-PVTZ AUX)
    Blend: AUG-CC-PVTZ-JKFIT

    Orbital Energies [Eh]
    ---------------------

    Doubly Occupied:

       1A    -20.518455     2A    -15.610937     3A    -15.584407
       4A    -11.356623     5A    -11.267773     6A    -11.260398
       7A    -11.258129     8A    -11.253665     9A    -11.228717
      10A    -11.219384    11A     -1.374364    12A     -1.308907
      13A     -1.227332    14A     -1.085998    15A     -1.022318
      16A     -0.945005    17A     -0.930141    18A     -0.825652
      19A     -0.790185    20A     -0.762618    21A     -0.720803
      22A     -0.651574    23A     -0.643813    24A     -0.635657
      25A     -0.616981    26A     -0.596646    27A     -0.578637
      28A     -0.571551    29A     -0.549390    30A     -0.545746
      31A     -0.539912    32A     -0.520678    33A     -0.514824
      34A     -0.431396    35A     -0.394313    36A     -0.346070
      37A     -0.317055

  @DF-RHF Final Energy:  -454.80989372344413

   => Energetics <=

    Nuclear Repulsion Energy =            524.6586440386313370
    One-Electron Energy =               -1658.9249703438063079
    Two-Electron Energy =                 679.4564325817308372
    Total Energy =                       -454.8098937234441337
  Basis Set: (AUG-CC-PVTZ AUX)
    Blend: AUG-CC-PVTZ-RI
    Molecular point group: c1

    Geometry (in Angstrom), charge = 0, multiplicity = 1:

       Center              X                  Y                   Z               Mass
    ------------   -----------------  -----------------  -----------------  -----------------
         O           -1.339859598102     1.392534626584    -0.393865642105    15.994914619570
         N            1.396472401898     0.545572626584     0.082390357895    14.003074004430
         N           -2.025192598102    -0.722519373416     0.141600357895    14.003074004430
         C            0.314901401898    -0.297783373416    -0.053322642105    12.000000000000
         C            0.771743801898    -1.510576173416    -0.128414142105    12.000000000000
         C            2.546065401898    -0.198783373416     0.093379357895    12.000000000000
         C            2.209386401898    -1.537160373416    -0.042631642105    12.000000000000
         C           -1.062180598102     0.216910626584    -0.111582642105    12.000000000000
         C            1.364409401898     2.000998626584     0.190954357895    12.000000000000
         C           -3.425089598102    -0.341412373416     0.177638357895    12.000000000000
         H            0.210822401898    -2.494013373416    -0.296229642105     1.007825032230
         H            3.509678401898     0.282295626584     0.199300357895     1.007825032230
         H            2.906325401898    -2.364243373416    -0.078671642105     1.007825032230
         H            0.686864401898     2.304586626584     0.988290357895     1.007825032230
         H            2.378259401898     2.333397626584     0.419621357895     1.007825032230
         H            1.020678401898     2.445156626584    -0.742212642105     1.007825032230
         H           -1.739191598102    -1.563302373416     0.625287357895     1.007825032230
         H           -4.040049598102    -1.232320373416     0.038089357895     1.007825032230
         H           -3.610325598102     0.359670626584    -0.635548642105     1.007825032230
         H           -3.700338598102     0.145082626584     1.120291357895     1.007825032230

  Basis Set: AUG-CC-PVTZ
    Blend: AUG-CC-PVTZ
  Basis Set: (AUG-CC-PVTZ AUX)
    Blend: AUG-CC-PVTZ-JKFIT
	 Reference Energy          =    -454.8098937234441337 [Eh]
	 Singles Energy            =      -0.0000000000000000 [Eh]
	 Same-Spin Energy          =      -0.4838907762401046 [Eh]
	 Opposite-Spin Energy      =      -1.5152303018012616 [Eh]
	 Correlation Energy        =      -1.9991210780413662 [Eh]
	 Total Energy              =    -456.8090148014854890 [Eh]

	 ================> DF-SCS-MP2 Energies <==================
	-----------------------------------------------------------
	 SCS Same-Spin Scale       =       0.3333333333333333 [-]
	 SCS Opposite-Spin Scale   =       1.2000000000000000 [-]
	 SCS Same-Spin Energy      =      -0.1612969254133682 [Eh]
	 SCS Opposite-Spin Energy  =      -1.8182763621615139 [Eh]
	 SCS Correlation Energy    =      -1.9795732875748822 [Eh]
	 SCS Total Energy          =    -456.7894670110190418 [Eh]
	-----------------------------------------------------------

  Dipole Moment: [D]
     X:     0.1661      Y:    -1.2398      Z:     1.3539     Total:     1.8433

*** Psi4 exiting successfully. Buy a developer a beer!
