                               Psi4 1.3.2 release

  ==> Input File <==

--------------------------------------------------------------------------
#psi4
#
memory 32 gb

molecule  {
0 1
  O       -1.3267430     1.3986080    -0.4043610
  N        1.4385566     0.5132468     0.0711325
  N       -2.0120760    -0.7164460     0.1311050
  C        0.3280180    -0.2917100    -0.0638180
  C        0.8200520    -1.5979270    -0.1446940
  C        2.5591820    -0.1927100     0.0828840
  C        2.2225030    -1.5310870    -0.0531270
  C       -1.0490640     0.2229840    -0.1220780
  C        1.3775260     2.0070720     0.1804590
  C       -3.4119730    -0.3353390     0.1671430
  H        0.2239390    -2.4879400    -0.3067250
  H        3.5227950     0.2883690     0.1888050
  H        2.9194420    -2.3581700    -0.0891670
  H        0.6999810     2.3106600     0.9777950
  H        2.3913760     2.3394710     0.4091260
  H        1.0337950     2.4512300    -0.7527080
  H       -1.7260750    -1.5572290     0.6147920
  H       -4.0269330    -1.2262470     0.0275940
  H       -3.5972090     0.3657440    -0.6460440
  H       -3.6872220     0.1511560     1.1097960
units angstrom
no_reorient  #important for SAPT in psi4, default
symmetry c1  #important for SAPT in psi4, default
}

set PROPERTIES_ORIGIN ["COM"]
properties('MP2/aug-cc-pvtz', properties = ['dipole'])
--------------------------------------------------------------------------

    Molecular point group: c1
  Charge       = 0
  Multiplicity = 1
  Basis Set: AUG-CC-PVTZ
    Blend: AUG-CC-PVTZ
  Basis Set: (AUG-CC-PVTZ AUX)
    Blend: AUG-CC-PVTZ-JKFIT

    Orbital Energies [Eh]
    ---------------------

    Doubly Occupied:

       1A    -20.515160     2A    -15.622130     3A    -15.582510
       4A    -11.355122     5A    -11.267910     6A    -11.263950
       7A    -11.258879     8A    -11.256969     9A    -11.231895
      10A    -11.216186    11A     -1.371701    12A     -1.315479
      13A     -1.225179    14A     -1.075639    15A     -1.019230
      16A     -0.943508    17A     -0.938049    18A     -0.824988
      19A     -0.788926    20A     -0.761195    21A     -0.723770
      22A     -0.655686    23A     -0.642327    24A     -0.634115
      25A     -0.616728    26A     -0.593201    27A     -0.579505
      28A     -0.568680    29A     -0.548444    30A     -0.546224
      31A     -0.539363    32A     -0.533571    33A     -0.517675
      34A     -0.429403    35A     -0.393088    36A     -0.348163
      37A     -0.306075

  @DF-RHF Final Energy:  -454.81802149560451

   => Energetics <=

    Nuclear Repulsion Energy =            522.9451322990306608
    One-Electron Energy =               -1655.5050648380604343
    Two-Electron Energy =                 677.7419110434253753
    Total Energy =                       -454.8180214956045120
  Basis Set: (AUG-CC-PVTZ AUX)
    Blend: AUG-CC-PVTZ-RI
    Molecular point group: c1

    Geometry (in Angstrom), charge = 0, multiplicity = 1:

       Center              X                  Y                   Z               Mass
    ------------   -----------------  -----------------  -----------------  -----------------
         O           -1.345855678390     1.404547991974    -0.393285603414    15.994914619570
         N            1.419443921610     0.519186791974     0.082207896586    14.003074004430
         N           -2.031188678390    -0.710506008026     0.142180396586    14.003074004430
         C            0.308905321610    -0.285770008026    -0.052742603414    12.000000000000
         C            0.800939321610    -1.591987008026    -0.133618603414    12.000000000000
         C            2.540069321610    -0.186770008026     0.093959396586    12.000000000000
         C            2.203390321610    -1.525147008026    -0.042051603414    12.000000000000
         C           -1.068176678390     0.228923991974    -0.111002603414    12.000000000000
         C            1.358413321610     2.013011991974     0.191534396586    12.000000000000
         C           -3.431085678390    -0.329399008026     0.178218396586    12.000000000000
         H            0.204826321610    -2.482000008026    -0.295649603414     1.007825032230
         H            3.503682321610     0.294308991974     0.199880396586     1.007825032230
         H            2.900329321610    -2.352230008026    -0.078091603414     1.007825032230
         H            0.680868321610     2.316599991974     0.988870396586     1.007825032230
         H            2.372263321610     2.345410991974     0.420201396586     1.007825032230
         H            1.014682321610     2.457169991974    -0.741632603414     1.007825032230
         H           -1.745187678390    -1.551289008026     0.625867396586     1.007825032230
         H           -4.046045678390    -1.220307008026     0.038669396586     1.007825032230
         H           -3.616321678390     0.371683991974    -0.634968603414     1.007825032230
         H           -3.706334678390     0.157095991974     1.120871396586     1.007825032230

  Basis Set: AUG-CC-PVTZ
    Blend: AUG-CC-PVTZ
  Basis Set: (AUG-CC-PVTZ AUX)
    Blend: AUG-CC-PVTZ-JKFIT
	 Reference Energy          =    -454.8180214956045120 [Eh]
	 Singles Energy            =      -0.0000000000000000 [Eh]
	 Same-Spin Energy          =      -0.4850336219716053 [Eh]
	 Opposite-Spin Energy      =      -1.5160693840012880 [Eh]
	 Correlation Energy        =      -2.0011030059728934 [Eh]
	 Total Energy              =    -456.8191245015773916 [Eh]

	 ================> DF-SCS-MP2 Energies <==================
	-----------------------------------------------------------
	 SCS Same-Spin Scale       =       0.3333333333333333 [-]
	 SCS Opposite-Spin Scale   =       1.2000000000000000 [-]
	 SCS Same-Spin Energy      =      -0.1616778739905351 [Eh]
	 SCS Opposite-Spin Energy  =      -1.8192832608015455 [Eh]
	 SCS Correlation Energy    =      -1.9809611347920806 [Eh]
	 SCS Total Energy          =    -456.7989826303966083 [Eh]
	-----------------------------------------------------------

  Dipole Moment: [D]
     X:     0.2912      Y:    -1.0412      Z:     1.3704     Total:     1.7455

*** Psi4 exiting successfully. Buy a developer a beer!
