                               Psi4 1.3.2 release

  ==> Input File <==

--------------------------------------------------------------------------
#psi4
#
memory 32 gb

molecule  {
0 1
  O       -1.3267430     1.3986080    -0.4043610
  N        1.4345652     0.5520449     0.0769129
  N       -2.0120760    -0.7164460     0.1311050
  C        0.3280180    -0.2917100    -0.0638180
  C        0.8200520    -1.5979270    -0.1446940
  C        2.5591820    -0.1927100     0.0828840
  C        2.2225030    -1.5310870    -0.0531270
  C       -1.0490640     0.2229840    -0.1220780
  C        1.3775260     2.0070720     0.1804590
  C       -3.4119730    -0.3353390     0.1671430
  H        0.2239390    -2.4879400    -0.3067250
  H        3.5227950     0.2883690     0.1888050
  H        2.9194420    -2.3581700    -0.0891670
  H        0.6999810     2.3106600     0.9777950
  H        2.3913760     2.3394710     0.4091260
  H        1.0337950     2.4512300    -0.7527080
  H       -1.7260750    -1.5572290     0.6147920
  H       -4.0269330    -1.2262470     0.0275940
  H       -3.5972090     0.3657440    -0.6460440
  H       -3.6872220     0.1511560     1.1097960
units angstrom
no_reorient  #important for SAPT in psi4, default
symmetry c1  #important for SAPT in psi4, default
}

set PROPERTIES_ORIGIN ["COM"]
properties('MP2/aug-cc-pvtz', properties = ['dipole'])
--------------------------------------------------------------------------

    Molecular point group: c1
  Charge       = 0
  Multiplicity = 1
  Basis Set: AUG-CC-PVTZ
    Blend: AUG-CC-PVTZ
  Basis Set: (AUG-CC-PVTZ AUX)
    Blend: AUG-CC-PVTZ-JKFIT

    Orbital Energies [Eh]
    ---------------------

    Doubly Occupied:

       1A    -20.515189     2A    -15.621320     3A    -15.582440
       4A    -11.354571     5A    -11.267642     6A    -11.263605
       7A    -11.262313     8A    -11.256905     9A    -11.234806
      10A    -11.219021    11A     -1.371364    12A     -1.307882
      13A     -1.225173    14A     -1.082861    15A     -1.015985
      16A     -0.942367    17A     -0.937426    18A     -0.824985
      19A     -0.787149    20A     -0.761758    21A     -0.725041
      22A     -0.651703    23A     -0.641900    24A     -0.634420
      25A     -0.616945    26A     -0.594664    27A     -0.581590
      28A     -0.571809    29A     -0.550399    30A     -0.546560
      31A     -0.537262    32A     -0.531752    33A     -0.514305
      34A     -0.429040    35A     -0.392994    36A     -0.348944
      37A     -0.306265

  @DF-RHF Final Energy:  -454.81953949489224

   => Energetics <=

    Nuclear Repulsion Energy =            522.5422993812196637
    One-Electron Energy =               -1654.7029710483825511
    Two-Electron Energy =                 677.3411321722705907
    Total Energy =                       -454.8195394948922967
  Basis Set: (AUG-CC-PVTZ AUX)
    Blend: AUG-CC-PVTZ-RI
    Molecular point group: c1

    Geometry (in Angstrom), charge = 0, multiplicity = 1:

       Center              X                  Y                   Z               Mass
    ------------   -----------------  -----------------  -----------------  -----------------
         O           -1.345450897483     1.400613349964    -0.393871812653    15.994914619570
         N            1.415857302517     0.554050249964     0.087402087347    14.003074004430
         N           -2.030783897483    -0.714440650036     0.141594187347    14.003074004430
         C            0.309310102517    -0.289704650036    -0.053328812653    12.000000000000
         C            0.801344102517    -1.595921650036    -0.134204812653    12.000000000000
         C            2.540474102517    -0.190704650036     0.093373187347    12.000000000000
         C            2.203795102517    -1.529081650036    -0.042637812653    12.000000000000
         C           -1.067771897483     0.224989349964    -0.111588812653    12.000000000000
         C            1.358818102517     2.009077349964     0.190948187347    12.000000000000
         C           -3.430680897483    -0.333333650036     0.177632187347    12.000000000000
         H            0.205231102517    -2.485934650036    -0.296235812653     1.007825032230
         H            3.504087102517     0.290374349964     0.199294187347     1.007825032230
         H            2.900734102517    -2.356164650036    -0.078677812653     1.007825032230
         H            0.681273102517     2.312665349964     0.988284187347     1.007825032230
         H            2.372668102517     2.341476349964     0.419615187347     1.007825032230
         H            1.015087102517     2.453235349964    -0.742218812653     1.007825032230
         H           -1.744782897483    -1.555223650036     0.625281187347     1.007825032230
         H           -4.045640897483    -1.224241650036     0.038083187347     1.007825032230
         H           -3.615916897483     0.367749349964    -0.635554812653     1.007825032230
         H           -3.705929897483     0.153161349964     1.120285187347     1.007825032230

  Basis Set: AUG-CC-PVTZ
    Blend: AUG-CC-PVTZ
  Basis Set: (AUG-CC-PVTZ AUX)
    Blend: AUG-CC-PVTZ-JKFIT
	 Reference Energy          =    -454.8195394948922399 [Eh]
	 Singles Energy            =      -0.0000000000000000 [Eh]
	 Same-Spin Energy          =      -0.4851062107174334 [Eh]
	 Opposite-Spin Energy      =      -1.5165299427083005 [Eh]
	 Correlation Energy        =      -2.0016361534257339 [Eh]
	 Total Energy              =    -456.8211756483179897 [Eh]

	 ================> DF-SCS-MP2 Energies <==================
	-----------------------------------------------------------
	 SCS Same-Spin Scale       =       0.3333333333333333 [-]
	 SCS Opposite-Spin Scale   =       1.2000000000000000 [-]
	 SCS Same-Spin Energy      =      -0.1617020702391445 [Eh]
	 SCS Opposite-Spin Energy  =      -1.8198359312499606 [Eh]
	 SCS Correlation Energy    =      -1.9815380014891051 [Eh]
	 SCS Total Energy          =    -456.8010774963813674 [Eh]
	-----------------------------------------------------------

  Dipole Moment: [D]
     X:     0.2902      Y:    -1.1772      Z:     1.3567     Total:     1.8195

*** Psi4 exiting successfully. Buy a developer a beer!
