                               Psi4 1.4a3.dev225

  ==> Input File <==

--------------------------------------------------------------------------
#psi4
#
memory 32 gb

molecule  {
0 1
  O       -1.3267430     1.3986080    -0.4043610
  N        1.4095890     0.5516460     0.0718950
  N       -2.0120760    -0.7164460     0.1311050
  C        0.3280180    -0.2917100    -0.0638180
  C        0.8200520    -1.5979270    -0.1446940
  C        2.5591820    -0.1927100     0.0828840
  C        2.2025680    -1.5320371    -0.0544286
  C       -1.0490640     0.2229840    -0.1220780
  C        1.3775260     2.0070720     0.1804590
  C       -3.4119730    -0.3353390     0.1671430
  H        0.2239390    -2.4879400    -0.3067250
  H        3.5227950     0.2883690     0.1888050
  H        2.9194420    -2.3581700    -0.0891670
  H        0.6999810     2.3106600     0.9777950
  H        2.3913760     2.3394710     0.4091260
  H        1.0337950     2.4512300    -0.7527080
  H       -1.7260750    -1.5572290     0.6147920
  H       -4.0269330    -1.2262470     0.0275940
  H       -3.5972090     0.3657440    -0.6460440
  H       -3.6872220     0.1511560     1.1097960
units angstrom
no_reorient  #important for SAPT in psi4, default
symmetry c1  #important for SAPT in psi4, default
}

set PROPERTIES_ORIGIN ["COM"]
properties('MP2/aug-cc-pvtz', properties = ['dipole'])
--------------------------------------------------------------------------

    Molecular point group: c1
  Charge       = 0
  Multiplicity = 1
  Basis Set: AUG-CC-PVTZ
    Blend: AUG-CC-PVTZ
  Basis Set: (AUG-CC-PVTZ AUX)
    Blend: AUG-CC-PVTZ-JKFIT

    Orbital Energies [Eh]
    ---------------------

    Doubly Occupied:

       1A    -20.515615     2A    -15.622265     3A    -15.582632
       4A    -11.354415     5A    -11.267160     6A    -11.263576
       7A    -11.262040     8A    -11.256993     9A    -11.230901
      10A    -11.220383    11A     -1.371937    12A     -1.307626
      13A     -1.225356    14A     -1.084962    15A     -1.015172
      16A     -0.941173    17A     -0.939712    18A     -0.824713
      19A     -0.785815    20A     -0.762191    21A     -0.725111
      22A     -0.651269    23A     -0.642179    24A     -0.634679
      25A     -0.616812    26A     -0.592545    27A     -0.579268
      28A     -0.573507    29A     -0.554592    30A     -0.546927
      31A     -0.537878    32A     -0.529985    33A     -0.513866
      34A     -0.429277    35A     -0.393126    36A     -0.350475
      37A     -0.304731

  @DF-RHF Final Energy:  -454.81898638083624

   => Energetics <=

    Nuclear Repulsion Energy =            523.0459519338552354
    One-Electron Energy =               -1655.7081448282849578
    Two-Electron Energy =                 677.8432065135933726
    Total Energy =                       -454.8189863808362361
  Basis Set: (AUG-CC-PVTZ AUX)
    Blend: AUG-CC-PVTZ-RI
    Molecular point group: c1

    Geometry (in Angstrom), charge = 0, multiplicity = 1:

       Center              X                  Y                   Z               Mass
    ------------   -----------------  -----------------  -----------------  -----------------
         O           -1.341185496936     1.400736373651    -0.393249813432    15.994914619570
         N            1.395146503064     0.553774373651     0.083006186568    14.003074004430
         N           -2.026518496936    -0.714317626349     0.142216186568    14.003074004430
         C            0.313575503064    -0.289581626349    -0.052706813432    12.000000000000
         C            0.805609503064    -1.595798626349    -0.133582813432    12.000000000000
         C            2.544739503064    -0.190581626349     0.093995186568    12.000000000000
         C            2.188125503064    -1.529908726349    -0.043317413432    12.000000000000
         C           -1.063506496936     0.225112373651    -0.110966813432    12.000000000000
         C            1.363083503064     2.009200373651     0.191570186568    12.000000000000
         C           -3.426415496936    -0.333210626349     0.178254186568    12.000000000000
         H            0.209496503064    -2.485811626349    -0.295613813432     1.007825032230
         H            3.508352503064     0.290497373651     0.199916186568     1.007825032230
         H            2.904999503064    -2.356041626349    -0.078055813432     1.007825032230
         H            0.685538503064     2.312788373651     0.988906186568     1.007825032230
         H            2.376933503064     2.341599373651     0.420237186568     1.007825032230
         H            1.019352503064     2.453358373651    -0.741596813432     1.007825032230
         H           -1.740517496936    -1.555100626349     0.625903186568     1.007825032230
         H           -4.041375496936    -1.224118626349     0.038705186568     1.007825032230
         H           -3.611651496936     0.367872373651    -0.634932813432     1.007825032230
         H           -3.701664496936     0.153284373651     1.120907186568     1.007825032230

  Basis Set: AUG-CC-PVTZ
    Blend: AUG-CC-PVTZ
  Basis Set: (AUG-CC-PVTZ AUX)
    Blend: AUG-CC-PVTZ-JKFIT
	 Reference Energy          =    -454.8189863808362361 [Eh]
	 Singles Energy            =      -0.0000000000000000 [Eh]
	 Same-Spin Energy          =      -0.4855391796100580 [Eh]
	 Opposite-Spin Energy      =      -1.5170988037320250 [Eh]
	 Correlation Energy        =      -2.0026379833420829 [Eh]
	 Total Energy              =    -456.8216243641783194 [Eh]

	 ================> DF-SCS-MP2 Energies <==================
	-----------------------------------------------------------
	 SCS Same-Spin Scale       =       0.3333333333333333 [-]
	 SCS Opposite-Spin Scale   =       1.2000000000000000 [-]
	 SCS Same-Spin Energy      =      -0.1618463932033526 [Eh]
	 SCS Opposite-Spin Energy  =      -1.8205185644784299 [Eh]
	 SCS Correlation Energy    =      -1.9823649576817826 [Eh]
	 SCS Total Energy          =    -456.8013513385180318 [Eh]
	-----------------------------------------------------------

  Dipole Moment: [D]
     X:     0.3005      Y:    -1.1850      Z:     1.3587     Total:     1.8277

*** Psi4 exiting successfully. Buy a developer a beer!
