                               Psi4 1.3.2 release

  ==> Input File <==

--------------------------------------------------------------------------
#psi4
#
memory 32 gb

molecule  {
0 1
  O       -1.3267430     1.3986080    -0.4043610
  N        1.4095890     0.5516460     0.0718950
  N       -2.0120760    -0.7164460     0.1311050
  C        0.3430063    -0.3105183    -0.0642565
  C        0.8200520    -1.5979270    -0.1446940
  C        2.5591820    -0.1927100     0.0828840
  C        2.2225030    -1.5310870    -0.0531270
  C       -1.0490640     0.2229840    -0.1220780
  C        1.3775260     2.0070720     0.1804590
  C       -3.4119730    -0.3353390     0.1671430
  H        0.2239390    -2.4879400    -0.3067250
  H        3.5227950     0.2883690     0.1888050
  H        2.9194420    -2.3581700    -0.0891670
  H        0.6999810     2.3106600     0.9777950
  H        2.3913760     2.3394710     0.4091260
  H        1.0337950     2.4512300    -0.7527080
  H       -1.7260750    -1.5572290     0.6147920
  H       -4.0269330    -1.2262470     0.0275940
  H       -3.5972090     0.3657440    -0.6460440
  H       -3.6872220     0.1511560     1.1097960
units angstrom
no_reorient  #important for SAPT in psi4, default
symmetry c1  #important for SAPT in psi4, default
}

set PROPERTIES_ORIGIN ["COM"]
properties('MP2/aug-cc-pvtz', properties = ['dipole'])
--------------------------------------------------------------------------

    Molecular point group: c1
  Charge       = 0
  Multiplicity = 1
  Basis Set: AUG-CC-PVTZ
    Blend: AUG-CC-PVTZ
  Basis Set: (AUG-CC-PVTZ AUX)
    Blend: AUG-CC-PVTZ-JKFIT

    Orbital Energies [Eh]
    ---------------------

    Doubly Occupied:

       1A    -20.517797     2A    -15.618676     3A    -15.583675
       4A    -11.356854     5A    -11.265634     6A    -11.263490
       7A    -11.262608     8A    -11.257581     9A    -11.229438
      10A    -11.219214    11A     -1.372649    12A     -1.307130
      13A     -1.226191    14A     -1.084529    15A     -1.013714
      16A     -0.941996    17A     -0.938444    18A     -0.822010
      19A     -0.787576    20A     -0.761638    21A     -0.725434
      22A     -0.649841    23A     -0.641687    24A     -0.635117
      25A     -0.617056    26A     -0.594528    27A     -0.581030
      28A     -0.571816    29A     -0.550509    30A     -0.547537
      31A     -0.537617    32A     -0.533780    33A     -0.514555
      34A     -0.429470    35A     -0.393941    36A     -0.348205
      37A     -0.307796

  @DF-RHF Final Energy:  -454.82014548991822

   => Energetics <=

    Nuclear Repulsion Energy =            522.7448015585273424
    One-Electron Energy =               -1655.1083602584967593
    Two-Electron Energy =                 677.5434132100511988
    Total Energy =                       -454.8201454899182181
  Basis Set: (AUG-CC-PVTZ AUX)
    Blend: AUG-CC-PVTZ-RI
    Molecular point group: c1

    Geometry (in Angstrom), charge = 0, multiplicity = 1:

       Center              X                  Y                   Z               Mass
    ------------   -----------------  -----------------  -----------------  -----------------
         O           -1.344220561284     1.402288368627    -0.393324822496    15.994914619570
         N            1.392111438716     0.555326368627     0.082931177504    14.003074004430
         N           -2.029553561284    -0.712765631373     0.142141177504    14.003074004430
         C            0.325528738716    -0.306837931373    -0.053220322496    12.000000000000
         C            0.802574438716    -1.594246631373    -0.133657822496    12.000000000000
         C            2.541704438716    -0.189029631373     0.093920177504    12.000000000000
         C            2.205025438716    -1.527406631373    -0.042090822496    12.000000000000
         C           -1.066541561284     0.226664368627    -0.111041822496    12.000000000000
         C            1.360048438716     2.010752368627     0.191495177504    12.000000000000
         C           -3.429450561284    -0.331658631373     0.178179177504    12.000000000000
         H            0.206461438716    -2.484259631373    -0.295688822496     1.007825032230
         H            3.505317438716     0.292049368627     0.199841177504     1.007825032230
         H            2.901964438716    -2.354489631373    -0.078130822496     1.007825032230
         H            0.682503438716     2.314340368627     0.988831177504     1.007825032230
         H            2.373898438716     2.343151368627     0.420162177504     1.007825032230
         H            1.016317438716     2.454910368627    -0.741671822496     1.007825032230
         H           -1.743552561284    -1.553548631373     0.625828177504     1.007825032230
         H           -4.044410561284    -1.222566631373     0.038630177504     1.007825032230
         H           -3.614686561284     0.369424368627    -0.635007822496     1.007825032230
         H           -3.704699561284     0.154836368627     1.120832177504     1.007825032230

  Basis Set: AUG-CC-PVTZ
    Blend: AUG-CC-PVTZ
  Basis Set: (AUG-CC-PVTZ AUX)
    Blend: AUG-CC-PVTZ-JKFIT
	 Reference Energy          =    -454.8201454899182181 [Eh]
	 Singles Energy            =      -0.0000000000000000 [Eh]
	 Same-Spin Energy          =      -0.4848083055278496 [Eh]
	 Opposite-Spin Energy      =      -1.5162409190008932 [Eh]
	 Correlation Energy        =      -2.0010492245287428 [Eh]
	 Total Energy              =    -456.8211947144469605 [Eh]

	 ================> DF-SCS-MP2 Energies <==================
	-----------------------------------------------------------
	 SCS Same-Spin Scale       =       0.3333333333333333 [-]
	 SCS Opposite-Spin Scale   =       1.2000000000000000 [-]
	 SCS Same-Spin Energy      =      -0.1616027685092832 [Eh]
	 SCS Opposite-Spin Energy  =      -1.8194891028010718 [Eh]
	 SCS Correlation Energy    =      -1.9810918713103549 [Eh]
	 SCS Total Energy          =    -456.8012373612285728 [Eh]
	-----------------------------------------------------------

  Dipole Moment: [D]
     X:     0.1961      Y:    -1.1729      Z:     1.3526     Total:     1.8010

*** Psi4 exiting successfully. Buy a developer a beer!
