                               Psi4 1.3.2 release

  ==> Input File <==

--------------------------------------------------------------------------
#psi4
#
memory 32 gb

molecule  {
0 1
  O       -1.3267430     1.3986080    -0.4043610
  N        1.4242398     0.5325719     0.0715344
  N       -2.0120760    -0.7164460     0.1311050
  C        0.3280180    -0.2917100    -0.0638180
  C        0.8200520    -1.5979270    -0.1446940
  C        2.5591820    -0.1927100     0.0828840
  C        2.2225030    -1.5310870    -0.0531270
  C       -1.0490640     0.2229840    -0.1220780
  C        1.3775260     2.0070720     0.1804590
  C       -3.4119730    -0.3353390     0.1671430
  H        0.2239390    -2.4879400    -0.3067250
  H        3.5227950     0.2883690     0.1888050
  H        2.9194420    -2.3581700    -0.0891670
  H        0.6999810     2.3106600     0.9777950
  H        2.3913760     2.3394710     0.4091260
  H        1.0337950     2.4512300    -0.7527080
  H       -1.7260750    -1.5572290     0.6147920
  H       -4.0269330    -1.2262470     0.0275940
  H       -3.5972090     0.3657440    -0.6460440
  H       -3.6872220     0.1511560     1.1097960
units angstrom
no_reorient  #important for SAPT in psi4, default
symmetry c1  #important for SAPT in psi4, default
}

set PROPERTIES_ORIGIN ["COM"]
properties('MP2/aug-cc-pvtz', properties = ['dipole'])
--------------------------------------------------------------------------

    Molecular point group: c1
  Charge       = 0
  Multiplicity = 1
  Basis Set: AUG-CC-PVTZ
    Blend: AUG-CC-PVTZ
  Basis Set: (AUG-CC-PVTZ AUX)
    Blend: AUG-CC-PVTZ-JKFIT

    Orbital Energies [Eh]
    ---------------------

    Doubly Occupied:

       1A    -20.515683     2A    -15.621542     3A    -15.582738
       4A    -11.355026     5A    -11.265616     6A    -11.265515
       7A    -11.260887     8A    -11.257085     9A    -11.232323
      10A    -11.218380    11A     -1.372021    12A     -1.310882
      13A     -1.225430    14A     -1.078958    15A     -1.017561
      16A     -0.942266    17A     -0.938352    18A     -0.825205
      19A     -0.787911    20A     -0.761589    21A     -0.724382
      22A     -0.653167    23A     -0.642208    24A     -0.634477
      25A     -0.616816    26A     -0.593466    27A     -0.577649
      28A     -0.573167    29A     -0.549444    30A     -0.546986
      31A     -0.538346    32A     -0.533243    33A     -0.515759
      34A     -0.429568    35A     -0.393231    36A     -0.347921
      37A     -0.306483

  @DF-RHF Final Energy:  -454.81981267915484

   => Energetics <=

    Nuclear Repulsion Energy =            522.8444338732572305
    One-Electron Energy =               -1655.3059280348281845
    Two-Electron Energy =                 677.6416814824160610
    Total Energy =                       -454.8198126791548930
  Basis Set: (AUG-CC-PVTZ AUX)
    Blend: AUG-CC-PVTZ-RI
    Molecular point group: c1

    Geometry (in Angstrom), charge = 0, multiplicity = 1:

       Center              X                  Y                   Z               Mass
    ------------   -----------------  -----------------  -----------------  -----------------
         O           -1.344403764953     1.402588170480    -0.393326361405    15.994914619570
         N            1.406579035047     0.536552070480     0.082569038595    14.003074004430
         N           -2.029736764953    -0.712465829520     0.142139638595    14.003074004430
         C            0.310357235047    -0.287729829520    -0.052783361405    12.000000000000
         C            0.802391235047    -1.593946829520    -0.133659361405    12.000000000000
         C            2.541521235047    -0.188729829520     0.093918638595    12.000000000000
         C            2.204842235047    -1.527106829520    -0.042092361405    12.000000000000
         C           -1.066724764953     0.226964170480    -0.111043361405    12.000000000000
         C            1.359865235047     2.011052170480     0.191493638595    12.000000000000
         C           -3.429633764953    -0.331358829520     0.178177638595    12.000000000000
         H            0.206278235047    -2.483959829520    -0.295690361405     1.007825032230
         H            3.505134235047     0.292349170480     0.199839638595     1.007825032230
         H            2.901781235047    -2.354189829520    -0.078132361405     1.007825032230
         H            0.682320235047     2.314640170480     0.988829638595     1.007825032230
         H            2.373715235047     2.343451170480     0.420160638595     1.007825032230
         H            1.016134235047     2.455210170480    -0.741673361405     1.007825032230
         H           -1.743735764953    -1.553248829520     0.625826638595     1.007825032230
         H           -4.044593764953    -1.222266829520     0.038628638595     1.007825032230
         H           -3.614869764953     0.369724170480    -0.635009361405     1.007825032230
         H           -3.704882764953     0.155136170480     1.120830638595     1.007825032230

  Basis Set: AUG-CC-PVTZ
    Blend: AUG-CC-PVTZ
  Basis Set: (AUG-CC-PVTZ AUX)
    Blend: AUG-CC-PVTZ-JKFIT
	 Reference Energy          =    -454.8198126791548361 [Eh]
	 Singles Energy            =      -0.0000000000000000 [Eh]
	 Same-Spin Energy          =      -0.4851244580011344 [Eh]
	 Opposite-Spin Energy      =      -1.5164191898959281 [Eh]
	 Correlation Energy        =      -2.0015436478970625 [Eh]
	 Total Energy              =    -456.8213563270518875 [Eh]

	 ================> DF-SCS-MP2 Energies <==================
	-----------------------------------------------------------
	 SCS Same-Spin Scale       =       0.3333333333333333 [-]
	 SCS Opposite-Spin Scale   =       1.2000000000000000 [-]
	 SCS Same-Spin Energy      =      -0.1617081526670448 [Eh]
	 SCS Opposite-Spin Energy  =      -1.8197030278751136 [Eh]
	 SCS Correlation Energy    =      -1.9814111805421584 [Eh]
	 SCS Total Energy          =    -456.8012238596970178 [Eh]
	-----------------------------------------------------------

  Dipole Moment: [D]
     X:     0.2864      Y:    -1.1126      Z:     1.3640     Total:     1.7834

*** Psi4 exiting successfully. Buy a developer a beer!
