                               Psi4 1.3.2 release

  ==> Input File <==

--------------------------------------------------------------------------
#psi4
#
memory 32 gb

molecule  {
0 1
  O       -1.3267430     1.3986080    -0.4043610
  N        1.4095890     0.5516460     0.0718950
  N       -2.0120760    -0.7164460     0.1311050
  C        0.4849710    -0.1693258    -0.0441239
  C        0.8200520    -1.5979270    -0.1446940
  C        2.5591820    -0.1927100     0.0828840
  C        2.2225030    -1.5310870    -0.0531270
  C       -1.0490640     0.2229840    -0.1220780
  C        1.3775260     2.0070720     0.1804590
  C       -3.4119730    -0.3353390     0.1671430
  H        0.2239390    -2.4879400    -0.3067250
  H        3.5227950     0.2883690     0.1888050
  H        2.9194420    -2.3581700    -0.0891670
  H        0.6999810     2.3106600     0.9777950
  H        2.3913760     2.3394710     0.4091260
  H        1.0337950     2.4512300    -0.7527080
  H       -1.7260750    -1.5572290     0.6147920
  H       -4.0269330    -1.2262470     0.0275940
  H       -3.5972090     0.3657440    -0.6460440
  H       -3.6872220     0.1511560     1.1097960
units angstrom
no_reorient  #important for SAPT in psi4, default
symmetry c1  #important for SAPT in psi4, default
}

set PROPERTIES_ORIGIN ["COM"]
properties('MP2/aug-cc-pvtz', properties = ['dipole'])
--------------------------------------------------------------------------

    Molecular point group: c1
  Charge       = 0
  Multiplicity = 1
  Basis Set: AUG-CC-PVTZ
    Blend: AUG-CC-PVTZ
  Basis Set: (AUG-CC-PVTZ AUX)
    Blend: AUG-CC-PVTZ-JKFIT

    Orbital Energies [Eh]
    ---------------------

    Doubly Occupied:

       1A    -20.519215     2A    -15.627679     3A    -15.590121
       4A    -11.363684     5A    -11.274004     6A    -11.267881
       7A    -11.261771     8A    -11.243830     9A    -11.221631
      10A    -11.215947    11A     -1.388661    12A     -1.362443
      13A     -1.227982    14A     -1.083199    15A     -1.010625
      16A     -0.964072    17A     -0.937469    18A     -0.809824
      19A     -0.798788    20A     -0.758166    21A     -0.734962
      22A     -0.667390    23A     -0.650039    24A     -0.639479
      25A     -0.622540    26A     -0.605646    27A     -0.594923
      28A     -0.566540    29A     -0.551075    30A     -0.547392
      31A     -0.535567    32A     -0.524592    33A     -0.521998
      34A     -0.417482    35A     -0.395632    36A     -0.359126
      37A     -0.285708

  @DF-RHF Final Energy:  -454.76352924974043

   => Energetics <=

    Nuclear Repulsion Energy =            524.3202188891688138
    One-Electron Energy =               -1657.8733304518821114
    Two-Electron Energy =                 678.7895823129726978
    Total Energy =                       -454.7635292497404862
  Basis Set: (AUG-CC-PVTZ AUX)
    Blend: AUG-CC-PVTZ-RI
    Molecular point group: c1

    Geometry (in Angstrom), charge = 0, multiplicity = 1:

       Center              X                  Y                   Z               Mass
    ------------   -----------------  -----------------  -----------------  -----------------
         O           -1.356558226961     1.390017812207    -0.395074477783    15.994914619570
         N            1.379773773039     0.543055812207     0.081181522217    14.003074004430
         N           -2.041891226961    -0.725036187793     0.140391522217    14.003074004430
         C            0.455155773039    -0.177915987793    -0.034837377783    12.000000000000
         C            0.790236773039    -1.606517187793    -0.135407477783    12.000000000000
         C            2.529366773039    -0.201300187793     0.092170522217    12.000000000000
         C            2.192687773039    -1.539677187793    -0.043840477783    12.000000000000
         C           -1.078879226961     0.214393812207    -0.112791477783    12.000000000000
         C            1.347710773039     1.998481812207     0.189745522217    12.000000000000
         C           -3.441788226961    -0.343929187793     0.176429522217    12.000000000000
         H            0.194123773039    -2.496530187793    -0.297438477783     1.007825032230
         H            3.492979773039     0.279778812207     0.198091522217     1.007825032230
         H            2.889626773039    -2.366760187793    -0.079880477783     1.007825032230
         H            0.670165773039     2.302069812207     0.987081522217     1.007825032230
         H            2.361560773039     2.330880812207     0.418412522217     1.007825032230
         H            1.003979773039     2.442639812207    -0.743421477783     1.007825032230
         H           -1.755890226961    -1.565819187793     0.624078522217     1.007825032230
         H           -4.056748226961    -1.234837187793     0.036880522217     1.007825032230
         H           -3.627024226961     0.357153812207    -0.636757477783     1.007825032230
         H           -3.717037226961     0.142565812207     1.119082522217     1.007825032230

  Basis Set: AUG-CC-PVTZ
    Blend: AUG-CC-PVTZ
  Basis Set: (AUG-CC-PVTZ AUX)
    Blend: AUG-CC-PVTZ-JKFIT
	 Reference Energy          =    -454.7635292497404293 [Eh]
	 Singles Energy            =      -0.0000000000000000 [Eh]
	 Same-Spin Energy          =      -0.4849503824226182 [Eh]
	 Opposite-Spin Energy      =      -1.5152672371157854 [Eh]
	 Correlation Energy        =      -2.0002176195384034 [Eh]
	 Total Energy              =    -456.7637468692788048 [Eh]

	 ================> DF-SCS-MP2 Energies <==================
	-----------------------------------------------------------
	 SCS Same-Spin Scale       =       0.3333333333333333 [-]
	 SCS Opposite-Spin Scale   =       1.2000000000000000 [-]
	 SCS Same-Spin Energy      =      -0.1616501274742060 [Eh]
	 SCS Opposite-Spin Energy  =      -1.8183206845389424 [Eh]
	 SCS Correlation Energy    =      -1.9799708120131485 [Eh]
	 SCS Total Energy          =    -456.7435000617535934 [Eh]
	-----------------------------------------------------------

  Dipole Moment: [D]
     X:    -0.0665      Y:    -0.7815      Z:     1.3932     Total:     1.5988

*** Psi4 exiting successfully. Buy a developer a beer!
