                               Psi4 1.3.2 release

  ==> Input File <==

--------------------------------------------------------------------------
#psi4
#
memory 32 gb

molecule  {
0 1
  O       -1.3267430     1.3986080    -0.4043610
  N        1.4095890     0.5516460     0.0718950
  N       -2.0120760    -0.7164460     0.1311050
  C        0.3583195    -0.3290640    -0.0646535
  C        0.8200520    -1.5979270    -0.1446940
  C        2.5591820    -0.1927100     0.0828840
  C        2.2225030    -1.5310870    -0.0531270
  C       -1.0490640     0.2229840    -0.1220780
  C        1.3775260     2.0070720     0.1804590
  C       -3.4119730    -0.3353390     0.1671430
  H        0.2239390    -2.4879400    -0.3067250
  H        3.5227950     0.2883690     0.1888050
  H        2.9194420    -2.3581700    -0.0891670
  H        0.6999810     2.3106600     0.9777950
  H        2.3913760     2.3394710     0.4091260
  H        1.0337950     2.4512300    -0.7527080
  H       -1.7260750    -1.5572290     0.6147920
  H       -4.0269330    -1.2262470     0.0275940
  H       -3.5972090     0.3657440    -0.6460440
  H       -3.6872220     0.1511560     1.1097960
units angstrom
no_reorient  #important for SAPT in psi4, default
symmetry c1  #important for SAPT in psi4, default
}

set PROPERTIES_ORIGIN ["COM"]
properties('MP2/aug-cc-pvtz', properties = ['dipole'])
--------------------------------------------------------------------------

    Molecular point group: c1
  Charge       = 0
  Multiplicity = 1
  Basis Set: AUG-CC-PVTZ
    Blend: AUG-CC-PVTZ
  Basis Set: (AUG-CC-PVTZ AUX)
    Blend: AUG-CC-PVTZ-JKFIT

    Orbital Energies [Eh]
    ---------------------

    Doubly Occupied:

       1A    -20.519261     2A    -15.616500     3A    -15.584311
       4A    -11.358558     5A    -11.264346     6A    -11.263655
       7A    -11.262202     8A    -11.257911     9A    -11.226107
      10A    -11.217933    11A     -1.372875    12A     -1.307552
      13A     -1.226611    14A     -1.087005    15A     -1.011400
      16A     -0.942627    17A     -0.938661    18A     -0.818774
      19A     -0.788254    20A     -0.761041    21A     -0.726014
      22A     -0.648842    23A     -0.641254    24A     -0.635260
      25A     -0.617099    26A     -0.595588    27A     -0.582443
      28A     -0.569231    29A     -0.550470    30A     -0.547783
      31A     -0.537908    32A     -0.534622    33A     -0.515472
      34A     -0.428890    35A     -0.394439    36A     -0.348971
      37A     -0.308702

  @DF-RHF Final Energy:  -454.81870035376642

   => Energetics <=

    Nuclear Repulsion Energy =            522.7419726312036801
    One-Electron Energy =               -1655.1041931580093660
    Two-Electron Energy =                 677.5435201730392691
    Total Energy =                       -454.8187003537664168
  Basis Set: (AUG-CC-PVTZ AUX)
    Blend: AUG-CC-PVTZ-RI
    Molecular point group: c1

    Geometry (in Angstrom), charge = 0, multiplicity = 1:

       Center              X                  Y                   Z               Mass
    ------------   -----------------  -----------------  -----------------  -----------------
         O           -1.345551379030     1.403900111873    -0.393290320586    15.994914619570
         N            1.390780620970     0.556938111873     0.082965679414    14.003074004430
         N           -2.030884379030    -0.711153888127     0.142175679414    14.003074004430
         C            0.339511120970    -0.323771888127    -0.053582820586    12.000000000000
         C            0.801243620970    -1.592634888127    -0.133623320586    12.000000000000
         C            2.540373620970    -0.187417888127     0.093954679414    12.000000000000
         C            2.203694620970    -1.525794888127    -0.042056320586    12.000000000000
         C           -1.067872379030     0.228276111873    -0.111007320586    12.000000000000
         C            1.358717620970     2.012364111873     0.191529679414    12.000000000000
         C           -3.430781379030    -0.330046888127     0.178213679414    12.000000000000
         H            0.205130620970    -2.482647888127    -0.295654320586     1.007825032230
         H            3.503986620970     0.293661111873     0.199875679414     1.007825032230
         H            2.900633620970    -2.352877888127    -0.078096320586     1.007825032230
         H            0.681172620970     2.315952111873     0.988865679414     1.007825032230
         H            2.372567620970     2.344763111873     0.420196679414     1.007825032230
         H            1.014986620970     2.456522111873    -0.741637320586     1.007825032230
         H           -1.744883379030    -1.551936888127     0.625862679414     1.007825032230
         H           -4.045741379030    -1.220954888127     0.038664679414     1.007825032230
         H           -3.616017379030     0.371036111873    -0.634973320586     1.007825032230
         H           -3.706030379030     0.156448111873     1.120866679414     1.007825032230

  Basis Set: AUG-CC-PVTZ
    Blend: AUG-CC-PVTZ
  Basis Set: (AUG-CC-PVTZ AUX)
    Blend: AUG-CC-PVTZ-JKFIT
	 Reference Energy          =    -454.8187003537664168 [Eh]
	 Singles Energy            =      -0.0000000000000000 [Eh]
	 Same-Spin Energy          =      -0.4844095242715074 [Eh]
	 Opposite-Spin Energy      =      -1.5157233721842831 [Eh]
	 Correlation Energy        =      -2.0001328964557903 [Eh]
	 Total Energy              =    -456.8188332502222124 [Eh]

	 ================> DF-SCS-MP2 Energies <==================
	-----------------------------------------------------------
	 SCS Same-Spin Scale       =       0.3333333333333333 [-]
	 SCS Opposite-Spin Scale   =       1.2000000000000000 [-]
	 SCS Same-Spin Energy      =      -0.1614698414238358 [Eh]
	 SCS Opposite-Spin Energy  =      -1.8188680466211395 [Eh]
	 SCS Correlation Energy    =      -1.9803378880449753 [Eh]
	 SCS Total Energy          =    -456.7990382418113882 [Eh]
	-----------------------------------------------------------

  Dipole Moment: [D]
     X:     0.1101      Y:    -1.1643      Z:     1.3472     Total:     1.7840

*** Psi4 exiting successfully. Buy a developer a beer!
