                               Psi4 1.4a3.dev225

  ==> Input File <==

--------------------------------------------------------------------------
#psi4
#
memory 32 gb

molecule  {
0 1
  O       -1.3267430     1.3986080    -0.4043610
  N        1.4095890     0.5516460     0.0718950
  N       -2.0120760    -0.7164460     0.1311050
  C        0.3280180    -0.2917100    -0.0638180
  C        0.8200520    -1.5979270    -0.1446940
  C        2.5591820    -0.1927100     0.0828840
  C        2.2225030    -1.5310870    -0.0531270
  C       -1.0303445     0.2159874    -0.1212860
  C        1.3775260     2.0070720     0.1804590
  C       -3.4119730    -0.3353390     0.1671430
  H        0.2239390    -2.4879400    -0.3067250
  H        3.5227950     0.2883690     0.1888050
  H        2.9194420    -2.3581700    -0.0891670
  H        0.6999810     2.3106600     0.9777950
  H        2.3913760     2.3394710     0.4091260
  H        1.0337950     2.4512300    -0.7527080
  H       -1.7260750    -1.5572290     0.6147920
  H       -4.0269330    -1.2262470     0.0275940
  H       -3.5972090     0.3657440    -0.6460440
  H       -3.6872220     0.1511560     1.1097960
units angstrom
no_reorient  #important for SAPT in psi4, default
symmetry c1  #important for SAPT in psi4, default
}

set PROPERTIES_ORIGIN ["COM"]
properties('MP2/aug-cc-pvtz', properties = ['dipole'])
--------------------------------------------------------------------------

    Molecular point group: c1
  Charge       = 0
  Multiplicity = 1
  Basis Set: AUG-CC-PVTZ
    Blend: AUG-CC-PVTZ
  Basis Set: (AUG-CC-PVTZ AUX)
    Blend: AUG-CC-PVTZ-JKFIT

    Orbital Energies [Eh]
    ---------------------

    Doubly Occupied:

       1A    -20.514183     2A    -15.622466     3A    -15.581652
       4A    -11.354590     5A    -11.269234     6A    -11.263829
       7A    -11.262998     8A    -11.256203     9A    -11.235081
      10A    -11.222145    11A     -1.365427    12A     -1.307817
      13A     -1.220872    14A     -1.083976    15A     -1.019970
      16A     -0.940523    17A     -0.939129    18A     -0.828988
      19A     -0.788474    20A     -0.759115    21A     -0.726000
      22A     -0.651216    23A     -0.641936    24A     -0.632204
      25A     -0.615545    26A     -0.594627    27A     -0.580894
      28A     -0.574107    29A     -0.551470    30A     -0.545999
      31A     -0.537337    32A     -0.532403    33A     -0.511412
      34A     -0.428798    35A     -0.390591    36A     -0.349186
      37A     -0.308410

  @DF-RHF Final Energy:  -454.81795884532676

   => Energetics <=

    Nuclear Repulsion Energy =            522.7986830014946236
    One-Electron Energy =               -1655.2156625281197648
    Two-Electron Energy =                 677.5990206812984979
    Total Energy =                       -454.8179588453267570
  Basis Set: (AUG-CC-PVTZ AUX)
    Blend: AUG-CC-PVTZ-RI
    Molecular point group: c1

    Geometry (in Angstrom), charge = 0, multiplicity = 1:

       Center              X                  Y                   Z               Mass
    ------------   -----------------  -----------------  -----------------  -----------------
         O           -1.344544827093     1.401261854250    -0.393431761035    15.994914619570
         N            1.391787172907     0.554299854250     0.082824238965    14.003074004430
         N           -2.029877827093    -0.713792145750     0.142034238965    14.003074004430
         C            0.310216172907    -0.289056145750    -0.052888761035    12.000000000000
         C            0.802250172907    -1.595273145750    -0.133764761035    12.000000000000
         C            2.541380172907    -0.190056145750     0.093813238965    12.000000000000
         C            2.204701172907    -1.528433145750    -0.042197761035    12.000000000000
         C           -1.048146327093     0.218641254250    -0.110356761035    12.000000000000
         C            1.359724172907     2.009725854250     0.191388238965    12.000000000000
         C           -3.429774827093    -0.332685145750     0.178072238965    12.000000000000
         H            0.206137172907    -2.485286145750    -0.295795761035     1.007825032230
         H            3.504993172907     0.291022854250     0.199734238965     1.007825032230
         H            2.901640172907    -2.355516145750    -0.078237761035     1.007825032230
         H            0.682179172907     2.313313854250     0.988724238965     1.007825032230
         H            2.373574172907     2.342124854250     0.420055238965     1.007825032230
         H            1.015993172907     2.453883854250    -0.741778761035     1.007825032230
         H           -1.743876827093    -1.554575145750     0.625721238965     1.007825032230
         H           -4.044734827093    -1.223593145750     0.038523238965     1.007825032230
         H           -3.615010827093     0.368397854250    -0.635114761035     1.007825032230
         H           -3.705023827093     0.153809854250     1.120725238965     1.007825032230

  Basis Set: AUG-CC-PVTZ
    Blend: AUG-CC-PVTZ
  Basis Set: (AUG-CC-PVTZ AUX)
    Blend: AUG-CC-PVTZ-JKFIT
	 Reference Energy          =    -454.8179588453267570 [Eh]
	 Singles Energy            =      -0.0000000000000000 [Eh]
	 Same-Spin Energy          =      -0.4856996125555639 [Eh]
	 Opposite-Spin Energy      =      -1.5176673198129307 [Eh]
	 Correlation Energy        =      -2.0033669323684946 [Eh]
	 Total Energy              =    -456.8213257776952787 [Eh]

	 ================> DF-SCS-MP2 Energies <==================
	-----------------------------------------------------------
	 SCS Same-Spin Scale       =       0.3333333333333333 [-]
	 SCS Opposite-Spin Scale   =       1.2000000000000000 [-]
	 SCS Same-Spin Energy      =      -0.1618998708518546 [Eh]
	 SCS Opposite-Spin Energy  =      -1.8212007837755166 [Eh]
	 SCS Correlation Energy    =      -1.9831006546273713 [Eh]
	 SCS Total Energy          =    -456.8010594999541354 [Eh]
	-----------------------------------------------------------

  Dipole Moment: [D]
     X:     0.4516      Y:    -1.2246      Z:     1.3605     Total:     1.8853

*** Psi4 exiting successfully. Buy a developer a beer!
