                               Psi4 1.3.2 release

  ==> Input File <==

--------------------------------------------------------------------------
#psi4
#
memory 32 gb

molecule  {
0 1
  O       -1.3267430     1.3986080    -0.4043610
  N        1.4095890     0.5516460     0.0718950
  N       -2.0120760    -0.7164460     0.1311050
  C        0.3280180    -0.2917100    -0.0638180
  C        0.8200520    -1.5979270    -0.1446940
  C        2.5591820    -0.1927100     0.0828840
  C        2.2225030    -1.5310870    -0.0531270
  C       -1.0490640     0.2229840    -0.1220780
  C        1.3775260     2.0070720     0.1804590
  C       -3.4119730    -0.3353390     0.1671430
  H        0.1138928    -2.6522419    -0.3366369
  H        3.5227950     0.2883690     0.1888050
  H        2.9194420    -2.3581700    -0.0891670
  H        0.6999810     2.3106600     0.9777950
  H        2.3913760     2.3394710     0.4091260
  H        1.0337950     2.4512300    -0.7527080
  H       -1.7260750    -1.5572290     0.6147920
  H       -4.0269330    -1.2262470     0.0275940
  H       -3.5972090     0.3657440    -0.6460440
  H       -3.6872220     0.1511560     1.1097960
units angstrom
no_reorient  #important for SAPT in psi4, default
symmetry c1  #important for SAPT in psi4, default
}

set PROPERTIES_ORIGIN ["COM"]
properties('MP2/aug-cc-pvtz', properties = ['dipole'])
--------------------------------------------------------------------------

    Molecular point group: c1
  Charge       = 0
  Multiplicity = 1
  Basis Set: AUG-CC-PVTZ
    Blend: AUG-CC-PVTZ
  Basis Set: (AUG-CC-PVTZ AUX)
    Blend: AUG-CC-PVTZ-JKFIT

    Orbital Energies [Eh]
    ---------------------

    Doubly Occupied:

       1A    -20.516324     2A    -15.622374     3A    -15.582249
       4A    -11.355124     5A    -11.268658     6A    -11.265140
       7A    -11.264269     8A    -11.256821     9A    -11.254032
      10A    -11.222936    11A     -1.372503    12A     -1.308348
      13A     -1.225175    14A     -1.081868    15A     -1.016585
      16A     -0.941621    17A     -0.935041    18A     -0.823780
      19A     -0.780749    20A     -0.762075    21A     -0.714064
      22A     -0.649978    23A     -0.642821    24A     -0.634638
      25A     -0.616477    26A     -0.590248    27A     -0.575111
      28A     -0.570891    29A     -0.547304    30A     -0.546792
      31A     -0.537713    32A     -0.516520    33A     -0.514408
      34A     -0.429998    35A     -0.392805    36A     -0.349352
      37A     -0.308078

  @DF-RHF Final Energy:  -454.79707022214740

   => Energetics <=

    Nuclear Repulsion Energy =            521.8530923632586109
    One-Electron Energy =               -1653.3145889020231607
    Two-Electron Energy =                 676.6644263166172095
    Total Energy =                       -454.7970702221473402
  Basis Set: (AUG-CC-PVTZ AUX)
    Blend: AUG-CC-PVTZ-RI
    Molecular point group: c1

    Geometry (in Angstrom), charge = 0, multiplicity = 1:

       Center              X                  Y                   Z               Mass
    ------------   -----------------  -----------------  -----------------  -----------------
         O           -1.342114764921     1.401853024396    -0.393144607509    15.994914619570
         N            1.394217235079     0.554891024396     0.083111392491    14.003074004430
         N           -2.027447764921    -0.713200975604     0.142321392491    14.003074004430
         C            0.312646235079    -0.288464975604    -0.052601607509    12.000000000000
         C            0.804680235079    -1.594681975604    -0.133477607509    12.000000000000
         C            2.543810235079    -0.189464975604     0.094100392491    12.000000000000
         C            2.207131235079    -1.527841975604    -0.041910607509    12.000000000000
         C           -1.064435764921     0.226229024396    -0.110861607509    12.000000000000
         C            1.362154235079     2.010317024396     0.191675392491    12.000000000000
         C           -3.427344764921    -0.332093975604     0.178359392491    12.000000000000
         H            0.098521035079    -2.648996875604    -0.325420507509     1.007825032230
         H            3.507423235079     0.291614024396     0.200021392491     1.007825032230
         H            2.904070235079    -2.354924975604    -0.077950607509     1.007825032230
         H            0.684609235079     2.313905024396     0.989011392491     1.007825032230
         H            2.376004235079     2.342716024396     0.420342392491     1.007825032230
         H            1.018423235079     2.454475024396    -0.741491607509     1.007825032230
         H           -1.741446764921    -1.553983975604     0.626008392491     1.007825032230
         H           -4.042304764921    -1.223001975604     0.038810392491     1.007825032230
         H           -3.612580764921     0.368989024396    -0.634827607509     1.007825032230
         H           -3.702593764921     0.154401024396     1.121012392491     1.007825032230

  Basis Set: AUG-CC-PVTZ
    Blend: AUG-CC-PVTZ
  Basis Set: (AUG-CC-PVTZ AUX)
    Blend: AUG-CC-PVTZ-JKFIT
	 Reference Energy          =    -454.7970702221473971 [Eh]
	 Singles Energy            =      -0.0000000000000000 [Eh]
	 Same-Spin Energy          =      -0.4857652830185658 [Eh]
	 Opposite-Spin Energy      =      -1.5191176634491561 [Eh]
	 Correlation Energy        =      -2.0048829464677218 [Eh]
	 Total Energy              =    -456.8019531686151140 [Eh]

	 ================> DF-SCS-MP2 Energies <==================
	-----------------------------------------------------------
	 SCS Same-Spin Scale       =       0.3333333333333333 [-]
	 SCS Opposite-Spin Scale   =       1.2000000000000000 [-]
	 SCS Same-Spin Energy      =      -0.1619217610061886 [Eh]
	 SCS Opposite-Spin Energy  =      -1.8229411961389872 [Eh]
	 SCS Correlation Energy    =      -1.9848629571451757 [Eh]
	 SCS Total Energy          =    -456.7819331792925936 [Eh]
	-----------------------------------------------------------

  Dipole Moment: [D]
     X:     0.3385      Y:    -1.1369      Z:     1.3590     Total:     1.8039

*** Psi4 exiting successfully. Buy a developer a beer!
