                               Psi4 1.3.2 release

  ==> Input File <==

--------------------------------------------------------------------------
#psi4
#
memory 32 gb

molecule  {
0 1
  O       -1.3267430     1.3986080    -0.4043610
  N        1.4095890     0.5516460     0.0718950
  N       -2.0120760    -0.7164460     0.1311050
  C        0.2990342    -0.2533285    -0.0628171
  C        0.8200520    -1.5979270    -0.1446940
  C        2.5591820    -0.1927100     0.0828840
  C        2.2225030    -1.5310870    -0.0531270
  C       -1.0490640     0.2229840    -0.1220780
  C        1.3775260     2.0070720     0.1804590
  C       -3.4119730    -0.3353390     0.1671430
  H        0.2239390    -2.4879400    -0.3067250
  H        3.5227950     0.2883690     0.1888050
  H        2.9194420    -2.3581700    -0.0891670
  H        0.6999810     2.3106600     0.9777950
  H        2.3913760     2.3394710     0.4091260
  H        1.0337950     2.4512300    -0.7527080
  H       -1.7260750    -1.5572290     0.6147920
  H       -4.0269330    -1.2262470     0.0275940
  H       -3.5972090     0.3657440    -0.6460440
  H       -3.6872220     0.1511560     1.1097960
units angstrom
no_reorient  #important for SAPT in psi4, default
symmetry c1  #important for SAPT in psi4, default
}

set PROPERTIES_ORIGIN ["COM"]
properties('MP2/aug-cc-pvtz', properties = ['dipole'])
--------------------------------------------------------------------------

    Molecular point group: c1
  Charge       = 0
  Multiplicity = 1
  Basis Set: AUG-CC-PVTZ
    Blend: AUG-CC-PVTZ
  Basis Set: (AUG-CC-PVTZ AUX)
    Blend: AUG-CC-PVTZ-JKFIT

    Orbital Energies [Eh]
    ---------------------

    Doubly Occupied:

       1A    -20.512594     2A    -15.625487     3A    -15.581283
       4A    -11.350448     5A    -11.270118     6A    -11.263415
       7A    -11.263099     8A    -11.256264     9A    -11.239160
      10A    -11.223503    11A     -1.371672    12A     -1.306422
      13A     -1.224362    14A     -1.079072    15A     -1.020954
      16A     -0.940888    17A     -0.937219    18A     -0.832508
      19A     -0.786020    20A     -0.762164    21A     -0.723783
      22A     -0.654108    23A     -0.643077    24A     -0.634308
      25A     -0.616672    26A     -0.593238    27A     -0.579221
      28A     -0.575627    29A     -0.550767    30A     -0.546118
      31A     -0.537499    32A     -0.528163    33A     -0.511903
      34A     -0.429179    35A     -0.392021    36A     -0.348032
      37A     -0.304003

  @DF-RHF Final Energy:  -454.81450775598222

   => Energetics <=

    Nuclear Repulsion Energy =            522.8247551744112798
    One-Electron Energy =               -1655.2497863025778315
    Two-Electron Energy =                 677.6105233721843888
    Total Energy =                       -454.8145077559822766
  Basis Set: (AUG-CC-PVTZ AUX)
    Blend: AUG-CC-PVTZ-RI
    Molecular point group: c1

    Geometry (in Angstrom), charge = 0, multiplicity = 1:

       Center              X                  Y                   Z               Mass
    ------------   -----------------  -----------------  -----------------  -----------------
         O           -1.340399096731     1.397318199053    -0.393449915818    15.994914619570
         N            1.395932903269     0.550356199053     0.082806084182    14.003074004430
         N           -2.025732096731    -0.717735800947     0.142016084182    14.003074004430
         C            0.285378103269    -0.254618300947    -0.051906015818    12.000000000000
         C            0.806395903269    -1.599216800947    -0.133782915818    12.000000000000
         C            2.545525903269    -0.193999800947     0.093795084182    12.000000000000
         C            2.208846903269    -1.532376800947    -0.042215915818    12.000000000000
         C           -1.062720096731     0.221694199053    -0.111166915818    12.000000000000
         C            1.363869903269     2.005782199053     0.191370084182    12.000000000000
         C           -3.425629096731    -0.336628800947     0.178054084182    12.000000000000
         H            0.210282903269    -2.489229800947    -0.295813915818     1.007825032230
         H            3.509138903269     0.287079199053     0.199716084182     1.007825032230
         H            2.905785903269    -2.359459800947    -0.078255915818     1.007825032230
         H            0.686324903269     2.309370199053     0.988706084182     1.007825032230
         H            2.377719903269     2.338181199053     0.420037084182     1.007825032230
         H            1.020138903269     2.449940199053    -0.741796915818     1.007825032230
         H           -1.739731096731    -1.558518800947     0.625703084182     1.007825032230
         H           -4.040589096731    -1.227536800947     0.038505084182     1.007825032230
         H           -3.610865096731     0.364454199053    -0.635132915818     1.007825032230
         H           -3.700878096731     0.149866199053     1.120707084182     1.007825032230

  Basis Set: AUG-CC-PVTZ
    Blend: AUG-CC-PVTZ
  Basis Set: (AUG-CC-PVTZ AUX)
    Blend: AUG-CC-PVTZ-JKFIT
	 Reference Energy          =    -454.8145077559822198 [Eh]
	 Singles Energy            =      -0.0000000000000000 [Eh]
	 Same-Spin Energy          =      -0.4862586057451902 [Eh]
	 Opposite-Spin Energy      =      -1.5183723674452803 [Eh]
	 Correlation Energy        =      -2.0046309731904706 [Eh]
	 Total Energy              =    -456.8191387291726642 [Eh]

	 ================> DF-SCS-MP2 Energies <==================
	-----------------------------------------------------------
	 SCS Same-Spin Scale       =       0.3333333333333333 [-]
	 SCS Opposite-Spin Scale   =       1.2000000000000000 [-]
	 SCS Same-Spin Energy      =      -0.1620862019150634 [Eh]
	 SCS Opposite-Spin Energy  =      -1.8220468409343362 [Eh]
	 SCS Correlation Energy    =      -1.9841330428493995 [Eh]
	 SCS Total Energy          =    -456.7986407988316273 [Eh]
	-----------------------------------------------------------

  Dipole Moment: [D]
     X:     0.4626      Y:    -1.2064      Z:     1.3678     Total:     1.8816

*** Psi4 exiting successfully. Buy a developer a beer!
