                               Psi4 1.4a3.dev225

  ==> Input File <==

--------------------------------------------------------------------------
#psi4
#
memory 32 gb

molecule  {
0 1
  O       -1.3267430     1.3986080    -0.4043610
  N        1.4095890     0.5516460     0.0718950
  N       -2.0120760    -0.7164460     0.1311050
  C        0.3280180    -0.2917100    -0.0638180
  C        0.8200520    -1.5979270    -0.1446940
  C        2.5591820    -0.1927100     0.0828840
  C        2.2225030    -1.5310870    -0.0531270
  C       -1.0490640     0.2229840    -0.1220780
  C        1.3775260     2.0070720     0.1804590
  C       -3.4119730    -0.3353390     0.1671430
  H        0.1964275    -2.5290155    -0.3142030
  H        3.5227950     0.2883690     0.1888050
  H        2.9194420    -2.3581700    -0.0891670
  H        0.6999810     2.3106600     0.9777950
  H        2.3913760     2.3394710     0.4091260
  H        1.0337950     2.4512300    -0.7527080
  H       -1.7260750    -1.5572290     0.6147920
  H       -4.0269330    -1.2262470     0.0275940
  H       -3.5972090     0.3657440    -0.6460440
  H       -3.6872220     0.1511560     1.1097960
units angstrom
no_reorient  #important for SAPT in psi4, default
symmetry c1  #important for SAPT in psi4, default
}

set PROPERTIES_ORIGIN ["COM"]
properties('MP2/aug-cc-pvtz', properties = ['dipole'])
--------------------------------------------------------------------------

    Molecular point group: c1
  Charge       = 0
  Multiplicity = 1
  Basis Set: AUG-CC-PVTZ
    Blend: AUG-CC-PVTZ
  Basis Set: (AUG-CC-PVTZ AUX)
    Blend: AUG-CC-PVTZ-JKFIT

    Orbital Energies [Eh]
    ---------------------

    Doubly Occupied:

       1A    -20.516199     2A    -15.621204     3A    -15.582778
       4A    -11.354945     5A    -11.267381     6A    -11.263533
       7A    -11.263390     8A    -11.257101     9A    -11.238409
      10A    -11.221084    11A     -1.372374    12A     -1.307129
      13A     -1.225543    14A     -1.082022    15A     -1.016129
      16A     -0.941477    17A     -0.937002    18A     -0.824727
      19A     -0.784711    20A     -0.762011    21A     -0.721709
      22A     -0.650623    23A     -0.642271    24A     -0.634779
      25A     -0.616779    26A     -0.592126    27A     -0.577586
      28A     -0.573982    29A     -0.549457    30A     -0.547165
      31A     -0.537403    32A     -0.530300    33A     -0.513806
      34A     -0.429745    35A     -0.393232    36A     -0.348113
      37A     -0.306974

  @DF-RHF Final Energy:  -454.81735550675404

   => Energetics <=

    Nuclear Repulsion Energy =            522.5149320947334672
    One-Electron Energy =               -1654.6541790496260091
    Two-Electron Energy =                 677.3218914481385582
    Total Energy =                       -454.8173555067539837
  Basis Set: (AUG-CC-PVTZ AUX)
    Blend: AUG-CC-PVTZ-RI
    Molecular point group: c1

    Geometry (in Angstrom), charge = 0, multiplicity = 1:

       Center              X                  Y                   Z               Mass
    ------------   -----------------  -----------------  -----------------  -----------------
         O           -1.342717176209     1.400953609068    -0.393308349966    15.994914619570
         N            1.393614823791     0.553991609068     0.082947650034    14.003074004430
         N           -2.028050176209    -0.714100390932     0.142157650034    14.003074004430
         C            0.312043823791    -0.289364390932    -0.052765349966    12.000000000000
         C            0.804077823791    -1.595581390932    -0.133641349966    12.000000000000
         C            2.543207823791    -0.190364390932     0.093936650034    12.000000000000
         C            2.206528823791    -1.528741390932    -0.042074349966    12.000000000000
         C           -1.065038176209     0.225329609068    -0.111025349966    12.000000000000
         C            1.361551823791     2.009417609068     0.191511650034    12.000000000000
         C           -3.427947176209    -0.332993390932     0.178195650034    12.000000000000
         H            0.180453323791    -2.526669890932    -0.303150349966     1.007825032230
         H            3.506820823791     0.290714609068     0.199857650034     1.007825032230
         H            2.903467823791    -2.355824390932    -0.078114349966     1.007825032230
         H            0.684006823791     2.313005609068     0.988847650034     1.007825032230
         H            2.375401823791     2.341816609068     0.420178650034     1.007825032230
         H            1.017820823791     2.453575609068    -0.741655349966     1.007825032230
         H           -1.742049176209    -1.554883390932     0.625844650034     1.007825032230
         H           -4.042907176209    -1.223901390932     0.038646650034     1.007825032230
         H           -3.613183176209     0.368089609068    -0.634991349966     1.007825032230
         H           -3.703196176209     0.153501609068     1.120848650034     1.007825032230

  Basis Set: AUG-CC-PVTZ
    Blend: AUG-CC-PVTZ
  Basis Set: (AUG-CC-PVTZ AUX)
    Blend: AUG-CC-PVTZ-JKFIT
	 Reference Energy          =    -454.8173555067540406 [Eh]
	 Singles Energy            =      -0.0000000000000000 [Eh]
	 Same-Spin Energy          =      -0.4853621299395980 [Eh]
	 Opposite-Spin Energy      =      -1.5172954606670315 [Eh]
	 Correlation Energy        =      -2.0026575906066295 [Eh]
	 Total Energy              =    -456.8200130973606861 [Eh]

	 ================> DF-SCS-MP2 Energies <==================
	-----------------------------------------------------------
	 SCS Same-Spin Scale       =       0.3333333333333333 [-]
	 SCS Opposite-Spin Scale   =       1.2000000000000000 [-]
	 SCS Same-Spin Energy      =      -0.1617873766465327 [Eh]
	 SCS Opposite-Spin Energy  =      -1.8207545528004376 [Eh]
	 SCS Correlation Energy    =      -1.9825419294469704 [Eh]
	 SCS Total Energy          =    -456.7998974362010358 [Eh]
	-----------------------------------------------------------

  Dipole Moment: [D]
     X:     0.2957      Y:    -1.1753      Z:     1.3576     Total:     1.8198

*** Psi4 exiting successfully. Buy a developer a beer!
