                               Psi4 1.4a3.dev225

  ==> Input File <==

--------------------------------------------------------------------------
#psi4
#
memory 32 gb

molecule  {
0 1
  O       -1.3267430     1.3986080    -0.4043610
  N        1.4095890     0.5516460     0.0718950
  N       -2.0120760    -0.7164460     0.1311050
  C        0.3280180    -0.2917100    -0.0638180
  C        0.8200520    -1.5979270    -0.1446940
  C        2.5591820    -0.1927100     0.0828840
  C        2.2225030    -1.5310870    -0.0531270
  C       -1.0677835     0.2299806    -0.1228700
  C        1.3775260     2.0070720     0.1804590
  C       -3.4119730    -0.3353390     0.1671430
  H        0.2239390    -2.4879400    -0.3067250
  H        3.5227950     0.2883690     0.1888050
  H        2.9194420    -2.3581700    -0.0891670
  H        0.6999810     2.3106600     0.9777950
  H        2.3913760     2.3394710     0.4091260
  H        1.0337950     2.4512300    -0.7527080
  H       -1.7260750    -1.5572290     0.6147920
  H       -4.0269330    -1.2262470     0.0275940
  H       -3.5972090     0.3657440    -0.6460440
  H       -3.6872220     0.1511560     1.1097960
units angstrom
no_reorient  #important for SAPT in psi4, default
symmetry c1  #important for SAPT in psi4, default
}

set PROPERTIES_ORIGIN ["COM"]
properties('MP2/aug-cc-pvtz', properties = ['dipole'])
--------------------------------------------------------------------------

    Molecular point group: c1
  Charge       = 0
  Multiplicity = 1
  Basis Set: AUG-CC-PVTZ
    Blend: AUG-CC-PVTZ
  Basis Set: (AUG-CC-PVTZ AUX)
    Blend: AUG-CC-PVTZ-JKFIT

    Orbital Energies [Eh]
    ---------------------

    Doubly Occupied:

       1A    -20.518167     2A    -15.619359     3A    -15.584230
       4A    -11.355231     5A    -11.264898     6A    -11.262858
       7A    -11.262706     8A    -11.258165     9A    -11.230442
      10A    -11.219048    11A     -1.379484    12A     -1.305636
      13A     -1.230453    14A     -1.080834    15A     -1.012434
      16A     -0.942452    17A     -0.937068    18A     -0.822177
      19A     -0.785600    20A     -0.764484    21A     -0.723739
      22A     -0.650964    23A     -0.643366    24A     -0.636888
      25A     -0.618320    26A     -0.593025    27A     -0.578318
      28A     -0.574132    29A     -0.550515    30A     -0.547690
      31A     -0.538092    32A     -0.532069    33A     -0.515430
      34A     -0.430132    35A     -0.396117    36A     -0.346469
      37A     -0.304960

  @DF-RHF Final Energy:  -454.82072204637370

   => Energetics <=

    Nuclear Repulsion Energy =            522.7261184962774223
    One-Electron Energy =               -1655.0617710446369983
    Two-Electron Energy =                 677.5149305019858730
    Total Energy =                       -454.8207220463737031
  Basis Set: (AUG-CC-PVTZ AUX)
    Blend: AUG-CC-PVTZ-RI
    Molecular point group: c1

    Geometry (in Angstrom), charge = 0, multiplicity = 1:

       Center              X                  Y                   Z               Mass
    ------------   -----------------  -----------------  -----------------  -----------------
         O           -1.341291131876     1.400045753181    -0.393294101022    15.994914619570
         N            1.395040868124     0.553083753181     0.082961898978    14.003074004430
         N           -2.026624131876    -0.715008246819     0.142171898978    14.003074004430
         C            0.313469868124    -0.290272246819    -0.052751101022    12.000000000000
         C            0.805503868124    -1.596489246819    -0.133627101022    12.000000000000
         C            2.544633868124    -0.191272246819     0.093950898978    12.000000000000
         C            2.207954868124    -1.529649246819    -0.042060101022    12.000000000000
         C           -1.082331631876     0.231418353181    -0.111803101022    12.000000000000
         C            1.362977868124     2.008509753181     0.191525898978    12.000000000000
         C           -3.426521131876    -0.333901246819     0.178209898978    12.000000000000
         H            0.209390868124    -2.486502246819    -0.295658101022     1.007825032230
         H            3.508246868124     0.289806753181     0.199871898978     1.007825032230
         H            2.904893868124    -2.356732246819    -0.078100101022     1.007825032230
         H            0.685432868124     2.312097753181     0.988861898978     1.007825032230
         H            2.376827868124     2.340908753181     0.420192898978     1.007825032230
         H            1.019246868124     2.452667753181    -0.741641101022     1.007825032230
         H           -1.740623131876    -1.555791246819     0.625858898978     1.007825032230
         H           -4.041481131876    -1.224809246819     0.038660898978     1.007825032230
         H           -3.611757131876     0.367181753181    -0.634977101022     1.007825032230
         H           -3.701770131876     0.152593753181     1.120862898978     1.007825032230

  Basis Set: AUG-CC-PVTZ
    Blend: AUG-CC-PVTZ
  Basis Set: (AUG-CC-PVTZ AUX)
    Blend: AUG-CC-PVTZ-JKFIT
	 Reference Energy          =    -454.8207220463737031 [Eh]
	 Singles Energy            =      -0.0000000000000000 [Eh]
	 Same-Spin Energy          =      -0.4848452418111668 [Eh]
	 Opposite-Spin Energy      =      -1.5161231946222333 [Eh]
	 Correlation Energy        =      -2.0009684364333999 [Eh]
	 Total Energy              =    -456.8216904828071279 [Eh]

	 ================> DF-SCS-MP2 Energies <==================
	-----------------------------------------------------------
	 SCS Same-Spin Scale       =       0.3333333333333333 [-]
	 SCS Opposite-Spin Scale   =       1.2000000000000000 [-]
	 SCS Same-Spin Energy      =      -0.1616150806037223 [Eh]
	 SCS Opposite-Spin Energy  =      -1.8193478335466799 [Eh]
	 SCS Correlation Energy    =      -1.9809629141504022 [Eh]
	 SCS Total Energy          =    -456.8016849605240850 [Eh]
	-----------------------------------------------------------

  Dipole Moment: [D]
     X:     0.1177      Y:    -1.1404      Z:     1.3549     Total:     1.7748

*** Psi4 exiting successfully. Buy a developer a beer!
