                               Psi4 1.3.2 release

  ==> Input File <==

--------------------------------------------------------------------------
#psi4
#
memory 32 gb

molecule  {
0 1
  O       -1.3267430     1.3986080    -0.4043610
  N        1.4095890     0.5516460     0.0718950
  N       -2.0120760    -0.7164460     0.1311050
  C        0.3899418    -0.3652960    -0.0659461
  C        0.8200520    -1.5979270    -0.1446940
  C        2.5591820    -0.1927100     0.0828840
  C        2.2225030    -1.5310870    -0.0531270
  C       -1.0490640     0.2229840    -0.1220780
  C        1.3775260     2.0070720     0.1804590
  C       -3.4119730    -0.3353390     0.1671430
  H        0.2239390    -2.4879400    -0.3067250
  H        3.5227950     0.2883690     0.1888050
  H        2.9194420    -2.3581700    -0.0891670
  H        0.6999810     2.3106600     0.9777950
  H        2.3913760     2.3394710     0.4091260
  H        1.0337950     2.4512300    -0.7527080
  H       -1.7260750    -1.5572290     0.6147920
  H       -4.0269330    -1.2262470     0.0275940
  H       -3.5972090     0.3657440    -0.6460440
  H       -3.6872220     0.1511560     1.1097960
units angstrom
no_reorient  #important for SAPT in psi4, default
symmetry c1  #important for SAPT in psi4, default
}

set PROPERTIES_ORIGIN ["COM"]
properties('MP2/aug-cc-pvtz', properties = ['dipole'])
--------------------------------------------------------------------------

    Molecular point group: c1
  Charge       = 0
  Multiplicity = 1
  Basis Set: AUG-CC-PVTZ
    Blend: AUG-CC-PVTZ
  Basis Set: (AUG-CC-PVTZ AUX)
    Blend: AUG-CC-PVTZ-JKFIT

    Orbital Energies [Eh]
    ---------------------

    Doubly Occupied:

       1A    -20.521736     2A    -15.612345     3A    -15.585318
       4A    -11.361227     5A    -11.264042     6A    -11.262096
       7A    -11.261232     8A    -11.258395     9A    -11.219428
      10A    -11.215644    11A     -1.373111    12A     -1.308730
      13A     -1.227149    14A     -1.092962    15A     -1.007037
      16A     -0.944287    17A     -0.938716    18A     -0.812862
      19A     -0.789741    20A     -0.759162    21A     -0.727237
      22A     -0.647341    23A     -0.640511    24A     -0.635334
      25A     -0.617089    26A     -0.599178    27A     -0.584451
      28A     -0.563524    29A     -0.550346    30A     -0.547871
      31A     -0.538805    32A     -0.535392    33A     -0.517280
      34A     -0.426576    35A     -0.395188    36A     -0.351695
      37A     -0.309871

  @DF-RHF Final Energy:  -454.81043767701919

   => Energetics <=

    Nuclear Repulsion Energy =            522.7743029580997245
    One-Electron Energy =               -1655.1636579929886466
    Two-Electron Energy =                 677.5789173578697273
    Total Energy =                       -454.8104376770191948
  Basis Set: (AUG-CC-PVTZ AUX)
    Blend: AUG-CC-PVTZ-RI
    Molecular point group: c1

    Geometry (in Angstrom), charge = 0, multiplicity = 1:

       Center              X                  Y                   Z               Mass
    ------------   -----------------  -----------------  -----------------  -----------------
         O           -1.348299564779     1.407048910854    -0.393177985149    15.994914619570
         N            1.388032435221     0.560086910854     0.083078014851    14.003074004430
         N           -2.033632564779    -0.708005089146     0.142288014851    14.003074004430
         C            0.368385235221    -0.356855089146    -0.054763085149    12.000000000000
         C            0.798495435221    -1.589486089146    -0.133510985149    12.000000000000
         C            2.537625435221    -0.184269089146     0.094067014851    12.000000000000
         C            2.200946435221    -1.522646089146    -0.041943985149    12.000000000000
         C           -1.070620564779     0.231424910854    -0.110894985149    12.000000000000
         C            1.355969435221     2.015512910854     0.191642014851    12.000000000000
         C           -3.433529564779    -0.326898089146     0.178326014851    12.000000000000
         H            0.202382435221    -2.479499089146    -0.295541985149     1.007825032230
         H            3.501238435221     0.296809910854     0.199988014851     1.007825032230
         H            2.897885435221    -2.349729089146    -0.077983985149     1.007825032230
         H            0.678424435221     2.319100910854     0.988978014851     1.007825032230
         H            2.369819435221     2.347911910854     0.420309014851     1.007825032230
         H            1.012238435221     2.459670910854    -0.741524985149     1.007825032230
         H           -1.747631564779    -1.548788089146     0.625975014851     1.007825032230
         H           -4.048489564779    -1.217806089146     0.038777014851     1.007825032230
         H           -3.618765564779     0.374184910854    -0.634860985149     1.007825032230
         H           -3.708778564779     0.159596910854     1.120979014851     1.007825032230

  Basis Set: AUG-CC-PVTZ
    Blend: AUG-CC-PVTZ
  Basis Set: (AUG-CC-PVTZ AUX)
    Blend: AUG-CC-PVTZ-JKFIT
	 Reference Energy          =    -454.8104376770191948 [Eh]
	 Singles Energy            =      -0.0000000000000000 [Eh]
	 Same-Spin Energy          =      -0.4837548449096258 [Eh]
	 Opposite-Spin Energy      =      -1.5149855922107278 [Eh]
	 Correlation Energy        =      -1.9987404371203537 [Eh]
	 Total Energy              =    -456.8091781141395700 [Eh]

	 ================> DF-SCS-MP2 Energies <==================
	-----------------------------------------------------------
	 SCS Same-Spin Scale       =       0.3333333333333333 [-]
	 SCS Opposite-Spin Scale   =       1.2000000000000000 [-]
	 SCS Same-Spin Energy      =      -0.1612516149698753 [Eh]
	 SCS Opposite-Spin Energy  =      -1.8179827106528732 [Eh]
	 SCS Correlation Energy    =      -1.9792343256227485 [Eh]
	 SCS Total Energy          =    -456.7896720026419644 [Eh]
	-----------------------------------------------------------

  Dipole Moment: [D]
     X:    -0.0515      Y:    -1.1536      Z:     1.3362     Total:     1.7660

*** Psi4 exiting successfully. Buy a developer a beer!
