                               Psi4 1.3.2 release

  ==> Input File <==

--------------------------------------------------------------------------
#psi4
#
memory 32 gb

molecule  {
0 1
  O       -1.3267430     1.3986080    -0.4043610
  N        1.4095890     0.5516460     0.0718950
  N       -2.0120760    -0.7164460     0.1311050
  C        0.2495415    -0.3529021    -0.0736650
  C        0.8200520    -1.5979270    -0.1446940
  C        2.5591820    -0.1927100     0.0828840
  C        2.2225030    -1.5310870    -0.0531270
  C       -1.0490640     0.2229840    -0.1220780
  C        1.3775260     2.0070720     0.1804590
  C       -3.4119730    -0.3353390     0.1671430
  H        0.2239390    -2.4879400    -0.3067250
  H        3.5227950     0.2883690     0.1888050
  H        2.9194420    -2.3581700    -0.0891670
  H        0.6999810     2.3106600     0.9777950
  H        2.3913760     2.3394710     0.4091260
  H        1.0337950     2.4512300    -0.7527080
  H       -1.7260750    -1.5572290     0.6147920
  H       -4.0269330    -1.2262470     0.0275940
  H       -3.5972090     0.3657440    -0.6460440
  H       -3.6872220     0.1511560     1.1097960
units angstrom
no_reorient  #important for SAPT in psi4, default
symmetry c1  #important for SAPT in psi4, default
}

set PROPERTIES_ORIGIN ["COM"]
properties('MP2/aug-cc-pvtz', properties = ['dipole'])
--------------------------------------------------------------------------

    Molecular point group: c1
  Charge       = 0
  Multiplicity = 1
  Basis Set: AUG-CC-PVTZ
    Blend: AUG-CC-PVTZ
  Basis Set: (AUG-CC-PVTZ AUX)
    Blend: AUG-CC-PVTZ-JKFIT

    Orbital Energies [Eh]
    ---------------------

    Doubly Occupied:

       1A    -20.515457     2A    -15.615849     3A    -15.579867
       4A    -11.351307     5A    -11.276635     6A    -11.262712
       7A    -11.259015     8A    -11.255205     9A    -11.241132
      10A    -11.220670    11A     -1.371312    12A     -1.285489
      13A     -1.225932    14A     -1.083925    15A     -1.023462
      16A     -0.942806    17A     -0.928021    18A     -0.835075
      19A     -0.781485    20A     -0.762754    21A     -0.721859
      22A     -0.651795    23A     -0.639331    24A     -0.631998
      25A     -0.613356    26A     -0.592207    27A     -0.582301
      28A     -0.567252    29A     -0.555110    30A     -0.545842
      31A     -0.537143    32A     -0.523103    33A     -0.508726
      34A     -0.431926    35A     -0.392943    36A     -0.349841
      37A     -0.310080

  @DF-RHF Final Energy:  -454.80651308114199

   => Energetics <=

    Nuclear Repulsion Energy =            522.2296555444974047
    One-Electron Energy =               -1654.1264896985780979
    Two-Electron Energy =                 677.0903210729388775
    Total Energy =                       -454.8065130811419294
  Basis Set: (AUG-CC-PVTZ AUX)
    Blend: AUG-CC-PVTZ-RI
    Molecular point group: c1

    Geometry (in Angstrom), charge = 0, multiplicity = 1:

       Center              X                  Y                   Z               Mass
    ------------   -----------------  -----------------  -----------------  -----------------
         O           -1.336097855746     1.405971799469    -0.392507161996    15.994914619570
         N            1.400234144254     0.559009799469     0.083748838004    14.003074004430
         N           -2.021430855746    -0.709082200531     0.142958838004    14.003074004430
         C            0.240186644254    -0.345538300531    -0.061811161996    12.000000000000
         C            0.810697144254    -1.590563200531    -0.132840161996    12.000000000000
         C            2.549827144254    -0.185346200531     0.094737838004    12.000000000000
         C            2.213148144254    -1.523723200531    -0.041273161996    12.000000000000
         C           -1.058418855746     0.230347799469    -0.110224161996    12.000000000000
         C            1.368171144254     2.014435799469     0.192312838004    12.000000000000
         C           -3.421327855746    -0.327975200531     0.178996838004    12.000000000000
         H            0.214584144254    -2.480576200531    -0.294871161996     1.007825032230
         H            3.513440144254     0.295732799469     0.200658838004     1.007825032230
         H            2.910087144254    -2.350806200531    -0.077313161996     1.007825032230
         H            0.690626144254     2.318023799469     0.989648838004     1.007825032230
         H            2.382021144254     2.346834799469     0.420979838004     1.007825032230
         H            1.024440144254     2.458593799469    -0.740854161996     1.007825032230
         H           -1.735429855746    -1.549865200531     0.626645838004     1.007825032230
         H           -4.036287855746    -1.218883200531     0.039447838004     1.007825032230
         H           -3.606563855746     0.373107799469    -0.634190161996     1.007825032230
         H           -3.696576855746     0.158519799469     1.121649838004     1.007825032230

  Basis Set: AUG-CC-PVTZ
    Blend: AUG-CC-PVTZ
  Basis Set: (AUG-CC-PVTZ AUX)
    Blend: AUG-CC-PVTZ-JKFIT
	 Reference Energy          =    -454.8065130811419863 [Eh]
	 Singles Energy            =      -0.0000000000000000 [Eh]
	 Same-Spin Energy          =      -0.4857706379966821 [Eh]
	 Opposite-Spin Energy      =      -1.5186016865693812 [Eh]
	 Correlation Energy        =      -2.0043723245660634 [Eh]
	 Total Energy              =    -456.8108854057080634 [Eh]

	 ================> DF-SCS-MP2 Energies <==================
	-----------------------------------------------------------
	 SCS Same-Spin Scale       =       0.3333333333333333 [-]
	 SCS Opposite-Spin Scale   =       1.2000000000000000 [-]
	 SCS Same-Spin Energy      =      -0.1619235459988940 [Eh]
	 SCS Opposite-Spin Energy  =      -1.8223220238832574 [Eh]
	 SCS Correlation Energy    =      -1.9842455698821513 [Eh]
	 SCS Total Energy          =    -456.7907586510241345 [Eh]
	-----------------------------------------------------------

  Dipole Moment: [D]
     X:     0.4029      Y:    -1.3227      Z:     1.3406     Total:     1.9259

*** Psi4 exiting successfully. Buy a developer a beer!
