                               Psi4 1.3.2 release

  ==> Input File <==

--------------------------------------------------------------------------
#psi4
#
memory 32 gb

molecule  {
0 1
  O       -1.3267430     1.3986080    -0.4043610
  N        1.4095890     0.5516460     0.0718950
  N       -2.0120760    -0.7164460     0.1311050
  C        0.3133491    -0.2726570    -0.0631822
  C        0.8200520    -1.5979270    -0.1446940
  C        2.5591820    -0.1927100     0.0828840
  C        2.2225030    -1.5310870    -0.0531270
  C       -1.0490640     0.2229840    -0.1220780
  C        1.3775260     2.0070720     0.1804590
  C       -3.4119730    -0.3353390     0.1671430
  H        0.2239390    -2.4879400    -0.3067250
  H        3.5227950     0.2883690     0.1888050
  H        2.9194420    -2.3581700    -0.0891670
  H        0.6999810     2.3106600     0.9777950
  H        2.3913760     2.3394710     0.4091260
  H        1.0337950     2.4512300    -0.7527080
  H       -1.7260750    -1.5572290     0.6147920
  H       -4.0269330    -1.2262470     0.0275940
  H       -3.5972090     0.3657440    -0.6460440
  H       -3.6872220     0.1511560     1.1097960
units angstrom
no_reorient  #important for SAPT in psi4, default
symmetry c1  #important for SAPT in psi4, default
}

set PROPERTIES_ORIGIN ["COM"]
properties('MP2/aug-cc-pvtz', properties = ['dipole'])
--------------------------------------------------------------------------

    Molecular point group: c1
  Charge       = 0
  Multiplicity = 1
  Basis Set: AUG-CC-PVTZ
    Blend: AUG-CC-PVTZ
  Basis Set: (AUG-CC-PVTZ AUX)
    Blend: AUG-CC-PVTZ-JKFIT

    Orbital Energies [Eh]
    ---------------------

    Doubly Occupied:

       1A    -20.514457     2A    -15.623178     3A    -15.582155
       4A    -11.352784     5A    -11.268523     6A    -11.263224
       7A    -11.263206     8A    -11.256755     9A    -11.235983
      10A    -11.222010    11A     -1.372037    12A     -1.306574
      13A     -1.225064    14A     -1.080571    15A     -1.018512
      16A     -0.941159    17A     -0.937680    18A     -0.828908
      19A     -0.786444    20A     -0.762182    21A     -0.724322
      22A     -0.652461    23A     -0.642612    24A     -0.634632
      25A     -0.616845    26A     -0.593468    27A     -0.578656
      28A     -0.575639    29A     -0.550634    30A     -0.546695
      31A     -0.537440    32A     -0.530607    33A     -0.512767
      34A     -0.429596    35A     -0.392726    36A     -0.347773
      37A     -0.305414

  @DF-RHF Final Energy:  -454.81798994260885

   => Energetics <=

    Nuclear Repulsion Energy =            522.7866704402987352
    One-Electron Energy =               -1655.1819358468767405
    Two-Electron Energy =                 677.5772754639690447
    Total Energy =                       -454.8179899426088468
  Basis Set: (AUG-CC-PVTZ AUX)
    Blend: AUG-CC-PVTZ-RI
    Molecular point group: c1

    Geometry (in Angstrom), charge = 0, multiplicity = 1:

       Center              X                  Y                   Z               Mass
    ------------   -----------------  -----------------  -----------------  -----------------
         O           -1.341643155644     1.398997972765    -0.393418186228    15.994914619570
         N            1.394688844356     0.552035972765     0.082837813772    14.003074004430
         N           -2.026976155644    -0.716056027235     0.142047813772    14.003074004430
         C            0.298448944356    -0.272267027235    -0.052239386228    12.000000000000
         C            0.805151844356    -1.597537027235    -0.133751186228    12.000000000000
         C            2.544281844356    -0.192320027235     0.093826813772    12.000000000000
         C            2.207602844356    -1.530697027235    -0.042184186228    12.000000000000
         C           -1.063964155644     0.223373972765    -0.111135186228    12.000000000000
         C            1.362625844356     2.007461972765     0.191401813772    12.000000000000
         C           -3.426873155644    -0.334949027235     0.178085813772    12.000000000000
         H            0.209038844356    -2.487550027235    -0.295782186228     1.007825032230
         H            3.507894844356     0.288758972765     0.199747813772     1.007825032230
         H            2.904541844356    -2.357780027235    -0.078224186228     1.007825032230
         H            0.685080844356     2.311049972765     0.988737813772     1.007825032230
         H            2.376475844356     2.339860972765     0.420068813772     1.007825032230
         H            1.018894844356     2.451619972765    -0.741765186228     1.007825032230
         H           -1.740975155644    -1.556839027235     0.625734813772     1.007825032230
         H           -4.041833155644    -1.225857027235     0.038536813772     1.007825032230
         H           -3.612109155644     0.366133972765    -0.635101186228     1.007825032230
         H           -3.702122155644     0.151545972765     1.120738813772     1.007825032230

  Basis Set: AUG-CC-PVTZ
    Blend: AUG-CC-PVTZ
  Basis Set: (AUG-CC-PVTZ AUX)
    Blend: AUG-CC-PVTZ-JKFIT
	 Reference Energy          =    -454.8179899426088468 [Eh]
	 Singles Energy            =      -0.0000000000000000 [Eh]
	 Same-Spin Energy          =      -0.4857356401316700 [Eh]
	 Opposite-Spin Energy      =      -1.5175677668472405 [Eh]
	 Correlation Energy        =      -2.0033034069789104 [Eh]
	 Total Energy              =    -456.8212933495877337 [Eh]

	 ================> DF-SCS-MP2 Energies <==================
	-----------------------------------------------------------
	 SCS Same-Spin Scale       =       0.3333333333333333 [-]
	 SCS Opposite-Spin Scale   =       1.2000000000000000 [-]
	 SCS Same-Spin Energy      =      -0.1619118800438900 [Eh]
	 SCS Opposite-Spin Energy  =      -1.8210813202166884 [Eh]
	 SCS Correlation Energy    =      -1.9829932002605783 [Eh]
	 SCS Total Energy          =    -456.8009831428694270 [Eh]
	-----------------------------------------------------------

  Dipole Moment: [D]
     X:     0.3734      Y:    -1.1944      Z:     1.3629     Total:     1.8503

*** Psi4 exiting successfully. Buy a developer a beer!
