                               Psi4 1.3.2 release

  ==> Input File <==

--------------------------------------------------------------------------
#psi4
#
memory 32 gb

molecule  {
0 1
  O       -1.3267430     1.3986080    -0.4043610
  N        1.4095890     0.5516460     0.0718950
  N       -2.0120760    -0.7164460     0.1311050
  C        0.3133591    -0.2726448    -0.0633382
  C        0.8200520    -1.5979270    -0.1446940
  C        2.5591820    -0.1927100     0.0828840
  C        2.2225030    -1.5310870    -0.0531270
  C       -1.0490640     0.2229840    -0.1220780
  C        1.3775260     2.0070720     0.1804590
  C       -3.4119730    -0.3353390     0.1671430
  H        0.2239390    -2.4879400    -0.3067250
  H        3.5227950     0.2883690     0.1888050
  H        2.9194420    -2.3581700    -0.0891670
  H        0.6999810     2.3106600     0.9777950
  H        2.3913760     2.3394710     0.4091260
  H        1.0337950     2.4512300    -0.7527080
  H       -1.7260750    -1.5572290     0.6147920
  H       -4.0269330    -1.2262470     0.0275940
  H       -3.5972090     0.3657440    -0.6460440
  H       -3.6872220     0.1511560     1.1097960
units angstrom
no_reorient  #important for SAPT in psi4, default
symmetry c1  #important for SAPT in psi4, default
}

set PROPERTIES_ORIGIN ["COM"]
properties('MP2/aug-cc-pvtz', properties = ['dipole'])
--------------------------------------------------------------------------

    Molecular point group: c1
  Charge       = 0
  Multiplicity = 1
  Basis Set: AUG-CC-PVTZ
    Blend: AUG-CC-PVTZ
  Basis Set: (AUG-CC-PVTZ AUX)
    Blend: AUG-CC-PVTZ-JKFIT

    Orbital Energies [Eh]
    ---------------------

    Doubly Occupied:

       1A    -20.514457     2A    -15.623178     3A    -15.582157
       4A    -11.352783     5A    -11.268522     6A    -11.263224
       7A    -11.263206     8A    -11.256755     9A    -11.235981
      10A    -11.222010    11A     -1.372037    12A     -1.306573
      13A     -1.225064    14A     -1.080570    15A     -1.018511
      16A     -0.941159    17A     -0.937680    18A     -0.828908
      19A     -0.786444    20A     -0.762182    21A     -0.724322
      22A     -0.652462    23A     -0.642611    24A     -0.634632
      25A     -0.616848    26A     -0.593468    27A     -0.578656
      28A     -0.575638    29A     -0.550633    30A     -0.546696
      31A     -0.537440    32A     -0.530606    33A     -0.512767
      34A     -0.429595    35A     -0.392727    36A     -0.347774
      37A     -0.305414

  @DF-RHF Final Energy:  -454.81798993336065

   => Energetics <=

    Nuclear Repulsion Energy =            522.7866452066351712
    One-Electron Energy =               -1655.1818886653802565
    Two-Electron Energy =                 677.5772535253843216
    Total Energy =                       -454.8179899333606500
  Basis Set: (AUG-CC-PVTZ AUX)
    Blend: AUG-CC-PVTZ-RI
    Molecular point group: c1

    Geometry (in Angstrom), charge = 0, multiplicity = 1:

       Center              X                  Y                   Z               Mass
    ------------   -----------------  -----------------  -----------------  -----------------
         O           -1.341644024710     1.398996912505    -0.393404628803    15.994914619570
         N            1.394687975290     0.552034912505     0.082851371197    14.003074004430
         N           -2.026977024710    -0.716057087495     0.142061371197    14.003074004430
         C            0.298458075290    -0.272255887495    -0.052381828803    12.000000000000
         C            0.805150975290    -1.597538087495    -0.133737628803    12.000000000000
         C            2.544280975290    -0.192321087495     0.093840371197    12.000000000000
         C            2.207601975290    -1.530698087495    -0.042170628803    12.000000000000
         C           -1.063965024710     0.223372912505    -0.111121628803    12.000000000000
         C            1.362624975290     2.007460912505     0.191415371197    12.000000000000
         C           -3.426874024710    -0.334950087495     0.178099371197    12.000000000000
         H            0.209037975290    -2.487551087495    -0.295768628803     1.007825032230
         H            3.507893975290     0.288757912505     0.199761371197     1.007825032230
         H            2.904540975290    -2.357781087495    -0.078210628803     1.007825032230
         H            0.685079975290     2.311048912505     0.988751371197     1.007825032230
         H            2.376474975290     2.339859912505     0.420082371197     1.007825032230
         H            1.018893975290     2.451618912505    -0.741751628803     1.007825032230
         H           -1.740976024710    -1.556840087495     0.625748371197     1.007825032230
         H           -4.041834024710    -1.225858087495     0.038550371197     1.007825032230
         H           -3.612110024710     0.366132912505    -0.635087628803     1.007825032230
         H           -3.702123024710     0.151544912505     1.120752371197     1.007825032230

  Basis Set: AUG-CC-PVTZ
    Blend: AUG-CC-PVTZ
  Basis Set: (AUG-CC-PVTZ AUX)
    Blend: AUG-CC-PVTZ-JKFIT
	 Reference Energy          =    -454.8179899333606500 [Eh]
	 Singles Energy            =      -0.0000000000000000 [Eh]
	 Same-Spin Energy          =      -0.4857355811225449 [Eh]
	 Opposite-Spin Energy      =      -1.5175676914331957 [Eh]
	 Correlation Energy        =      -2.0033032725557405 [Eh]
	 Total Energy              =    -456.8212932059163904 [Eh]

	 ================> DF-SCS-MP2 Energies <==================
	-----------------------------------------------------------
	 SCS Same-Spin Scale       =       0.3333333333333333 [-]
	 SCS Opposite-Spin Scale   =       1.2000000000000000 [-]
	 SCS Same-Spin Energy      =      -0.1619118603741816 [Eh]
	 SCS Opposite-Spin Energy  =      -1.8210812297198347 [Eh]
	 SCS Correlation Energy    =      -1.9829930900940163 [Eh]
	 SCS Total Energy          =    -456.8009830234546484 [Eh]
	-----------------------------------------------------------

  Dipole Moment: [D]
     X:     0.3734      Y:    -1.1944      Z:     1.3629     Total:     1.8503

*** Psi4 exiting successfully. Buy a developer a beer!
