                               Psi4 1.3.2 release

  ==> Input File <==

--------------------------------------------------------------------------
#psi4
#
memory 32 gb

molecule  {
0 1
  O       -1.3267430     1.3986080    -0.4043610
  N        1.4095890     0.5516460     0.0718950
  N       -2.0120760    -0.7164460     0.1311050
  C        0.3280180    -0.2917100    -0.0638180
  C        0.8200520    -1.5979270    -0.1446940
  C        2.5591820    -0.1927100     0.0828840
  C        2.0231532    -1.5405879    -0.0661427
  C       -1.0490640     0.2229840    -0.1220780
  C        1.3775260     2.0070720     0.1804590
  C       -3.4119730    -0.3353390     0.1671430
  H        0.2239390    -2.4879400    -0.3067250
  H        3.5227950     0.2883690     0.1888050
  H        2.9194420    -2.3581700    -0.0891670
  H        0.6999810     2.3106600     0.9777950
  H        2.3913760     2.3394710     0.4091260
  H        1.0337950     2.4512300    -0.7527080
  H       -1.7260750    -1.5572290     0.6147920
  H       -4.0269330    -1.2262470     0.0275940
  H       -3.5972090     0.3657440    -0.6460440
  H       -3.6872220     0.1511560     1.1097960
units angstrom
no_reorient  #important for SAPT in psi4, default
symmetry c1  #important for SAPT in psi4, default
}

set PROPERTIES_ORIGIN ["COM"]
properties('MP2/aug-cc-pvtz', properties = ['dipole'])
--------------------------------------------------------------------------

    Molecular point group: c1
  Charge       = 0
  Multiplicity = 1
  Basis Set: AUG-CC-PVTZ
    Blend: AUG-CC-PVTZ
  Basis Set: (AUG-CC-PVTZ AUX)
    Blend: AUG-CC-PVTZ-JKFIT

    Orbital Energies [Eh]
    ---------------------

    Doubly Occupied:

       1A    -20.509758     2A    -15.636872     3A    -15.579356
       4A    -11.349435     5A    -11.270204     6A    -11.266349
       7A    -11.254971     8A    -11.253985     9A    -11.219348
      10A    -11.210270    11A     -1.367851    12A     -1.316610
      13A     -1.222179    14A     -1.117433    15A     -1.006897
      16A     -0.959701    17A     -0.935635    18A     -0.819478
      19A     -0.773035    20A     -0.764219    21A     -0.731002
      22A     -0.652932    23A     -0.643755    24A     -0.632570
      25A     -0.615490    26A     -0.602067    27A     -0.586340
      28A     -0.572863    29A     -0.566124    30A     -0.544666
      31A     -0.542059    32A     -0.515849    33A     -0.486323
      34A     -0.424113    35A     -0.390776    36A     -0.382011
      37A     -0.287506

  @DF-RHF Final Energy:  -454.75408571694521

   => Energetics <=

    Nuclear Repulsion Energy =            525.8708945205061127
    One-Electron Energy =               -1661.2298975653673097
    Two-Electron Energy =                 680.6049173279160414
    Total Energy =                       -454.7540857169452693
  Basis Set: (AUG-CC-PVTZ AUX)
    Blend: AUG-CC-PVTZ-RI
    Molecular point group: c1

    Geometry (in Angstrom), charge = 0, multiplicity = 1:

       Center              X                  Y                   Z               Mass
    ------------   -----------------  -----------------  -----------------  -----------------
         O           -1.325593171381     1.401479494382    -0.392231781136    15.994914619570
         N            1.410738828619     0.554517494382     0.084024218864    14.003074004430
         N           -2.010926171381    -0.713574505618     0.143234218864    14.003074004430
         C            0.329167828619    -0.288838505618    -0.051688781136    12.000000000000
         C            0.821201828619    -1.595055505618    -0.132564781136    12.000000000000
         C            2.560331828619    -0.189838505618     0.095013218864    12.000000000000
         C            2.024303028619    -1.537716405618    -0.054013481136    12.000000000000
         C           -1.047914171381     0.225855494382    -0.109948781136    12.000000000000
         C            1.378675828619     2.009943494382     0.192588218864    12.000000000000
         C           -3.410823171381    -0.332467505618     0.179272218864    12.000000000000
         H            0.225088828619    -2.485068505618    -0.294595781136     1.007825032230
         H            3.523944828619     0.291240494382     0.200934218864     1.007825032230
         H            2.920591828619    -2.355298505618    -0.077037781136     1.007825032230
         H            0.701130828619     2.313531494382     0.989924218864     1.007825032230
         H            2.392525828619     2.342342494382     0.421255218864     1.007825032230
         H            1.034944828619     2.454101494382    -0.740578781136     1.007825032230
         H           -1.724925171381    -1.554357505618     0.626921218864     1.007825032230
         H           -4.025783171381    -1.223375505618     0.039723218864     1.007825032230
         H           -3.596059171381     0.368615494382    -0.633914781136     1.007825032230
         H           -3.686072171381     0.154027494382     1.121925218864     1.007825032230

  Basis Set: AUG-CC-PVTZ
    Blend: AUG-CC-PVTZ
  Basis Set: (AUG-CC-PVTZ AUX)
    Blend: AUG-CC-PVTZ-JKFIT
	 Reference Energy          =    -454.7540857169452124 [Eh]
	 Singles Energy            =      -0.0000000000000000 [Eh]
	 Same-Spin Energy          =      -0.4883981297291378 [Eh]
	 Opposite-Spin Energy      =      -1.5212331409473006 [Eh]
	 Correlation Energy        =      -2.0096312706764383 [Eh]
	 Total Energy              =    -456.7637169876216490 [Eh]

	 ================> DF-SCS-MP2 Energies <==================
	-----------------------------------------------------------
	 SCS Same-Spin Scale       =       0.3333333333333333 [-]
	 SCS Opposite-Spin Scale   =       1.2000000000000000 [-]
	 SCS Same-Spin Energy      =      -0.1627993765763793 [Eh]
	 SCS Opposite-Spin Energy  =      -1.8254797691367606 [Eh]
	 SCS Correlation Energy    =      -1.9882791457131399 [Eh]
	 SCS Total Energy          =    -456.7423648626583486 [Eh]
	-----------------------------------------------------------

  Dipole Moment: [D]
     X:     0.3795      Y:    -1.2110      Z:     1.3621     Total:     1.8617

*** Psi4 exiting successfully. Buy a developer a beer!
