                               Psi4 1.3.2 release

  ==> Input File <==

--------------------------------------------------------------------------
#psi4
#
memory 32 gb

molecule  {
0 1
  O       -1.4514319     1.3655475    -0.3895288
  N        1.4095890     0.5516460     0.0718950
  N       -2.0120760    -0.7164460     0.1311050
  C        0.3280180    -0.2917100    -0.0638180
  C        0.8200520    -1.5979270    -0.1446940
  C        2.5591820    -0.1927100     0.0828840
  C        2.2225030    -1.5310870    -0.0531270
  C       -1.0490640     0.2229840    -0.1220780
  C        1.3775260     2.0070720     0.1804590
  C       -3.4119730    -0.3353390     0.1671430
  H        0.2239390    -2.4879400    -0.3067250
  H        3.5227950     0.2883690     0.1888050
  H        2.9194420    -2.3581700    -0.0891670
  H        0.6999810     2.3106600     0.9777950
  H        2.3913760     2.3394710     0.4091260
  H        1.0337950     2.4512300    -0.7527080
  H       -1.7260750    -1.5572290     0.6147920
  H       -4.0269330    -1.2262470     0.0275940
  H       -3.5972090     0.3657440    -0.6460440
  H       -3.6872220     0.1511560     1.1097960
units angstrom
no_reorient  #important for SAPT in psi4, default
symmetry c1  #important for SAPT in psi4, default
}

set PROPERTIES_ORIGIN ["COM"]
properties('MP2/aug-cc-pvtz', properties = ['dipole'])
--------------------------------------------------------------------------

    Molecular point group: c1
  Charge       = 0
  Multiplicity = 1
  Basis Set: AUG-CC-PVTZ
    Blend: AUG-CC-PVTZ
  Basis Set: (AUG-CC-PVTZ AUX)
    Blend: AUG-CC-PVTZ-JKFIT

    Orbital Energies [Eh]
    ---------------------

    Doubly Occupied:

       1A    -20.513221     2A    -15.624373     3A    -15.575916
       4A    -11.353431     5A    -11.270429     6A    -11.267841
       7A    -11.267458     8A    -11.251809     9A    -11.236839
      10A    -11.223618    11A     -1.372587    12A     -1.311026
      13A     -1.216117    14A     -1.085839    15A     -1.019226
      16A     -0.941803    17A     -0.938429    18A     -0.825906
      19A     -0.789310    20A     -0.758671    21A     -0.727634
      22A     -0.651559    23A     -0.643378    24A     -0.633068
      25A     -0.615847    26A     -0.596059    27A     -0.582893
      28A     -0.572462    29A     -0.552583    30A     -0.543581
      31A     -0.538698    32A     -0.532739    33A     -0.513198
      34A     -0.429201    35A     -0.387408    36A     -0.350910
      37A     -0.310222

  @DF-RHF Final Energy:  -454.81643903231702

   => Energetics <=

    Nuclear Repulsion Energy =            522.2385239326822557
    One-Electron Energy =               -1654.0593528405051984
    Two-Electron Energy =                 677.0043898755059217
    Total Energy =                       -454.8164390323170210
  Basis Set: (AUG-CC-PVTZ AUX)
    Blend: AUG-CC-PVTZ-RI
    Molecular point group: c1

    Geometry (in Angstrom), charge = 0, multiplicity = 1:

       Center              X                  Y                   Z               Mass
    ------------   -----------------  -----------------  -----------------  -----------------
         O           -1.453163091585     1.371422985827    -0.380248872346    15.994914619570
         N            1.407857808415     0.557521485827     0.081174927654    14.003074004430
         N           -2.013807191585    -0.710570514173     0.140384927654    14.003074004430
         C            0.326286808415    -0.285834514173    -0.054538072346    12.000000000000
         C            0.818320808415    -1.592051514173    -0.135414072346    12.000000000000
         C            2.557450808415    -0.186834514173     0.092163927654    12.000000000000
         C            2.220771808415    -1.525211514173    -0.043847072346    12.000000000000
         C           -1.050795191585     0.228859485827    -0.112798072346    12.000000000000
         C            1.375794808415     2.012947485827     0.189738927654    12.000000000000
         C           -3.413704191585    -0.329463514173     0.176422927654    12.000000000000
         H            0.222207808415    -2.482064514173    -0.297445072346     1.007825032230
         H            3.521063808415     0.294244485827     0.198084927654     1.007825032230
         H            2.917710808415    -2.352294514173    -0.079887072346     1.007825032230
         H            0.698249808415     2.316535485827     0.987074927654     1.007825032230
         H            2.389644808415     2.345346485827     0.418405927654     1.007825032230
         H            1.032063808415     2.457105485827    -0.743428072346     1.007825032230
         H           -1.727806191585    -1.551353514173     0.624071927654     1.007825032230
         H           -4.028664191585    -1.220371514173     0.036873927654     1.007825032230
         H           -3.598940191585     0.371619485827    -0.636764072346     1.007825032230
         H           -3.688953191585     0.157031485827     1.119075927654     1.007825032230

  Basis Set: AUG-CC-PVTZ
    Blend: AUG-CC-PVTZ
  Basis Set: (AUG-CC-PVTZ AUX)
    Blend: AUG-CC-PVTZ-JKFIT
	 Reference Energy          =    -454.8164390323170210 [Eh]
	 Singles Energy            =      -0.0000000000000000 [Eh]
	 Same-Spin Energy          =      -0.4854310508894222 [Eh]
	 Opposite-Spin Energy      =      -1.5170837068464422 [Eh]
	 Correlation Energy        =      -2.0025147577358644 [Eh]
	 Total Energy              =    -456.8189537900528876 [Eh]

	 ================> DF-SCS-MP2 Energies <==================
	-----------------------------------------------------------
	 SCS Same-Spin Scale       =       0.3333333333333333 [-]
	 SCS Opposite-Spin Scale   =       1.2000000000000000 [-]
	 SCS Same-Spin Energy      =      -0.1618103502964741 [Eh]
	 SCS Opposite-Spin Energy  =      -1.8205004482157305 [Eh]
	 SCS Correlation Energy    =      -1.9823107985122046 [Eh]
	 SCS Total Energy          =    -456.7987498308292516 [Eh]
	-----------------------------------------------------------

  Dipole Moment: [D]
     X:     0.7706      Y:    -1.1194      Z:     1.3277     Total:     1.9000

*** Psi4 exiting successfully. Buy a developer a beer!
