                               Psi4 1.4a3.dev225

  ==> Input File <==

--------------------------------------------------------------------------
#psi4
#
memory 32 gb

molecule  {
0 1
  O       -1.3267430     1.3986080    -0.4043610
  N        1.4095890     0.5516460     0.0718950
  N       -2.0120760    -0.7164460     0.1311050
  C        0.3123227    -0.3039484    -0.0657874
  C        0.8200520    -1.5979270    -0.1446940
  C        2.5591820    -0.1927100     0.0828840
  C        2.2225030    -1.5310870    -0.0531270
  C       -1.0490640     0.2229840    -0.1220780
  C        1.3775260     2.0070720     0.1804590
  C       -3.4119730    -0.3353390     0.1671430
  H        0.2239390    -2.4879400    -0.3067250
  H        3.5227950     0.2883690     0.1888050
  H        2.9194420    -2.3581700    -0.0891670
  H        0.6999810     2.3106600     0.9777950
  H        2.3913760     2.3394710     0.4091260
  H        1.0337950     2.4512300    -0.7527080
  H       -1.7260750    -1.5572290     0.6147920
  H       -4.0269330    -1.2262470     0.0275940
  H       -3.5972090     0.3657440    -0.6460440
  H       -3.6872220     0.1511560     1.1097960
units angstrom
no_reorient  #important for SAPT in psi4, default
symmetry c1  #important for SAPT in psi4, default
}

set PROPERTIES_ORIGIN ["COM"]
properties('MP2/aug-cc-pvtz', properties = ['dipole'])
--------------------------------------------------------------------------

    Molecular point group: c1
  Charge       = 0
  Multiplicity = 1
  Basis Set: AUG-CC-PVTZ
    Blend: AUG-CC-PVTZ
  Basis Set: (AUG-CC-PVTZ AUX)
    Blend: AUG-CC-PVTZ-JKFIT

    Orbital Energies [Eh]
    ---------------------

    Doubly Occupied:

       1A    -20.516001     2A    -15.619993     3A    -15.582289
       4A    -11.354127     5A    -11.269086     6A    -11.262728
       7A    -11.262444     8A    -11.256767     9A    -11.234400
      10A    -11.220567    11A     -1.372062    12A     -1.302023
      13A     -1.225621    14A     -1.082618    15A     -1.017483
      16A     -0.941204    17A     -0.936357    18A     -0.827303
      19A     -0.785739    20A     -0.762184    21A     -0.724213
      22A     -0.651125    23A     -0.641196    24A     -0.634324
      25A     -0.616305    26A     -0.593482    27A     -0.578768
      28A     -0.573527    29A     -0.551874    30A     -0.547011
      31A     -0.537294    32A     -0.531316    33A     -0.512639
      34A     -0.430288    35A     -0.393220    36A     -0.347776
      37A     -0.307829

  @DF-RHF Final Energy:  -454.81889301398508

   => Energetics <=

    Nuclear Repulsion Energy =            522.6440224166594817
    One-Electron Energy =               -1654.9194686923492554
    Two-Electron Energy =                 677.4565532617046983
    Total Energy =                       -454.8188930139850754
  Basis Set: (AUG-CC-PVTZ AUX)
    Blend: AUG-CC-PVTZ-RI
    Molecular point group: c1

    Geometry (in Angstrom), charge = 0, multiplicity = 1:

       Center              X                  Y                   Z               Mass
    ------------   -----------------  -----------------  -----------------  -----------------
         O           -1.341553954737     1.401717401128    -0.393191777222    15.994914619570
         N            1.394778045263     0.554755401128     0.083064222778    14.003074004430
         N           -2.026886954737    -0.713336598872     0.142274222778    14.003074004430
         C            0.297511745263    -0.300838998872    -0.054618177222    12.000000000000
         C            0.805241045263    -1.594817598872    -0.133524777222    12.000000000000
         C            2.544371045263    -0.189600598872     0.094053222778    12.000000000000
         C            2.207692045263    -1.527977598872    -0.041957777222    12.000000000000
         C           -1.063874954737     0.226093401128    -0.110908777222    12.000000000000
         C            1.362715045263     2.010181401128     0.191628222778    12.000000000000
         C           -3.426783954737    -0.332229598872     0.178312222778    12.000000000000
         H            0.209128045263    -2.484830598872    -0.295555777222     1.007825032230
         H            3.507984045263     0.291478401128     0.199974222778     1.007825032230
         H            2.904631045263    -2.355060598872    -0.077997777222     1.007825032230
         H            0.685170045263     2.313769401128     0.988964222778     1.007825032230
         H            2.376565045263     2.342580401128     0.420295222778     1.007825032230
         H            1.018984045263     2.454339401128    -0.741538777222     1.007825032230
         H           -1.740885954737    -1.554119598872     0.625961222778     1.007825032230
         H           -4.041743954737    -1.223137598872     0.038763222778     1.007825032230
         H           -3.612019954737     0.368853401128    -0.634874777222     1.007825032230
         H           -3.702032954737     0.154265401128     1.120965222778     1.007825032230

  Basis Set: AUG-CC-PVTZ
    Blend: AUG-CC-PVTZ
  Basis Set: (AUG-CC-PVTZ AUX)
    Blend: AUG-CC-PVTZ-JKFIT
	 Reference Energy          =    -454.8188930139850754 [Eh]
	 Singles Energy            =      -0.0000000000000000 [Eh]
	 Same-Spin Energy          =      -0.4853173084949192 [Eh]
	 Opposite-Spin Energy      =      -1.5171376979554263 [Eh]
	 Correlation Energy        =      -2.0024550064503455 [Eh]
	 Total Energy              =    -456.8213480204354369 [Eh]

	 ================> DF-SCS-MP2 Energies <==================
	-----------------------------------------------------------
	 SCS Same-Spin Scale       =       0.3333333333333333 [-]
	 SCS Opposite-Spin Scale   =       1.2000000000000000 [-]
	 SCS Same-Spin Energy      =      -0.1617724361649731 [Eh]
	 SCS Opposite-Spin Energy  =      -1.8205652375465116 [Eh]
	 SCS Correlation Energy    =      -1.9823376737114846 [Eh]
	 SCS Total Energy          =    -456.8012306876965454 [Eh]
	-----------------------------------------------------------

  Dipole Moment: [D]
     X:     0.3106      Y:    -1.2131      Z:     1.3543     Total:     1.8445

*** Psi4 exiting successfully. Buy a developer a beer!
