                               Psi4 1.3.2 release

  ==> Input File <==

--------------------------------------------------------------------------
#psi4
#
memory 32 gb

molecule  {
0 1
  O       -1.3267430     1.3986080    -0.4043610
  N        1.3793036     0.5890177     0.0724922
  N       -2.0120760    -0.7164460     0.1311050
  C        0.3280180    -0.2917100    -0.0638180
  C        0.8200520    -1.5979270    -0.1446940
  C        2.5591820    -0.1927100     0.0828840
  C        2.2225030    -1.5310870    -0.0531270
  C       -1.0490640     0.2229840    -0.1220780
  C        1.3775260     2.0070720     0.1804590
  C       -3.4119730    -0.3353390     0.1671430
  H        0.2239390    -2.4879400    -0.3067250
  H        3.5227950     0.2883690     0.1888050
  H        2.9194420    -2.3581700    -0.0891670
  H        0.6999810     2.3106600     0.9777950
  H        2.3913760     2.3394710     0.4091260
  H        1.0337950     2.4512300    -0.7527080
  H       -1.7260750    -1.5572290     0.6147920
  H       -4.0269330    -1.2262470     0.0275940
  H       -3.5972090     0.3657440    -0.6460440
  H       -3.6872220     0.1511560     1.1097960
units angstrom
no_reorient  #important for SAPT in psi4, default
symmetry c1  #important for SAPT in psi4, default
}

set PROPERTIES_ORIGIN ["COM"]
properties('MP2/aug-cc-pvtz', properties = ['dipole'])
--------------------------------------------------------------------------

    Molecular point group: c1
  Charge       = 0
  Multiplicity = 1
  Basis Set: AUG-CC-PVTZ
    Blend: AUG-CC-PVTZ
  Basis Set: (AUG-CC-PVTZ AUX)
    Blend: AUG-CC-PVTZ-JKFIT

    Orbital Energies [Eh]
    ---------------------

    Doubly Occupied:

       1A    -20.517171     2A    -15.619518     3A    -15.583360
       4A    -11.354700     5A    -11.269856     6A    -11.267212
       7A    -11.258931     8A    -11.257392     9A    -11.233506
      10A    -11.224924    11A     -1.373106    12A     -1.300242
      13A     -1.226145    14A     -1.089398    15A     -1.013854
      16A     -0.941968    17A     -0.935540    18A     -0.825681
      19A     -0.785334    20A     -0.762918    21A     -0.725488
      22A     -0.648127    23A     -0.642015    24A     -0.635972
      25A     -0.617496    26A     -0.595241    27A     -0.589608
      28A     -0.569971    29A     -0.552044    30A     -0.546993
      31A     -0.536279    32A     -0.529304    33A     -0.509160
      34A     -0.429841    35A     -0.393630    36A     -0.347986
      37A     -0.306505

  @DF-RHF Final Energy:  -454.81517870229487

   => Energetics <=

    Nuclear Repulsion Energy =            522.6371830520492949
    One-Electron Energy =               -1654.8718918284550909
    Two-Electron Energy =                 677.4195300741108667
    Total Energy =                       -454.8151787022949293
  Basis Set: (AUG-CC-PVTZ AUX)
    Blend: AUG-CC-PVTZ-RI
    Molecular point group: c1

    Geometry (in Angstrom), charge = 0, multiplicity = 1:

       Center              X                  Y                   Z               Mass
    ------------   -----------------  -----------------  -----------------  -----------------
         O           -1.339846638178     1.396863817586    -0.393423495031    15.994914619570
         N            1.366199961822     0.587273517586     0.083429704969    14.003074004430
         N           -2.025179638178    -0.718190182414     0.142042504969    14.003074004430
         C            0.314914361822    -0.293454182414    -0.052880495031    12.000000000000
         C            0.806948361822    -1.599671182414    -0.133756495031    12.000000000000
         C            2.546078361822    -0.194454182414     0.093821504969    12.000000000000
         C            2.209399361822    -1.532831182414    -0.042189495031    12.000000000000
         C           -1.062167638178     0.221239817586    -0.111140495031    12.000000000000
         C            1.364422361822     2.005327817586     0.191396504969    12.000000000000
         C           -3.425076638178    -0.337083182414     0.178080504969    12.000000000000
         H            0.210835361822    -2.489684182414    -0.295787495031     1.007825032230
         H            3.509691361822     0.286624817586     0.199742504969     1.007825032230
         H            2.906338361822    -2.359914182414    -0.078229495031     1.007825032230
         H            0.686877361822     2.308915817586     0.988732504969     1.007825032230
         H            2.378272361822     2.337726817586     0.420063504969     1.007825032230
         H            1.020691361822     2.449485817586    -0.741770495031     1.007825032230
         H           -1.739178638178    -1.558973182414     0.625729504969     1.007825032230
         H           -4.040036638178    -1.227991182414     0.038531504969     1.007825032230
         H           -3.610312638178     0.363999817586    -0.635106495031     1.007825032230
         H           -3.700325638178     0.149411817586     1.120733504969     1.007825032230

  Basis Set: AUG-CC-PVTZ
    Blend: AUG-CC-PVTZ
  Basis Set: (AUG-CC-PVTZ AUX)
    Blend: AUG-CC-PVTZ-JKFIT
	 Reference Energy          =    -454.8151787022948724 [Eh]
	 Singles Energy            =      -0.0000000000000000 [Eh]
	 Same-Spin Energy          =      -0.4856181356044031 [Eh]
	 Opposite-Spin Energy      =      -1.5179938918849030 [Eh]
	 Correlation Energy        =      -2.0036120274893059 [Eh]
	 Total Energy              =    -456.8187907297841548 [Eh]

	 ================> DF-SCS-MP2 Energies <==================
	-----------------------------------------------------------
	 SCS Same-Spin Scale       =       0.3333333333333333 [-]
	 SCS Opposite-Spin Scale   =       1.2000000000000000 [-]
	 SCS Same-Spin Energy      =      -0.1618727118681343 [Eh]
	 SCS Opposite-Spin Energy  =      -1.8215926702618834 [Eh]
	 SCS Correlation Energy    =      -1.9834653821300177 [Eh]
	 SCS Total Energy          =    -456.7986440844248932 [Eh]
	-----------------------------------------------------------

  Dipole Moment: [D]
     X:     0.2869      Y:    -1.3194      Z:     1.3464     Total:     1.9068

*** Psi4 exiting successfully. Buy a developer a beer!
