                               Psi4 1.3.2 release

  ==> Input File <==

--------------------------------------------------------------------------
#psi4
#
memory 32 gb

molecule  {
0 1
  O       -1.3267430     1.3986080    -0.4043610
  N        1.4095890     0.5516460     0.0718950
  N       -2.0120760    -0.7164460     0.1311050
  C        0.3280180    -0.2917100    -0.0638180
  C        0.8904353    -1.7847755    -0.1562629
  C        2.5591820    -0.1927100     0.0828840
  C        2.2225030    -1.5310870    -0.0531270
  C       -1.0490640     0.2229840    -0.1220780
  C        1.3775260     2.0070720     0.1804590
  C       -3.4119730    -0.3353390     0.1671430
  H        0.2239390    -2.4879400    -0.3067250
  H        3.5227950     0.2883690     0.1888050
  H        2.9194420    -2.3581700    -0.0891670
  H        0.6999810     2.3106600     0.9777950
  H        2.3913760     2.3394710     0.4091260
  H        1.0337950     2.4512300    -0.7527080
  H       -1.7260750    -1.5572290     0.6147920
  H       -4.0269330    -1.2262470     0.0275940
  H       -3.5972090     0.3657440    -0.6460440
  H       -3.6872220     0.1511560     1.1097960
units angstrom
no_reorient  #important for SAPT in psi4, default
symmetry c1  #important for SAPT in psi4, default
}

set PROPERTIES_ORIGIN ["COM"]
properties('MP2/aug-cc-pvtz', properties = ['dipole'])
--------------------------------------------------------------------------

    Molecular point group: c1
  Charge       = 0
  Multiplicity = 1
  Basis Set: AUG-CC-PVTZ
    Blend: AUG-CC-PVTZ
  Basis Set: (AUG-CC-PVTZ AUX)
    Blend: AUG-CC-PVTZ-JKFIT

    Orbital Energies [Eh]
    ---------------------

    Doubly Occupied:

       1A    -20.512707     2A    -15.639944     3A    -15.580695
       4A    -11.351905     5A    -11.274744     6A    -11.269042
       7A    -11.265284     8A    -11.255724     9A    -11.240965
      10A    -11.226714    11A     -1.369380    12A     -1.306372
      13A     -1.223031    14A     -1.082048    15A     -1.005975
      16A     -0.953282    17A     -0.937000    18A     -0.828994
      19A     -0.793243    20A     -0.760715    21A     -0.723805
      22A     -0.661131    23A     -0.641714    24A     -0.633112
      25A     -0.618040    26A     -0.604317    27A     -0.588638
      28A     -0.571738    29A     -0.566450    30A     -0.544448
      31A     -0.535383    32A     -0.513045    33A     -0.499136
      34A     -0.422544    35A     -0.391614    36A     -0.360945
      37A     -0.285322

  @DF-RHF Final Energy:  -454.77217285824565

   => Energetics <=

    Nuclear Repulsion Energy =            519.3079266440914807
    One-Electron Energy =               -1648.0819067133220415
    Two-Electron Energy =                 674.0018072109850209
    Total Energy =                       -454.7721728582456535
  Basis Set: (AUG-CC-PVTZ AUX)
    Blend: AUG-CC-PVTZ-RI
    Molecular point group: c1

    Geometry (in Angstrom), charge = 0, multiplicity = 1:

       Center              X                  Y                   Z               Mass
    ------------   -----------------  -----------------  -----------------  -----------------
         O           -1.349034750940     1.416892166668    -0.392357517567    15.994914619570
         N            1.387297249060     0.569930166668     0.083898482433    14.003074004430
         N           -2.034367750940    -0.698161833332     0.143108482433    14.003074004430
         C            0.305726249060    -0.273425833332    -0.051814517567    12.000000000000
         C            0.868143549060    -1.766491333332    -0.144259417567    12.000000000000
         C            2.536890249060    -0.174425833332     0.094887482433    12.000000000000
         C            2.200211249060    -1.512802833332    -0.041123517567    12.000000000000
         C           -1.071355750940     0.241268166668    -0.110074517567    12.000000000000
         C            1.355234249060     2.025356166668     0.192462482433    12.000000000000
         C           -3.434264750940    -0.317054833332     0.179146482433    12.000000000000
         H            0.201647249060    -2.469655833332    -0.294721517567     1.007825032230
         H            3.500503249060     0.306653166668     0.200808482433     1.007825032230
         H            2.897150249060    -2.339885833332    -0.077163517567     1.007825032230
         H            0.677689249060     2.328944166668     0.989798482433     1.007825032230
         H            2.369084249060     2.357755166668     0.421129482433     1.007825032230
         H            1.011503249060     2.469514166668    -0.740704517567     1.007825032230
         H           -1.748366750940    -1.538944833332     0.626795482433     1.007825032230
         H           -4.049224750940    -1.207962833332     0.039597482433     1.007825032230
         H           -3.619500750940     0.384028166668    -0.634040517567     1.007825032230
         H           -3.709513750940     0.169440166668     1.121799482433     1.007825032230

  Basis Set: AUG-CC-PVTZ
    Blend: AUG-CC-PVTZ
  Basis Set: (AUG-CC-PVTZ AUX)
    Blend: AUG-CC-PVTZ-JKFIT
	 Reference Energy          =    -454.7721728582456535 [Eh]
	 Singles Energy            =      -0.0000000000000000 [Eh]
	 Same-Spin Energy          =      -0.4886435817905601 [Eh]
	 Opposite-Spin Energy      =      -1.5229857620384846 [Eh]
	 Correlation Energy        =      -2.0116293438290445 [Eh]
	 Total Energy              =    -456.7838022020746962 [Eh]

	 ================> DF-SCS-MP2 Energies <==================
	-----------------------------------------------------------
	 SCS Same-Spin Scale       =       0.3333333333333333 [-]
	 SCS Opposite-Spin Scale   =       1.2000000000000000 [-]
	 SCS Same-Spin Energy      =      -0.1628811939301867 [Eh]
	 SCS Opposite-Spin Energy  =      -1.8275829144461815 [Eh]
	 SCS Correlation Energy    =      -1.9904641083763681 [Eh]
	 SCS Total Energy          =    -456.7626369666220398 [Eh]
	-----------------------------------------------------------

  Dipole Moment: [D]
     X:     0.4679      Y:    -1.0951      Z:     1.3610     Total:     1.8084

*** Psi4 exiting successfully. Buy a developer a beer!
