                               Psi4 1.3.2 release

  ==> Input File <==

--------------------------------------------------------------------------
#psi4
#
memory 32 gb

molecule  {
0 1
  O       -1.3267430     1.3986080    -0.4043610
  N        1.4661713     0.4738669     0.0702056
  N       -2.0120760    -0.7164460     0.1311050
  C        0.3280180    -0.2917100    -0.0638180
  C        0.8200520    -1.5979270    -0.1446940
  C        2.5591820    -0.1927100     0.0828840
  C        2.2225030    -1.5310870    -0.0531270
  C       -1.0490640     0.2229840    -0.1220780
  C        1.3775260     2.0070720     0.1804590
  C       -3.4119730    -0.3353390     0.1671430
  H        0.2239390    -2.4879400    -0.3067250
  H        3.5227950     0.2883690     0.1888050
  H        2.9194420    -2.3581700    -0.0891670
  H        0.6999810     2.3106600     0.9777950
  H        2.3913760     2.3394710     0.4091260
  H        1.0337950     2.4512300    -0.7527080
  H       -1.7260750    -1.5572290     0.6147920
  H       -4.0269330    -1.2262470     0.0275940
  H       -3.5972090     0.3657440    -0.6460440
  H       -3.6872220     0.1511560     1.1097960
units angstrom
no_reorient  #important for SAPT in psi4, default
symmetry c1  #important for SAPT in psi4, default
}

set PROPERTIES_ORIGIN ["COM"]
properties('MP2/aug-cc-pvtz', properties = ['dipole'])
--------------------------------------------------------------------------

    Molecular point group: c1
  Charge       = 0
  Multiplicity = 1
  Basis Set: AUG-CC-PVTZ
    Blend: AUG-CC-PVTZ
  Basis Set: (AUG-CC-PVTZ AUX)
    Blend: AUG-CC-PVTZ-JKFIT

    Orbital Energies [Eh]
    ---------------------

    Doubly Occupied:

       1A    -20.514084     2A    -15.623140     3A    -15.582033
       4A    -11.355301     5A    -11.272484     6A    -11.260684
       7A    -11.256718     8A    -11.255045     9A    -11.231007
      10A    -11.211852    11A     -1.371188    12A     -1.326172
      13A     -1.224663    14A     -1.069560    15A     -1.022959
      16A     -0.946197    17A     -0.937014    18A     -0.824527
      19A     -0.791111    20A     -0.760524    21A     -0.722203
      22A     -0.661735    23A     -0.642889    24A     -0.633572
      25A     -0.616753    26A     -0.593169    27A     -0.583049
      28A     -0.561232    29A     -0.547794    30A     -0.544905
      31A     -0.539185    32A     -0.532174    33A     -0.520567
      34A     -0.428986    35A     -0.392791    36A     -0.349082
      37A     -0.304684

  @DF-RHF Final Energy:  -454.80898273852586

   => Energetics <=

    Nuclear Repulsion Energy =            523.1962165477679036
    One-Electron Energy =               -1655.9883340886872247
    Two-Electron Energy =                 677.9831348023933515
    Total Energy =                       -454.8089827385258559
  Basis Set: (AUG-CC-PVTZ AUX)
    Blend: AUG-CC-PVTZ-RI
    Molecular point group: c1

    Geometry (in Angstrom), charge = 0, multiplicity = 1:

       Center              X                  Y                   Z               Mass
    ------------   -----------------  -----------------  -----------------  -----------------
         O           -1.348656175289     1.408541636223    -0.393191603458    15.994914619570
         N            1.444258124711     0.483800536223     0.081374996542    14.003074004430
         N           -2.033989175289    -0.706512363777     0.142274396542    14.003074004430
         C            0.306104824711    -0.281776363777    -0.052648603458    12.000000000000
         C            0.798138824711    -1.587993363777    -0.133524603458    12.000000000000
         C            2.537268824711    -0.182776363777     0.094053396542    12.000000000000
         C            2.200589824711    -1.521153363777    -0.041957603458    12.000000000000
         C           -1.070977175289     0.232917636223    -0.110908603458    12.000000000000
         C            1.355612824711     2.017005636223     0.191628396542    12.000000000000
         C           -3.433886175289    -0.325405363777     0.178312396542    12.000000000000
         H            0.202025824711    -2.478006363777    -0.295555603458     1.007825032230
         H            3.500881824711     0.298302636223     0.199974396542     1.007825032230
         H            2.897528824711    -2.348236363777    -0.077997603458     1.007825032230
         H            0.678067824711     2.320593636223     0.988964396542     1.007825032230
         H            2.369462824711     2.349404636223     0.420295396542     1.007825032230
         H            1.011881824711     2.461163636223    -0.741538603458     1.007825032230
         H           -1.747988175289    -1.547295363777     0.625961396542     1.007825032230
         H           -4.048846175289    -1.216313363777     0.038763396542     1.007825032230
         H           -3.619122175289     0.375677636223    -0.634874603458     1.007825032230
         H           -3.709135175289     0.161089636223     1.120965396542     1.007825032230

  Basis Set: AUG-CC-PVTZ
    Blend: AUG-CC-PVTZ
  Basis Set: (AUG-CC-PVTZ AUX)
    Blend: AUG-CC-PVTZ-JKFIT
	 Reference Energy          =    -454.8089827385258559 [Eh]
	 Singles Energy            =      -0.0000000000000000 [Eh]
	 Same-Spin Energy          =      -0.4849566597063129 [Eh]
	 Opposite-Spin Energy      =      -1.5156316134646430 [Eh]
	 Correlation Energy        =      -2.0005882731709557 [Eh]
	 Total Energy              =    -456.8095710116967894 [Eh]

	 ================> DF-SCS-MP2 Energies <==================
	-----------------------------------------------------------
	 SCS Same-Spin Scale       =       0.3333333333333333 [-]
	 SCS Opposite-Spin Scale   =       1.2000000000000000 [-]
	 SCS Same-Spin Energy      =      -0.1616522199021043 [Eh]
	 SCS Opposite-Spin Energy  =      -1.8187579361575716 [Eh]
	 SCS Correlation Energy    =      -1.9804101560596759 [Eh]
	 SCS Total Energy          =    -456.7893928945855464 [Eh]
	-----------------------------------------------------------

  Dipole Moment: [D]
     X:     0.3096      Y:    -0.8980      Z:     1.3837     Total:     1.6784

*** Psi4 exiting successfully. Buy a developer a beer!
