                               Psi4 1.3.2 release

  ==> Input File <==

--------------------------------------------------------------------------
#psi4
#
memory 32 gb

molecule  {
0 1
  O       -1.3267430     1.3986080    -0.4043610
  N        1.4095890     0.5516460     0.0718950
  N       -2.0120760    -0.7164460     0.1311050
  C        0.3280180    -0.2917100    -0.0638180
  C        0.8200520    -1.5979270    -0.1446940
  C        2.5591820    -0.1927100     0.0828840
  C        2.1228281    -1.5358374    -0.0596348
  C       -1.0490640     0.2229840    -0.1220780
  C        1.3775260     2.0070720     0.1804590
  C       -3.4119730    -0.3353390     0.1671430
  H        0.2239390    -2.4879400    -0.3067250
  H        3.5227950     0.2883690     0.1888050
  H        2.9194420    -2.3581700    -0.0891670
  H        0.6999810     2.3106600     0.9777950
  H        2.3913760     2.3394710     0.4091260
  H        1.0337950     2.4512300    -0.7527080
  H       -1.7260750    -1.5572290     0.6147920
  H       -4.0269330    -1.2262470     0.0275940
  H       -3.5972090     0.3657440    -0.6460440
  H       -3.6872220     0.1511560     1.1097960
units angstrom
no_reorient  #important for SAPT in psi4, default
symmetry c1  #important for SAPT in psi4, default
}

set PROPERTIES_ORIGIN ["COM"]
properties('MP2/aug-cc-pvtz', properties = ['dipole'])
--------------------------------------------------------------------------

    Molecular point group: c1
  Charge       = 0
  Multiplicity = 1
  Basis Set: AUG-CC-PVTZ
    Blend: AUG-CC-PVTZ
  Basis Set: (AUG-CC-PVTZ AUX)
    Blend: AUG-CC-PVTZ-JKFIT

    Orbital Energies [Eh]
    ---------------------

    Doubly Occupied:

       1A    -20.513126     2A    -15.628289     3A    -15.581236
       4A    -11.352261     5A    -11.268166     6A    -11.264665
       7A    -11.258355     8A    -11.256125     9A    -11.222898
      10A    -11.219517    11A     -1.370136    12A     -1.311263
      13A     -1.223990    14A     -1.097252    15A     -1.011454
      16A     -0.948308    17A     -0.938470    18A     -0.822116
      19A     -0.780687    20A     -0.763044    21A     -0.727018
      22A     -0.652099    23A     -0.642561    24A     -0.633746
      25A     -0.616208    26A     -0.591932    27A     -0.581538
      28A     -0.572122    29A     -0.565377    30A     -0.545227
      31A     -0.539473    32A     -0.515220    33A     -0.514057
      34A     -0.427293    35A     -0.392086    36A     -0.362815
      37A     -0.296864

  @DF-RHF Final Energy:  -454.80419123751744

   => Energetics <=

    Nuclear Repulsion Energy =            524.2390357025329877
    One-Electron Energy =               -1658.0724692902167590
    Two-Electron Energy =                 679.0292423501664416
    Total Energy =                       -454.8041912375174434
  Basis Set: (AUG-CC-PVTZ AUX)
    Blend: AUG-CC-PVTZ-RI
    Molecular point group: c1

    Geometry (in Angstrom), charge = 0, multiplicity = 1:

       Center              X                  Y                   Z               Mass
    ------------   -----------------  -----------------  -----------------  -----------------
         O           -1.334255575433     1.401066644704    -0.392797360428    15.994914619570
         N            1.402076424567     0.554104644704     0.083458639572    14.003074004430
         N           -2.019588575433    -0.713987355296     0.142668639572    14.003074004430
         C            0.320505424567    -0.289251355296    -0.052254360428    12.000000000000
         C            0.812539424567    -1.595468355296    -0.133130360428    12.000000000000
         C            2.551669424567    -0.190251355296     0.094447639572    12.000000000000
         C            2.115315524567    -1.533378755296    -0.048071160428    12.000000000000
         C           -1.056576575433     0.225442644704    -0.110514360428    12.000000000000
         C            1.370013424567     2.009530644704     0.192022639572    12.000000000000
         C           -3.419485575433    -0.332880355296     0.178706639572    12.000000000000
         H            0.216426424567    -2.485481355296    -0.295161360428     1.007825032230
         H            3.515282424567     0.290827644704     0.200368639572     1.007825032230
         H            2.911929424567    -2.355711355296    -0.077603360428     1.007825032230
         H            0.692468424567     2.313118644704     0.989358639572     1.007825032230
         H            2.383863424567     2.341929644704     0.420689639572     1.007825032230
         H            1.026282424567     2.453688644704    -0.741144360428     1.007825032230
         H           -1.733587575433    -1.554770355296     0.626355639572     1.007825032230
         H           -4.034445575433    -1.223788355296     0.039157639572     1.007825032230
         H           -3.604721575433     0.368202644704    -0.634480360428     1.007825032230
         H           -3.694734575433     0.153614644704     1.121359639572     1.007825032230

  Basis Set: AUG-CC-PVTZ
    Blend: AUG-CC-PVTZ
  Basis Set: (AUG-CC-PVTZ AUX)
    Blend: AUG-CC-PVTZ-JKFIT
	 Reference Energy          =    -454.8041912375174434 [Eh]
	 Singles Energy            =      -0.0000000000000000 [Eh]
	 Same-Spin Energy          =      -0.4867748656182070 [Eh]
	 Opposite-Spin Energy      =      -1.5185393576034389 [Eh]
	 Correlation Energy        =      -2.0053142232216459 [Eh]
	 Total Energy              =    -456.8095054607391035 [Eh]

	 ================> DF-SCS-MP2 Energies <==================
	-----------------------------------------------------------
	 SCS Same-Spin Scale       =       0.3333333333333333 [-]
	 SCS Opposite-Spin Scale   =       1.2000000000000000 [-]
	 SCS Same-Spin Energy      =      -0.1622582885394023 [Eh]
	 SCS Opposite-Spin Energy  =      -1.8222472291241267 [Eh]
	 SCS Correlation Energy    =      -1.9845055176635291 [Eh]
	 SCS Total Energy          =    -456.7886967551809789 [Eh]
	-----------------------------------------------------------

  Dipole Moment: [D]
     X:     0.3529      Y:    -1.1955      Z:     1.3612     Total:     1.8457

*** Psi4 exiting successfully. Buy a developer a beer!
