                               Psi4 1.3.2 release

  ==> Input File <==

--------------------------------------------------------------------------
#psi4
#
memory 32 gb

molecule  {
0 1
  O       -1.3267430     1.3986080    -0.4043610
  N        1.4095890     0.5516460     0.0718950
  N       -2.0120760    -0.7164460     0.1311050
  C        0.3280180    -0.2917100    -0.0638180
  C        0.7278604    -1.6284029    -0.1544779
  C        2.5591820    -0.1927100     0.0828840
  C        2.2225030    -1.5310870    -0.0531270
  C       -1.0490640     0.2229840    -0.1220780
  C        1.3775260     2.0070720     0.1804590
  C       -3.4119730    -0.3353390     0.1671430
  H        0.2239390    -2.4879400    -0.3067250
  H        3.5227950     0.2883690     0.1888050
  H        2.9194420    -2.3581700    -0.0891670
  H        0.6999810     2.3106600     0.9777950
  H        2.3913760     2.3394710     0.4091260
  H        1.0337950     2.4512300    -0.7527080
  H       -1.7260750    -1.5572290     0.6147920
  H       -4.0269330    -1.2262470     0.0275940
  H       -3.5972090     0.3657440    -0.6460440
  H       -3.6872220     0.1511560     1.1097960
units angstrom
no_reorient  #important for SAPT in psi4, default
symmetry c1  #important for SAPT in psi4, default
}

set PROPERTIES_ORIGIN ["COM"]
properties('MP2/aug-cc-pvtz', properties = ['dipole'])
--------------------------------------------------------------------------

    Molecular point group: c1
  Charge       = 0
  Multiplicity = 1
  Basis Set: AUG-CC-PVTZ
    Blend: AUG-CC-PVTZ
  Basis Set: (AUG-CC-PVTZ AUX)
    Blend: AUG-CC-PVTZ-JKFIT

    Orbital Energies [Eh]
    ---------------------

    Doubly Occupied:

       1A    -20.517005     2A    -15.618426     3A    -15.583430
       4A    -11.354158     5A    -11.270373     6A    -11.267796
       7A    -11.263907     8A    -11.257626     9A    -11.235565
      10A    -11.227875    11A     -1.372957    12A     -1.303514
      13A     -1.226426    14A     -1.072523    15A     -1.017369
      16A     -0.941793    17A     -0.935260    18A     -0.827790
      19A     -0.793326    20A     -0.760580    21A     -0.727923
      22A     -0.649279    23A     -0.641466    24A     -0.636209
      25A     -0.618971    26A     -0.607911    27A     -0.580342
      28A     -0.573393    29A     -0.549565    30A     -0.541577
      31A     -0.538427    32A     -0.526633    33A     -0.511378
      34A     -0.428311    35A     -0.393626    36A     -0.338321
      37A     -0.312267

  @DF-RHF Final Energy:  -454.80855834844988

   => Energetics <=

    Nuclear Repulsion Energy =            521.9165439464235305
    One-Electron Energy =               -1653.4036038663016370
    Two-Electron Energy =                 676.6785015714281144
    Total Energy =                       -454.8085583484498784
  Basis Set: (AUG-CC-PVTZ AUX)
    Blend: AUG-CC-PVTZ-RI
    Molecular point group: c1

    Geometry (in Angstrom), charge = 0, multiplicity = 1:

       Center              X                  Y                   Z               Mass
    ------------   -----------------  -----------------  -----------------  -----------------
         O           -1.334905923396     1.403302359768    -0.392512645801    15.994914619570
         N            1.401426076604     0.556340359768     0.083743354199    14.003074004430
         N           -2.020238923396    -0.711751640232     0.142953354199    14.003074004430
         C            0.319855076604    -0.287015640232    -0.051969645801    12.000000000000
         C            0.719697476604    -1.623708540232    -0.142629545801    12.000000000000
         C            2.551019076604    -0.188015640232     0.094732354199    12.000000000000
         C            2.214340076604    -1.526392640232    -0.041278645801    12.000000000000
         C           -1.057226923396     0.227678359768    -0.110229645801    12.000000000000
         C            1.369363076604     2.011766359768     0.192307354199    12.000000000000
         C           -3.420135923396    -0.330644640232     0.178991354199    12.000000000000
         H            0.215776076604    -2.483245640232    -0.294876645801     1.007825032230
         H            3.514632076604     0.293063359768     0.200653354199     1.007825032230
         H            2.911279076604    -2.353475640232    -0.077318645801     1.007825032230
         H            0.691818076604     2.315354359768     0.989643354199     1.007825032230
         H            2.383213076604     2.344165359768     0.420974354199     1.007825032230
         H            1.025632076604     2.455924359768    -0.740859645801     1.007825032230
         H           -1.734237923396    -1.552534640232     0.626640354199     1.007825032230
         H           -4.035095923396    -1.221552640232     0.039442354199     1.007825032230
         H           -3.605371923396     0.370438359768    -0.634195645801     1.007825032230
         H           -3.695384923396     0.155850359768     1.121644354199     1.007825032230

  Basis Set: AUG-CC-PVTZ
    Blend: AUG-CC-PVTZ
  Basis Set: (AUG-CC-PVTZ AUX)
    Blend: AUG-CC-PVTZ-JKFIT
	 Reference Energy          =    -454.8085583484498784 [Eh]
	 Singles Energy            =      -0.0000000000000000 [Eh]
	 Same-Spin Energy          =      -0.4844615907162579 [Eh]
	 Opposite-Spin Energy      =      -1.5170063235931690 [Eh]
	 Correlation Energy        =      -2.0014679143094272 [Eh]
	 Total Energy              =    -456.8100262627593224 [Eh]

	 ================> DF-SCS-MP2 Energies <==================
	-----------------------------------------------------------
	 SCS Same-Spin Scale       =       0.3333333333333333 [-]
	 SCS Opposite-Spin Scale   =       1.2000000000000000 [-]
	 SCS Same-Spin Energy      =      -0.1614871969054193 [Eh]
	 SCS Opposite-Spin Energy  =      -1.8204075883118027 [Eh]
	 SCS Correlation Energy    =      -1.9818947852172220 [Eh]
	 SCS Total Energy          =    -456.7904531336670857 [Eh]
	-----------------------------------------------------------

  Dipole Moment: [D]
     X:     0.2555      Y:    -1.1259      Z:     1.3552     Total:     1.7803

*** Psi4 exiting successfully. Buy a developer a beer!
