                               Psi4 1.3.2 release

  ==> Input File <==

--------------------------------------------------------------------------
#psi4
#
memory 32 gb

molecule  {
0 1
  O       -1.3267430     1.3986080    -0.4043610
  N        1.4095890     0.5516460     0.0718950
  N       -2.0120760    -0.7164460     0.1311050
  C        0.3899018    -0.3653450    -0.0653227
  C        0.8200520    -1.5979270    -0.1446940
  C        2.5591820    -0.1927100     0.0828840
  C        2.2225030    -1.5310870    -0.0531270
  C       -1.0490640     0.2229840    -0.1220780
  C        1.3775260     2.0070720     0.1804590
  C       -3.4119730    -0.3353390     0.1671430
  H        0.2239390    -2.4879400    -0.3067250
  H        3.5227950     0.2883690     0.1888050
  H        2.9194420    -2.3581700    -0.0891670
  H        0.6999810     2.3106600     0.9777950
  H        2.3913760     2.3394710     0.4091260
  H        1.0337950     2.4512300    -0.7527080
  H       -1.7260750    -1.5572290     0.6147920
  H       -4.0269330    -1.2262470     0.0275940
  H       -3.5972090     0.3657440    -0.6460440
  H       -3.6872220     0.1511560     1.1097960
units angstrom
no_reorient  #important for SAPT in psi4, default
symmetry c1  #important for SAPT in psi4, default
}

set PROPERTIES_ORIGIN ["COM"]
properties('MP2/aug-cc-pvtz', properties = ['dipole'])
--------------------------------------------------------------------------

    Molecular point group: c1
  Charge       = 0
  Multiplicity = 1
  Basis Set: AUG-CC-PVTZ
    Blend: AUG-CC-PVTZ
  Basis Set: (AUG-CC-PVTZ AUX)
    Blend: AUG-CC-PVTZ-JKFIT

    Orbital Energies [Eh]
    ---------------------

    Doubly Occupied:

       1A    -20.521739     2A    -15.612344     3A    -15.585311
       4A    -11.361229     5A    -11.264043     6A    -11.262098
       7A    -11.261233     8A    -11.258392     9A    -11.219435
      10A    -11.215645    11A     -1.373111    12A     -1.308731
      13A     -1.227147    14A     -1.092963    15A     -1.007040
      16A     -0.944286    17A     -0.938716    18A     -0.812861
      19A     -0.789740    20A     -0.759161    21A     -0.727238
      22A     -0.647334    23A     -0.640515    24A     -0.635339
      25A     -0.617081    26A     -0.599181    27A     -0.584452
      28A     -0.563521    29A     -0.550348    30A     -0.547868
      31A     -0.538809    32A     -0.535392    33A     -0.517284
      34A     -0.426579    35A     -0.395186    36A     -0.351693
      37A     -0.309873

  @DF-RHF Final Energy:  -454.81043592376909

   => Energetics <=

    Nuclear Repulsion Energy =            522.7744149270168919
    One-Electron Energy =               -1655.1638621086308376
    Two-Electron Energy =                 677.5790112578447406
    Total Energy =                       -454.8104359237690915
  Basis Set: (AUG-CC-PVTZ AUX)
    Blend: AUG-CC-PVTZ-RI
    Molecular point group: c1

    Geometry (in Angstrom), charge = 0, multiplicity = 1:

       Center              X                  Y                   Z               Mass
    ------------   -----------------  -----------------  -----------------  -----------------
         O           -1.348296088516     1.407053169277    -0.393232162707    15.994914619570
         N            1.388035911484     0.560091169277     0.083023837293    14.003074004430
         N           -2.033629088516    -0.708000830723     0.142233837293    14.003074004430
         C            0.368348711484    -0.356899830723    -0.054193862707    12.000000000000
         C            0.798498911484    -1.589481830723    -0.133565162707    12.000000000000
         C            2.537628911484    -0.184264830723     0.094012837293    12.000000000000
         C            2.200949911484    -1.522641830723    -0.041998162707    12.000000000000
         C           -1.070617088516     0.231429169277    -0.110949162707    12.000000000000
         C            1.355972911484     2.015517169277     0.191587837293    12.000000000000
         C           -3.433526088516    -0.326893830723     0.178271837293    12.000000000000
         H            0.202385911484    -2.479494830723    -0.295596162707     1.007825032230
         H            3.501241911484     0.296814169277     0.199933837293     1.007825032230
         H            2.897888911484    -2.349724830723    -0.078038162707     1.007825032230
         H            0.678427911484     2.319105169277     0.988923837293     1.007825032230
         H            2.369822911484     2.347916169277     0.420254837293     1.007825032230
         H            1.012241911484     2.459675169277    -0.741579162707     1.007825032230
         H           -1.747628088516    -1.548783830723     0.625920837293     1.007825032230
         H           -4.048486088516    -1.217801830723     0.038722837293     1.007825032230
         H           -3.618762088516     0.374189169277    -0.634915162707     1.007825032230
         H           -3.708775088516     0.159601169277     1.120924837293     1.007825032230

  Basis Set: AUG-CC-PVTZ
    Blend: AUG-CC-PVTZ
  Basis Set: (AUG-CC-PVTZ AUX)
    Blend: AUG-CC-PVTZ-JKFIT
	 Reference Energy          =    -454.8104359237690915 [Eh]
	 Singles Energy            =      -0.0000000000000000 [Eh]
	 Same-Spin Energy          =      -0.4837552509911440 [Eh]
	 Opposite-Spin Energy      =      -1.5149862449079796 [Eh]
	 Correlation Energy        =      -1.9987414958991236 [Eh]
	 Total Energy              =    -456.8091774196682309 [Eh]

	 ================> DF-SCS-MP2 Energies <==================
	-----------------------------------------------------------
	 SCS Same-Spin Scale       =       0.3333333333333333 [-]
	 SCS Opposite-Spin Scale   =       1.2000000000000000 [-]
	 SCS Same-Spin Energy      =      -0.1612517503303813 [Eh]
	 SCS Opposite-Spin Energy  =      -1.8179834938895754 [Eh]
	 SCS Correlation Energy    =      -1.9792352442199568 [Eh]
	 SCS Total Energy          =    -456.7896711679890700 [Eh]
	-----------------------------------------------------------

  Dipole Moment: [D]
     X:    -0.0514      Y:    -1.1536      Z:     1.3361     Total:     1.7659

*** Psi4 exiting successfully. Buy a developer a beer!
