                               Psi4 1.3.2 release

  ==> Input File <==

--------------------------------------------------------------------------
#psi4
#
memory 32 gb

molecule  {
0 1
  O       -1.3267430     1.3986080    -0.4043610
  N        1.4095890     0.5516460     0.0718950
  N       -2.0120760    -0.7164460     0.1311050
  C        0.3280180    -0.2917100    -0.0638180
  C        0.8652765    -1.5802921    -0.1396512
  C        2.5591820    -0.1927100     0.0828840
  C        2.2225030    -1.5310870    -0.0531270
  C       -1.0490640     0.2229840    -0.1220780
  C        1.3775260     2.0070720     0.1804590
  C       -3.4119730    -0.3353390     0.1671430
  H        0.2239390    -2.4879400    -0.3067250
  H        3.5227950     0.2883690     0.1888050
  H        2.9194420    -2.3581700    -0.0891670
  H        0.6999810     2.3106600     0.9777950
  H        2.3913760     2.3394710     0.4091260
  H        1.0337950     2.4512300    -0.7527080
  H       -1.7260750    -1.5572290     0.6147920
  H       -4.0269330    -1.2262470     0.0275940
  H       -3.5972090     0.3657440    -0.6460440
  H       -3.6872220     0.1511560     1.1097960
units angstrom
no_reorient  #important for SAPT in psi4, default
symmetry c1  #important for SAPT in psi4, default
}

set PROPERTIES_ORIGIN ["COM"]
properties('MP2/aug-cc-pvtz', properties = ['dipole'])
--------------------------------------------------------------------------

    Molecular point group: c1
  Charge       = 0
  Multiplicity = 1
  Basis Set: AUG-CC-PVTZ
    Blend: AUG-CC-PVTZ
  Basis Set: (AUG-CC-PVTZ AUX)
    Blend: AUG-CC-PVTZ-JKFIT

    Orbital Energies [Eh]
    ---------------------

    Doubly Occupied:

       1A    -20.515711     2A    -15.622459     3A    -15.582589
       4A    -11.355278     5A    -11.266979     6A    -11.263169
       7A    -11.259651     8A    -11.256903     9A    -11.231451
      10A    -11.216542    11A     -1.372045    12A     -1.309121
      13A     -1.225229    14A     -1.088945    15A     -1.015548
      16A     -0.941704    17A     -0.939836    18A     -0.824856
      19A     -0.783769    20A     -0.762860    21A     -0.724192
      22A     -0.652711    23A     -0.642560    24A     -0.634609
      25A     -0.616578    26A     -0.591286    27A     -0.578354
      28A     -0.574246    29A     -0.555636    30A     -0.547097
      31A     -0.538351    32A     -0.525042    33A     -0.514992
      34A     -0.430085    35A     -0.393143    36A     -0.353685
      37A     -0.303886

  @DF-RHF Final Energy:  -454.81594119934516

   => Energetics <=

    Nuclear Repulsion Energy =            523.2651851422890559
    One-Electron Energy =               -1656.1400599956225506
    Two-Electron Energy =                 678.0589336539883334
    Total Energy =                       -454.8159411993451613
  Basis Set: (AUG-CC-PVTZ AUX)
    Blend: AUG-CC-PVTZ-RI
    Molecular point group: c1

    Geometry (in Angstrom), charge = 0, multiplicity = 1:

       Center              X                  Y                   Z               Mass
    ------------   -----------------  -----------------  -----------------  -----------------
         O           -1.346848285831     1.399121214977    -0.393801183499    15.994914619570
         N            1.389483714169     0.552159214977     0.082454816501    14.003074004430
         N           -2.032181285831    -0.715932785023     0.141664816501    14.003074004430
         C            0.307912714169    -0.291196785023    -0.053258183499    12.000000000000
         C            0.845171214169    -1.579778885023    -0.129091383499    12.000000000000
         C            2.539076714169    -0.192196785023     0.093443816501    12.000000000000
         C            2.202397714169    -1.530573785023    -0.042567183499    12.000000000000
         C           -1.069169285831     0.223497214977    -0.111518183499    12.000000000000
         C            1.357420714169     2.007585214977     0.191018816501    12.000000000000
         C           -3.432078285831    -0.334825785023     0.177702816501    12.000000000000
         H            0.203833714169    -2.487426785023    -0.296165183499     1.007825032230
         H            3.502689714169     0.288882214977     0.199364816501     1.007825032230
         H            2.899336714169    -2.357656785023    -0.078607183499     1.007825032230
         H            0.679875714169     2.311173214977     0.988354816501     1.007825032230
         H            2.371270714169     2.339984214977     0.419685816501     1.007825032230
         H            1.013689714169     2.451743214977    -0.742148183499     1.007825032230
         H           -1.746180285831    -1.556715785023     0.625351816501     1.007825032230
         H           -4.047038285831    -1.225733785023     0.038153816501     1.007825032230
         H           -3.617314285831     0.366257214977    -0.635484183499     1.007825032230
         H           -3.707327285831     0.151669214977     1.120355816501     1.007825032230

  Basis Set: AUG-CC-PVTZ
    Blend: AUG-CC-PVTZ
  Basis Set: (AUG-CC-PVTZ AUX)
    Blend: AUG-CC-PVTZ-JKFIT
	 Reference Energy          =    -454.8159411993451613 [Eh]
	 Singles Energy            =      -0.0000000000000000 [Eh]
	 Same-Spin Energy          =      -0.4857932042615916 [Eh]
	 Opposite-Spin Energy      =      -1.5172755875995954 [Eh]
	 Correlation Energy        =      -2.0030687918611871 [Eh]
	 Total Energy              =    -456.8190099912063715 [Eh]

	 ================> DF-SCS-MP2 Energies <==================
	-----------------------------------------------------------
	 SCS Same-Spin Scale       =       0.3333333333333333 [-]
	 SCS Opposite-Spin Scale   =       1.2000000000000000 [-]
	 SCS Same-Spin Energy      =      -0.1619310680871972 [Eh]
	 SCS Opposite-Spin Energy  =      -1.8207307051195143 [Eh]
	 SCS Correlation Energy    =      -1.9826617732067116 [Eh]
	 SCS Total Energy          =    -456.7986029725518620 [Eh]
	-----------------------------------------------------------

  Dipole Moment: [D]
     X:     0.3109      Y:    -1.2024      Z:     1.3608     Total:     1.8423

*** Psi4 exiting successfully. Buy a developer a beer!
