                               Psi4 1.3.2 release

  ==> Input File <==

--------------------------------------------------------------------------
#psi4
#
memory 32 gb

molecule  {
0 1
  O       -1.3267430     1.3986080    -0.4043610
  N        1.4095890     0.5516460     0.0718950
  N       -2.0120760    -0.7164460     0.1311050
  C        0.3280180    -0.2917100    -0.0638180
  C        0.8200520    -1.5979270    -0.1446940
  C        2.5591820    -0.1927100     0.0828840
  C        2.2225030    -1.5310870    -0.0531270
  C       -1.0490640     0.2229840    -0.1220780
  C        1.3753296     2.1067709     0.1878958
  C       -3.4119730    -0.3353390     0.1671430
  H        0.2239390    -2.4879400    -0.3067250
  H        3.5227950     0.2883690     0.1888050
  H        2.9194420    -2.3581700    -0.0891670
  H        0.6999810     2.3106600     0.9777950
  H        2.3913760     2.3394710     0.4091260
  H        1.0337950     2.4512300    -0.7527080
  H       -1.7260750    -1.5572290     0.6147920
  H       -4.0269330    -1.2262470     0.0275940
  H       -3.5972090     0.3657440    -0.6460440
  H       -3.6872220     0.1511560     1.1097960
units angstrom
no_reorient  #important for SAPT in psi4, default
symmetry c1  #important for SAPT in psi4, default
}

set PROPERTIES_ORIGIN ["COM"]
properties('MP2/aug-cc-pvtz', properties = ['dipole'])
--------------------------------------------------------------------------

    Molecular point group: c1
  Charge       = 0
  Multiplicity = 1
  Basis Set: AUG-CC-PVTZ
    Blend: AUG-CC-PVTZ
  Basis Set: (AUG-CC-PVTZ AUX)
    Blend: AUG-CC-PVTZ-JKFIT

    Orbital Energies [Eh]
    ---------------------

    Doubly Occupied:

       1A    -20.515419     2A    -15.617170     3A    -15.581925
       4A    -11.353588     5A    -11.268318     6A    -11.263618
       7A    -11.259436     8A    -11.256558     9A    -11.229213
      10A    -11.217334    11A     -1.371062    12A     -1.293339
      13A     -1.224623    14A     -1.069649    15A     -1.012621
      16A     -0.945356    17A     -0.939426    18A     -0.823389
      19A     -0.781505    20A     -0.759632    21A     -0.715795
      22A     -0.648013    23A     -0.641008    24A     -0.634605
      25A     -0.617963    26A     -0.603644    27A     -0.573855
      28A     -0.559059    29A     -0.550165    30A     -0.548808
      31A     -0.541060    32A     -0.537832    33A     -0.515846
      34A     -0.429635    35A     -0.392884    36A     -0.346094
      37A     -0.303468

  @DF-RHF Final Energy:  -454.81204497453791

   => Energetics <=

    Nuclear Repulsion Energy =            520.8623519341562087
    One-Electron Energy =               -1651.4629678079693349
    Two-Electron Energy =                 675.7885708992753280
    Total Energy =                       -454.8120449745379119
  Basis Set: (AUG-CC-PVTZ AUX)
    Blend: AUG-CC-PVTZ-RI
    Molecular point group: c1

    Geometry (in Angstrom), charge = 0, multiplicity = 1:

       Center              X                  Y                   Z               Mass
    ------------   -----------------  -----------------  -----------------  -----------------
         O           -1.342727097886     1.391989313906    -0.394009237836    15.994914619570
         N            1.393604902114     0.545027313906     0.082246762164    14.003074004430
         N           -2.028060097886    -0.723064686094     0.141456762164    14.003074004430
         C            0.312033902114    -0.298328686094    -0.053466237836    12.000000000000
         C            0.804067902114    -1.604545686094    -0.134342237836    12.000000000000
         C            2.543197902114    -0.199328686094     0.093235762164    12.000000000000
         C            2.206518902114    -1.537705686094    -0.042775237836    12.000000000000
         C           -1.065048097886     0.216365313906    -0.111726237836    12.000000000000
         C            1.359345502114     2.100152213906     0.198247562164    12.000000000000
         C           -3.427957097886    -0.341957686094     0.177494762164    12.000000000000
         H            0.207954902114    -2.494558686094    -0.296373237836     1.007825032230
         H            3.506810902114     0.281750313906     0.199156762164     1.007825032230
         H            2.903457902114    -2.364788686094    -0.078815237836     1.007825032230
         H            0.683996902114     2.304041313906     0.988146762164     1.007825032230
         H            2.375391902114     2.332852313906     0.419477762164     1.007825032230
         H            1.017810902114     2.444611313906    -0.742356237836     1.007825032230
         H           -1.742059097886    -1.563847686094     0.625143762164     1.007825032230
         H           -4.042917097886    -1.232865686094     0.037945762164     1.007825032230
         H           -3.613193097886     0.359125313906    -0.635692237836     1.007825032230
         H           -3.703206097886     0.144537313906     1.120147762164     1.007825032230

  Basis Set: AUG-CC-PVTZ
    Blend: AUG-CC-PVTZ
  Basis Set: (AUG-CC-PVTZ AUX)
    Blend: AUG-CC-PVTZ-JKFIT
	 Reference Energy          =    -454.8120449745379119 [Eh]
	 Singles Energy            =      -0.0000000000000000 [Eh]
	 Same-Spin Energy          =      -0.4850104453471594 [Eh]
	 Opposite-Spin Energy      =      -1.5172242555743063 [Eh]
	 Correlation Energy        =      -2.0022347009214658 [Eh]
	 Total Energy              =    -456.8142796754593746 [Eh]

	 ================> DF-SCS-MP2 Energies <==================
	-----------------------------------------------------------
	 SCS Same-Spin Scale       =       0.3333333333333333 [-]
	 SCS Opposite-Spin Scale   =       1.2000000000000000 [-]
	 SCS Same-Spin Energy      =      -0.1616701484490531 [Eh]
	 SCS Opposite-Spin Energy  =      -1.8206691066891674 [Eh]
	 SCS Correlation Energy    =      -1.9823392551382204 [Eh]
	 SCS Total Energy          =    -456.7943842296761545 [Eh]
	-----------------------------------------------------------

  Dipole Moment: [D]
     X:     0.3088      Y:    -0.9105      Z:     1.3812     Total:     1.6829

*** Psi4 exiting successfully. Buy a developer a beer!
