                               Psi4 1.4a3.dev225

  ==> Input File <==

--------------------------------------------------------------------------
#psi4
#
memory 32 gb

molecule  {
0 1
  O       -1.3267430     1.3986080    -0.4043610
  N        1.4095890     0.5516460     0.0718950
  N       -2.0120760    -0.7164460     0.1311050
  C        0.3280180    -0.2917100    -0.0638180
  C        0.8200520    -1.5979270    -0.1446940
  C        2.5591820    -0.1927100     0.0828840
  C        2.2424380    -1.5301369    -0.0518254
  C       -1.0490640     0.2229840    -0.1220780
  C        1.3775260     2.0070720     0.1804590
  C       -3.4119730    -0.3353390     0.1671430
  H        0.2239390    -2.4879400    -0.3067250
  H        3.5227950     0.2883690     0.1888050
  H        2.9194420    -2.3581700    -0.0891670
  H        0.6999810     2.3106600     0.9777950
  H        2.3913760     2.3394710     0.4091260
  H        1.0337950     2.4512300    -0.7527080
  H       -1.7260750    -1.5572290     0.6147920
  H       -4.0269330    -1.2262470     0.0275940
  H       -3.5972090     0.3657440    -0.6460440
  H       -3.6872220     0.1511560     1.1097960
units angstrom
no_reorient  #important for SAPT in psi4, default
symmetry c1  #important for SAPT in psi4, default
}

set PROPERTIES_ORIGIN ["COM"]
properties('MP2/aug-cc-pvtz', properties = ['dipole'])
--------------------------------------------------------------------------

    Molecular point group: c1
  Charge       = 0
  Multiplicity = 1
  Basis Set: AUG-CC-PVTZ
    Blend: AUG-CC-PVTZ
  Basis Set: (AUG-CC-PVTZ AUX)
    Blend: AUG-CC-PVTZ-JKFIT

    Orbital Energies [Eh]
    ---------------------

    Doubly Occupied:

       1A    -20.516753     2A    -15.619609     3A    -15.583267
       4A    -11.355417     5A    -11.266949     6A    -11.263842
       7A    -11.263125     8A    -11.257390     9A    -11.234482
      10A    -11.220790    11A     -1.372784    12A     -1.306024
      13A     -1.225983    14A     -1.079992    15A     -1.017003
      16A     -0.942032    17A     -0.936417    18A     -0.826089
      19A     -0.788079    20A     -0.761857    21A     -0.724736
      22A     -0.650808    23A     -0.642130    24A     -0.635130
      25A     -0.617148    26A     -0.595690    27A     -0.580059
      28A     -0.574549    29A     -0.548659    30A     -0.545207
      31A     -0.536888    32A     -0.534344    33A     -0.513436
      34A     -0.430087    35A     -0.393604    36A     -0.345331
      37A     -0.308629

  @DF-RHF Final Energy:  -454.81980381292414

   => Energetics <=

    Nuclear Repulsion Energy =            522.4778276035003728
    One-Electron Energy =               -1654.5666258496507908
    Two-Electron Energy =                 677.2689944332262257
    Total Energy =                       -454.8198038129241922
  Basis Set: (AUG-CC-PVTZ AUX)
    Blend: AUG-CC-PVTZ-RI
    Molecular point group: c1

    Geometry (in Angstrom), charge = 0, multiplicity = 1:

       Center              X                  Y                   Z               Mass
    ------------   -----------------  -----------------  -----------------  -----------------
         O           -1.344650462033     1.400571233780    -0.393476048625    15.994914619570
         N            1.391681537967     0.553609233780     0.082779951375    14.003074004430
         N           -2.029983462033    -0.714482766220     0.141989951375    14.003074004430
         C            0.310110537967    -0.289746766220    -0.052933048625    12.000000000000
         C            0.802144537967    -1.595963766220    -0.133809048625    12.000000000000
         C            2.541274537967    -0.190746766220     0.093768951375    12.000000000000
         C            2.224530537967    -1.528173666220    -0.040940448625    12.000000000000
         C           -1.066971462033     0.224947233780    -0.111193048625    12.000000000000
         C            1.359618537967     2.009035233780     0.191343951375    12.000000000000
         C           -3.429880462033    -0.333375766220     0.178027951375    12.000000000000
         H            0.206031537967    -2.485976766220    -0.295840048625     1.007825032230
         H            3.504887537967     0.290332233780     0.199689951375     1.007825032230
         H            2.901534537967    -2.356206766220    -0.078282048625     1.007825032230
         H            0.682073537967     2.312623233780     0.988679951375     1.007825032230
         H            2.373468537967     2.341434233780     0.420010951375     1.007825032230
         H            1.015887537967     2.453193233780    -0.741823048625     1.007825032230
         H           -1.743982462033    -1.555265766220     0.625676951375     1.007825032230
         H           -4.044840462033    -1.224283766220     0.038478951375     1.007825032230
         H           -3.615116462033     0.367707233780    -0.635159048625     1.007825032230
         H           -3.705129462033     0.153119233780     1.120680951375     1.007825032230

  Basis Set: AUG-CC-PVTZ
    Blend: AUG-CC-PVTZ
  Basis Set: (AUG-CC-PVTZ AUX)
    Blend: AUG-CC-PVTZ-JKFIT
	 Reference Energy          =    -454.8198038129241354 [Eh]
	 Singles Energy            =      -0.0000000000000000 [Eh]
	 Same-Spin Energy          =      -0.4849752648108003 [Eh]
	 Opposite-Spin Energy      =      -1.5166639837284830 [Eh]
	 Correlation Energy        =      -2.0016392485392833 [Eh]
	 Total Energy              =    -456.8214430614634125 [Eh]

	 ================> DF-SCS-MP2 Energies <==================
	-----------------------------------------------------------
	 SCS Same-Spin Scale       =       0.3333333333333333 [-]
	 SCS Opposite-Spin Scale   =       1.2000000000000000 [-]
	 SCS Same-Spin Energy      =      -0.1616584216036001 [Eh]
	 SCS Opposite-Spin Energy  =      -1.8199967804741795 [Eh]
	 SCS Correlation Energy    =      -1.9816552020777796 [Eh]
	 SCS Total Energy          =    -456.8014590150019103 [Eh]
	-----------------------------------------------------------

  Dipole Moment: [D]
     X:     0.2668      Y:    -1.1814      Z:     1.3569     Total:     1.8189

*** Psi4 exiting successfully. Buy a developer a beer!
