                               Psi4 1.3.2 release

  ==> Input File <==

--------------------------------------------------------------------------
#psi4
#
memory 32 gb

molecule  {
0 1
  O       -1.3267430     1.3986080    -0.4043610
  N        1.3596150     0.5521781     0.0619599
  N       -2.0120760    -0.7164460     0.1311050
  C        0.3280180    -0.2917100    -0.0638180
  C        0.8200520    -1.5979270    -0.1446940
  C        2.5591820    -0.1927100     0.0828840
  C        2.2225030    -1.5310870    -0.0531270
  C       -1.0490640     0.2229840    -0.1220780
  C        1.3775260     2.0070720     0.1804590
  C       -3.4119730    -0.3353390     0.1671430
  H        0.2239390    -2.4879400    -0.3067250
  H        3.5227950     0.2883690     0.1888050
  H        2.9194420    -2.3581700    -0.0891670
  H        0.6999810     2.3106600     0.9777950
  H        2.3913760     2.3394710     0.4091260
  H        1.0337950     2.4512300    -0.7527080
  H       -1.7260750    -1.5572290     0.6147920
  H       -4.0269330    -1.2262470     0.0275940
  H       -3.5972090     0.3657440    -0.6460440
  H       -3.6872220     0.1511560     1.1097960
units angstrom
no_reorient  #important for SAPT in psi4, default
symmetry c1  #important for SAPT in psi4, default
}

set PROPERTIES_ORIGIN ["COM"]
properties('MP2/aug-cc-pvtz', properties = ['dipole'])
--------------------------------------------------------------------------

    Molecular point group: c1
  Charge       = 0
  Multiplicity = 1
  Basis Set: AUG-CC-PVTZ
    Blend: AUG-CC-PVTZ
  Basis Set: (AUG-CC-PVTZ AUX)
    Blend: AUG-CC-PVTZ-JKFIT

    Orbital Energies [Eh]
    ---------------------

    Doubly Occupied:

       1A    -20.518191     2A    -15.620182     3A    -15.583956
       4A    -11.355567     5A    -11.265664     6A    -11.264213
       7A    -11.263429     8A    -11.257752     9A    -11.228401
      10A    -11.223587    11A     -1.374495    12A     -1.306342
      13A     -1.226655    14A     -1.081671    15A     -1.016757
      16A     -0.945792    17A     -0.933459    18A     -0.826233
      19A     -0.786603    20A     -0.762478    21A     -0.724529
      22A     -0.650186    23A     -0.642881    24A     -0.636084
      25A     -0.617149    26A     -0.593913    27A     -0.584744
      28A     -0.568405    29A     -0.551176    30A     -0.547702
      31A     -0.538359    32A     -0.531638    33A     -0.512640
      34A     -0.430871    35A     -0.394116    36A     -0.348214
      37A     -0.305132

  @DF-RHF Final Energy:  -454.81597442861238

   => Energetics <=

    Nuclear Repulsion Energy =            523.2050945555846511
    One-Electron Energy =               -1656.0038076245284628
    Two-Electron Energy =                 677.9827386403314904
    Total Energy =                       -454.8159744286124351
  Basis Set: (AUG-CC-PVTZ AUX)
    Blend: AUG-CC-PVTZ-RI
    Molecular point group: c1

    Geometry (in Angstrom), charge = 0, multiplicity = 1:

       Center              X                  Y                   Z               Mass
    ------------   -----------------  -----------------  -----------------  -----------------
         O           -1.337849952962     1.400599841717    -0.392355380096    15.994914619570
         N            1.348508047038     0.554169941717     0.073965519904    14.003074004430
         N           -2.023182952962    -0.714454158283     0.143110619904    14.003074004430
         C            0.316911047038    -0.289718158283    -0.051812380096    12.000000000000
         C            0.808945047038    -1.595935158283    -0.132688380096    12.000000000000
         C            2.548075047038    -0.190718158283     0.094889619904    12.000000000000
         C            2.211396047038    -1.529095158283    -0.041121380096    12.000000000000
         C           -1.060170952962     0.224975841717    -0.110072380096    12.000000000000
         C            1.366419047038     2.009063841717     0.192464619904    12.000000000000
         C           -3.423079952962    -0.333347158283     0.179148619904    12.000000000000
         H            0.212832047038    -2.485948158283    -0.294719380096     1.007825032230
         H            3.511688047038     0.290360841717     0.200810619904     1.007825032230
         H            2.908335047038    -2.356178158283    -0.077161380096     1.007825032230
         H            0.688874047038     2.312651841717     0.989800619904     1.007825032230
         H            2.380269047038     2.341462841717     0.421131619904     1.007825032230
         H            1.022688047038     2.453221841717    -0.740702380096     1.007825032230
         H           -1.737181952962    -1.555237158283     0.626797619904     1.007825032230
         H           -4.038039952962    -1.224255158283     0.039599619904     1.007825032230
         H           -3.608315952962     0.367735841717    -0.634038380096     1.007825032230
         H           -3.698328952962     0.153147841717     1.121801619904     1.007825032230

  Basis Set: AUG-CC-PVTZ
    Blend: AUG-CC-PVTZ
  Basis Set: (AUG-CC-PVTZ AUX)
    Blend: AUG-CC-PVTZ-JKFIT
	 Reference Energy          =    -454.8159744286123782 [Eh]
	 Singles Energy            =      -0.0000000000000000 [Eh]
	 Same-Spin Energy          =      -0.4855443995627444 [Eh]
	 Opposite-Spin Energy      =      -1.5176553273857989 [Eh]
	 Correlation Energy        =      -2.0031997269485435 [Eh]
	 Total Energy              =    -456.8191741555609156 [Eh]

	 ================> DF-SCS-MP2 Energies <==================
	-----------------------------------------------------------
	 SCS Same-Spin Scale       =       0.3333333333333333 [-]
	 SCS Opposite-Spin Scale   =       1.2000000000000000 [-]
	 SCS Same-Spin Energy      =      -0.1618481331875815 [Eh]
	 SCS Opposite-Spin Energy  =      -1.8211863928629586 [Eh]
	 SCS Correlation Energy    =      -1.9830345260505400 [Eh]
	 SCS Total Energy          =    -456.7990089546628951 [Eh]
	-----------------------------------------------------------

  Dipole Moment: [D]
     X:     0.2761      Y:    -1.1841      Z:     1.3612     Total:     1.8251

*** Psi4 exiting successfully. Buy a developer a beer!
