                               Psi4 1.4a3.dev225

  ==> Input File <==

--------------------------------------------------------------------------
#psi4
#
memory 32 gb

molecule  {
0 1
  O       -1.3267430     1.3986080    -0.4043610
  N        1.4095890     0.5516460     0.0718950
  N       -2.0120760    -0.7164460     0.1311050
  C        0.3280180    -0.2917100    -0.0638180
  C        0.8130137    -1.5792422    -0.1435371
  C        2.5591820    -0.1927100     0.0828840
  C        2.2225030    -1.5310870    -0.0531270
  C       -1.0490640     0.2229840    -0.1220780
  C        1.3775260     2.0070720     0.1804590
  C       -3.4119730    -0.3353390     0.1671430
  H        0.2239390    -2.4879400    -0.3067250
  H        3.5227950     0.2883690     0.1888050
  H        2.9194420    -2.3581700    -0.0891670
  H        0.6999810     2.3106600     0.9777950
  H        2.3913760     2.3394710     0.4091260
  H        1.0337950     2.4512300    -0.7527080
  H       -1.7260750    -1.5572290     0.6147920
  H       -4.0269330    -1.2262470     0.0275940
  H       -3.5972090     0.3657440    -0.6460440
  H       -3.6872220     0.1511560     1.1097960
units angstrom
no_reorient  #important for SAPT in psi4, default
symmetry c1  #important for SAPT in psi4, default
}

set PROPERTIES_ORIGIN ["COM"]
properties('MP2/aug-cc-pvtz', properties = ['dipole'])
--------------------------------------------------------------------------

    Molecular point group: c1
  Charge       = 0
  Multiplicity = 1
  Basis Set: AUG-CC-PVTZ
    Blend: AUG-CC-PVTZ
  Basis Set: (AUG-CC-PVTZ AUX)
    Blend: AUG-CC-PVTZ-JKFIT

    Orbital Energies [Eh]
    ---------------------

    Doubly Occupied:

       1A    -20.516627     2A    -15.618899     3A    -15.583235
       4A    -11.355258     5A    -11.267171     6A    -11.262747
       7A    -11.261274     8A    -11.257375     9A    -11.231965
      10A    -11.220250    11A     -1.372743    12A     -1.307088
      13A     -1.225994    14A     -1.082802    15A     -1.017338
      16A     -0.942149    17A     -0.936519    18A     -0.825345
      19A     -0.787251    20A     -0.762175    21A     -0.724352
      22A     -0.650917    23A     -0.642385    24A     -0.635070
      25A     -0.616950    26A     -0.594140    27A     -0.578262
      28A     -0.574592    29A     -0.548555    30A     -0.547596
      31A     -0.537585    32A     -0.532597    33A     -0.513855
      34A     -0.430138    35A     -0.393559    36A     -0.346928
      37A     -0.309036

  @DF-RHF Final Energy:  -454.82017104320687

   => Energetics <=

    Nuclear Repulsion Energy =            523.1277084603985941
    One-Electron Energy =               -1655.8743160773910859
    Two-Electron Energy =                 677.9264365737857361
    Total Energy =                       -454.8201710432068694
  Basis Set: (AUG-CC-PVTZ AUX)
    Blend: AUG-CC-PVTZ-RI
    Molecular point group: c1

    Geometry (in Angstrom), charge = 0, multiplicity = 1:

       Center              X                  Y                   Z               Mass
    ------------   -----------------  -----------------  -----------------  -----------------
         O           -1.342306304946     1.399029971765    -0.393463473244    15.994914619570
         N            1.394025695054     0.552067971765     0.082792526756    14.003074004430
         N           -2.027639304946    -0.716024028235     0.142002526756    14.003074004430
         C            0.312454695054    -0.291288028235    -0.052920473244    12.000000000000
         C            0.797450395054    -1.578820228235    -0.132639573244    12.000000000000
         C            2.543618695054    -0.192288028235     0.093781526756    12.000000000000
         C            2.206939695054    -1.530665028235    -0.042229473244    12.000000000000
         C           -1.064627304946     0.223405971765    -0.111180473244    12.000000000000
         C            1.361962695054     2.007493971765     0.191356526756    12.000000000000
         C           -3.427536304946    -0.334917028235     0.178040526756    12.000000000000
         H            0.208375695054    -2.487518028235    -0.295827473244     1.007825032230
         H            3.507231695054     0.288790971765     0.199702526756     1.007825032230
         H            2.903878695054    -2.357748028235    -0.078269473244     1.007825032230
         H            0.684417695054     2.311081971765     0.988692526756     1.007825032230
         H            2.375812695054     2.339892971765     0.420023526756     1.007825032230
         H            1.018231695054     2.451651971765    -0.741810473244     1.007825032230
         H           -1.741638304946    -1.556807028235     0.625689526756     1.007825032230
         H           -4.042496304946    -1.225825028235     0.038491526756     1.007825032230
         H           -3.612772304946     0.366165971765    -0.635146473244     1.007825032230
         H           -3.702785304946     0.151577971765     1.120693526756     1.007825032230

  Basis Set: AUG-CC-PVTZ
    Blend: AUG-CC-PVTZ
  Basis Set: (AUG-CC-PVTZ AUX)
    Blend: AUG-CC-PVTZ-JKFIT
	 Reference Energy          =    -454.8201710432068694 [Eh]
	 Singles Energy            =      -0.0000000000000000 [Eh]
	 Same-Spin Energy          =      -0.4849568210289061 [Eh]
	 Opposite-Spin Energy      =      -1.5164538293793353 [Eh]
	 Correlation Energy        =      -2.0014106504082414 [Eh]
	 Total Energy              =    -456.8215816936150873 [Eh]

	 ================> DF-SCS-MP2 Energies <==================
	-----------------------------------------------------------
	 SCS Same-Spin Scale       =       0.3333333333333333 [-]
	 SCS Opposite-Spin Scale   =       1.2000000000000000 [-]
	 SCS Same-Spin Energy      =      -0.1616522736763020 [Eh]
	 SCS Opposite-Spin Energy  =      -1.8197445952552023 [Eh]
	 SCS Correlation Energy    =      -1.9813968689315042 [Eh]
	 SCS Total Energy          =    -456.8015679121383528 [Eh]
	-----------------------------------------------------------

  Dipole Moment: [D]
     X:     0.2623      Y:    -1.1940      Z:     1.3572     Total:     1.8266

*** Psi4 exiting successfully. Buy a developer a beer!
