                               Psi4 1.3.2 release

  ==> Input File <==

--------------------------------------------------------------------------
#psi4
#
memory 32 gb

molecule  {
0 1
  O       -1.3267430     1.3986080    -0.4043610
  N        1.4095890     0.5516460     0.0718950
  N       -2.0120760    -0.7164460     0.1311050
  C        0.3280180    -0.2917100    -0.0638180
  C        0.7742280    -1.6139705    -0.1496382
  C        2.5591820    -0.1927100     0.0828840
  C        2.2225030    -1.5310870    -0.0531270
  C       -1.0490640     0.2229840    -0.1220780
  C        1.3775260     2.0070720     0.1804590
  C       -3.4119730    -0.3353390     0.1671430
  H        0.2239390    -2.4879400    -0.3067250
  H        3.5227950     0.2883690     0.1888050
  H        2.9194420    -2.3581700    -0.0891670
  H        0.6999810     2.3106600     0.9777950
  H        2.3913760     2.3394710     0.4091260
  H        1.0337950     2.4512300    -0.7527080
  H       -1.7260750    -1.5572290     0.6147920
  H       -4.0269330    -1.2262470     0.0275940
  H       -3.5972090     0.3657440    -0.6460440
  H       -3.6872220     0.1511560     1.1097960
units angstrom
no_reorient  #important for SAPT in psi4, default
symmetry c1  #important for SAPT in psi4, default
}

set PROPERTIES_ORIGIN ["COM"]
properties('MP2/aug-cc-pvtz', properties = ['dipole'])
--------------------------------------------------------------------------

    Molecular point group: c1
  Charge       = 0
  Multiplicity = 1
  Basis Set: AUG-CC-PVTZ
    Blend: AUG-CC-PVTZ
  Basis Set: (AUG-CC-PVTZ AUX)
    Blend: AUG-CC-PVTZ-JKFIT

    Orbital Energies [Eh]
    ---------------------

    Doubly Occupied:

       1A    -20.516627     2A    -15.619561     3A    -15.583234
       4A    -11.354550     5A    -11.267318     6A    -11.266529
       7A    -11.263592     8A    -11.257435     9A    -11.234099
      10A    -11.224381    11A     -1.372672    12A     -1.304958
      13A     -1.226071    14A     -1.076931    15A     -1.016710
      16A     -0.941645    17A     -0.936460    18A     -0.826326
      19A     -0.790228    20A     -0.761247    21A     -0.726095
      22A     -0.649919    23A     -0.641779    24A     -0.635384
      25A     -0.617613    26A     -0.600479    27A     -0.580228
      28A     -0.573594    29A     -0.549100    30A     -0.542809
      31A     -0.538005    32A     -0.533846    33A     -0.512444
      34A     -0.429126    35A     -0.393530    36A     -0.342668
      37A     -0.309531

  @DF-RHF Final Energy:  -454.81725756709625

   => Energetics <=

    Nuclear Repulsion Energy =            522.3109296827626622
    One-Electron Energy =               -1654.2229315924143975
    Two-Electron Energy =                 677.0947443425554866
    Total Energy =                       -454.8172575670962487
  Basis Set: (AUG-CC-PVTZ AUX)
    Blend: AUG-CC-PVTZ-RI
    Molecular point group: c1

    Geometry (in Angstrom), charge = 0, multiplicity = 1:

       Center              X                  Y                   Z               Mass
    ------------   -----------------  -----------------  -----------------  -----------------
         O           -1.338935572647     1.402048089332    -0.392933247546    15.994914619570
         N            1.397396427353     0.555086089332     0.083322752454    14.003074004430
         N           -2.024268572647    -0.713005910668     0.142532752454    14.003074004430
         C            0.315825427353    -0.288269910668    -0.052390247546    12.000000000000
         C            0.762035427353    -1.610530410668    -0.138210447546    12.000000000000
         C            2.546989427353    -0.189269910668     0.094311752454    12.000000000000
         C            2.210310427353    -1.527646910668    -0.041699247546    12.000000000000
         C           -1.061256572647     0.226424089332    -0.110650247546    12.000000000000
         C            1.365333427353     2.010512089332     0.191886752454    12.000000000000
         C           -3.424165572647    -0.331898910668     0.178570752454    12.000000000000
         H            0.211746427353    -2.484499910668    -0.295297247546     1.007825032230
         H            3.510602427353     0.291809089332     0.200232752454     1.007825032230
         H            2.907249427353    -2.354729910668    -0.077739247546     1.007825032230
         H            0.687788427353     2.314100089332     0.989222752454     1.007825032230
         H            2.379183427353     2.342911089332     0.420553752454     1.007825032230
         H            1.021602427353     2.454670089332    -0.741280247546     1.007825032230
         H           -1.738267572647    -1.553788910668     0.626219752454     1.007825032230
         H           -4.039125572647    -1.222806910668     0.039021752454     1.007825032230
         H           -3.609401572647     0.369184089332    -0.634616247546     1.007825032230
         H           -3.699414572647     0.154596089332     1.121223752454     1.007825032230

  Basis Set: AUG-CC-PVTZ
    Blend: AUG-CC-PVTZ
  Basis Set: (AUG-CC-PVTZ AUX)
    Blend: AUG-CC-PVTZ-JKFIT
	 Reference Energy          =    -454.8172575670962487 [Eh]
	 Singles Energy            =      -0.0000000000000000 [Eh]
	 Same-Spin Energy          =      -0.4848027884159936 [Eh]
	 Opposite-Spin Energy      =      -1.5167604879613354 [Eh]
	 Correlation Energy        =      -2.0015632763773290 [Eh]
	 Total Energy              =    -456.8188208434735884 [Eh]

	 ================> DF-SCS-MP2 Energies <==================
	-----------------------------------------------------------
	 SCS Same-Spin Scale       =       0.3333333333333333 [-]
	 SCS Opposite-Spin Scale   =       1.2000000000000000 [-]
	 SCS Same-Spin Energy      =      -0.1616009294719978 [Eh]
	 SCS Opposite-Spin Energy  =      -1.8201125855536024 [Eh]
	 SCS Correlation Energy    =      -1.9817135150256002 [Eh]
	 SCS Total Energy          =    -456.7989710821218523 [Eh]
	-----------------------------------------------------------

  Dipole Moment: [D]
     X:     0.2661      Y:    -1.1570      Z:     1.3561     Total:     1.8023

*** Psi4 exiting successfully. Buy a developer a beer!
