                               Psi4 1.3.2 release

  ==> Input File <==

--------------------------------------------------------------------------
#psi4
#
memory 32 gb

molecule  {
0 1
  O       -1.4102921     1.3779793    -0.3948072
  N        1.4095890     0.5516460     0.0718950
  N       -2.0120760    -0.7164460     0.1311050
  C        0.3280180    -0.2917100    -0.0638180
  C        0.8200520    -1.5979270    -0.1446940
  C        2.5591820    -0.1927100     0.0828840
  C        2.2225030    -1.5310870    -0.0531270
  C       -1.0490640     0.2229840    -0.1220780
  C        1.3775260     2.0070720     0.1804590
  C       -3.4119730    -0.3353390     0.1671430
  H        0.2239390    -2.4879400    -0.3067250
  H        3.5227950     0.2883690     0.1888050
  H        2.9194420    -2.3581700    -0.0891670
  H        0.6999810     2.3106600     0.9777950
  H        2.3913760     2.3394710     0.4091260
  H        1.0337950     2.4512300    -0.7527080
  H       -1.7260750    -1.5572290     0.6147920
  H       -4.0269330    -1.2262470     0.0275940
  H       -3.5972090     0.3657440    -0.6460440
  H       -3.6872220     0.1511560     1.1097960
units angstrom
no_reorient  #important for SAPT in psi4, default
symmetry c1  #important for SAPT in psi4, default
}

set PROPERTIES_ORIGIN ["COM"]
properties('MP2/aug-cc-pvtz', properties = ['dipole'])
--------------------------------------------------------------------------

    Molecular point group: c1
  Charge       = 0
  Multiplicity = 1
  Basis Set: AUG-CC-PVTZ
    Blend: AUG-CC-PVTZ
  Basis Set: (AUG-CC-PVTZ AUX)
    Blend: AUG-CC-PVTZ-JKFIT

    Orbital Energies [Eh]
    ---------------------

    Doubly Occupied:

       1A    -20.514278     2A    -15.623248     3A    -15.578277
       4A    -11.353889     5A    -11.269318     6A    -11.266215
       7A    -11.266096     8A    -11.253639     9A    -11.235508
      10A    -11.222628    11A     -1.372326    12A     -1.309650
      13A     -1.219403    14A     -1.084709    15A     -1.018189
      16A     -0.940679    17A     -0.939369    18A     -0.825728
      19A     -0.788533    20A     -0.759859    21A     -0.726720
      22A     -0.651305    23A     -0.642825    24A     -0.633659
      25A     -0.616238    26A     -0.595409    27A     -0.581812
      28A     -0.572996    29A     -0.551851    30A     -0.544380
      31A     -0.538211    32A     -0.533274    33A     -0.513471
      34A     -0.429643    35A     -0.389420    36A     -0.349903
      37A     -0.309088

  @DF-RHF Final Energy:  -454.81838189625842

   => Energetics <=

    Nuclear Repulsion Energy =            522.3765441132591150
    One-Electron Energy =               -1654.3463586104758178
    Two-Electron Energy =                 677.1514326009582874
    Total Energy =                       -454.8183818962584155
  Basis Set: (AUG-CC-PVTZ AUX)
    Blend: AUG-CC-PVTZ-RI
    Molecular point group: c1

    Geometry (in Angstrom), charge = 0, multiplicity = 1:

       Center              X                  Y                   Z               Mass
    ------------   -----------------  -----------------  -----------------  -----------------
         O           -1.416788868517     1.382414703491    -0.384915829867    15.994914619570
         N            1.403092231483     0.556081403491     0.081786370133    14.003074004430
         N           -2.018572768517    -0.712010596509     0.140996370133    14.003074004430
         C            0.321521231483    -0.287274596509    -0.053926629867    12.000000000000
         C            0.813555231483    -1.593491596509    -0.134802629867    12.000000000000
         C            2.552685231483    -0.188274596509     0.092775370133    12.000000000000
         C            2.216006231483    -1.526651596509    -0.043235629867    12.000000000000
         C           -1.055560768517     0.227419403491    -0.112186629867    12.000000000000
         C            1.371029231483     2.011507403491     0.190350370133    12.000000000000
         C           -3.418469768517    -0.330903596509     0.177034370133    12.000000000000
         H            0.217442231483    -2.483504596509    -0.296833629867     1.007825032230
         H            3.516298231483     0.292804403491     0.198696370133     1.007825032230
         H            2.912945231483    -2.353734596509    -0.079275629867     1.007825032230
         H            0.693484231483     2.315095403491     0.987686370133     1.007825032230
         H            2.384879231483     2.343906403491     0.419017370133     1.007825032230
         H            1.027298231483     2.455665403491    -0.742816629867     1.007825032230
         H           -1.732571768517    -1.552793596509     0.624683370133     1.007825032230
         H           -4.033429768517    -1.221811596509     0.037485370133     1.007825032230
         H           -3.603705768517     0.370179403491    -0.636152629867     1.007825032230
         H           -3.693718768517     0.155591403491     1.119687370133     1.007825032230

  Basis Set: AUG-CC-PVTZ
    Blend: AUG-CC-PVTZ
  Basis Set: (AUG-CC-PVTZ AUX)
    Blend: AUG-CC-PVTZ-JKFIT
	 Reference Energy          =    -454.8183818962584155 [Eh]
	 Singles Energy            =      -0.0000000000000000 [Eh]
	 Same-Spin Energy          =      -0.4853314698269595 [Eh]
	 Opposite-Spin Energy      =      -1.5169409151606563 [Eh]
	 Correlation Energy        =      -2.0022723849876156 [Eh]
	 Total Energy              =    -456.8206542812460498 [Eh]

	 ================> DF-SCS-MP2 Energies <==================
	-----------------------------------------------------------
	 SCS Same-Spin Scale       =       0.3333333333333333 [-]
	 SCS Opposite-Spin Scale   =       1.2000000000000000 [-]
	 SCS Same-Spin Energy      =      -0.1617771566089865 [Eh]
	 SCS Opposite-Spin Energy  =      -1.8203290981927875 [Eh]
	 SCS Correlation Energy    =      -1.9821062548017740 [Eh]
	 SCS Total Energy          =    -456.8004881510601649 [Eh]
	-----------------------------------------------------------

  Dipole Moment: [D]
     X:     0.6103      Y:    -1.1448      Z:     1.3390     Total:     1.8644

*** Psi4 exiting successfully. Buy a developer a beer!
