                               Psi4 1.3.2 release

  ==> Input File <==

--------------------------------------------------------------------------
#psi4
#
memory 32 gb

molecule  {
0 1
  O       -1.3267430     1.3986080    -0.4043610
  N        1.5590335     0.5606807     0.1024446
  N       -2.0120760    -0.7164460     0.1311050
  C        0.3280180    -0.2917100    -0.0638180
  C        0.8200520    -1.5979270    -0.1446940
  C        2.5591820    -0.1927100     0.0828840
  C        2.2225030    -1.5310870    -0.0531270
  C       -1.0490640     0.2229840    -0.1220780
  C        1.3775260     2.0070720     0.1804590
  C       -3.4119730    -0.3353390     0.1671430
  H        0.2239390    -2.4879400    -0.3067250
  H        3.5227950     0.2883690     0.1888050
  H        2.9194420    -2.3581700    -0.0891670
  H        0.6999810     2.3106600     0.9777950
  H        2.3913760     2.3394710     0.4091260
  H        1.0337950     2.4512300    -0.7527080
  H       -1.7260750    -1.5572290     0.6147920
  H       -4.0269330    -1.2262470     0.0275940
  H       -3.5972090     0.3657440    -0.6460440
  H       -3.6872220     0.1511560     1.1097960
units angstrom
no_reorient  #important for SAPT in psi4, default
symmetry c1  #important for SAPT in psi4, default
}

set PROPERTIES_ORIGIN ["COM"]
properties('MP2/aug-cc-pvtz', properties = ['dipole'])
--------------------------------------------------------------------------

    Molecular point group: c1
  Charge       = 0
  Multiplicity = 1
  Basis Set: AUG-CC-PVTZ
    Blend: AUG-CC-PVTZ
  Basis Set: (AUG-CC-PVTZ AUX)
    Blend: AUG-CC-PVTZ-JKFIT

    Orbital Energies [Eh]
    ---------------------

    Doubly Occupied:

       1A    -20.510362     2A    -15.623605     3A    -15.579871
       4A    -11.352690     5A    -11.269767     6A    -11.267755
       7A    -11.259369     8A    -11.255460     9A    -11.243934
      10A    -11.211217    11A     -1.367035    12A     -1.321190
      13A     -1.222705    14A     -1.086109    15A     -1.018136
      16A     -0.954354    17A     -0.925830    18A     -0.823148
      19A     -0.787938    20A     -0.760378    21A     -0.725984
      22A     -0.657317    23A     -0.642771    24A     -0.633012
      25A     -0.616951    26A     -0.606231    27A     -0.588618
      28A     -0.559444    29A     -0.551711    30A     -0.543092
      31A     -0.537896    32A     -0.519747    33A     -0.512287
      34A     -0.425386    35A     -0.391265    36A     -0.362837
      37A     -0.296691

  @DF-RHF Final Energy:  -454.79445644234426

   => Energetics <=

    Nuclear Repulsion Energy =            521.5019706966832018
    One-Electron Energy =               -1652.5686675487645516
    Two-Electron Energy =                 676.2722404097371509
    Total Energy =                       -454.7944564423441989
  Basis Set: (AUG-CC-PVTZ AUX)
    Blend: AUG-CC-PVTZ-RI
    Molecular point group: c1

    Geometry (in Angstrom), charge = 0, multiplicity = 1:

       Center              X                  Y                   Z               Mass
    ------------   -----------------  -----------------  -----------------  -----------------
         O           -1.358073634219     1.399737565287    -0.396461065720    15.994914619570
         N            1.527702865781     0.561810265287     0.110344534280    14.003074004430
         N           -2.043406634219    -0.715316434713     0.139004934280    14.003074004430
         C            0.296687365781    -0.290580434713    -0.055918065720    12.000000000000
         C            0.788721365781    -1.596797434713    -0.136794065720    12.000000000000
         C            2.527851365781    -0.191580434713     0.090783934280    12.000000000000
         C            2.191172365781    -1.529957434713    -0.045227065720    12.000000000000
         C           -1.080394634219     0.224113565287    -0.114178065720    12.000000000000
         C            1.346195365781     2.008201565287     0.188358934280    12.000000000000
         C           -3.443303634219    -0.334209434713     0.175042934280    12.000000000000
         H            0.192608365781    -2.486810434713    -0.298825065720     1.007825032230
         H            3.491464365781     0.289498565287     0.196704934280     1.007825032230
         H            2.888111365781    -2.357040434713    -0.081267065720     1.007825032230
         H            0.668650365781     2.311789565287     0.985694934280     1.007825032230
         H            2.360045365781     2.340600565287     0.417025934280     1.007825032230
         H            1.002464365781     2.452359565287    -0.744808065720     1.007825032230
         H           -1.757405634219    -1.556099434713     0.622691934280     1.007825032230
         H           -4.058263634219    -1.225117434713     0.035493934280     1.007825032230
         H           -3.628539634219     0.366873565287    -0.638144065720     1.007825032230
         H           -3.718552634219     0.152285565287     1.117695934280     1.007825032230

  Basis Set: AUG-CC-PVTZ
    Blend: AUG-CC-PVTZ
  Basis Set: (AUG-CC-PVTZ AUX)
    Blend: AUG-CC-PVTZ-JKFIT
	 Reference Energy          =    -454.7944564423442557 [Eh]
	 Singles Energy            =      -0.0000000000000000 [Eh]
	 Same-Spin Energy          =      -0.4845283052406530 [Eh]
	 Opposite-Spin Energy      =      -1.5158645578633081 [Eh]
	 Correlation Energy        =      -2.0003928631039614 [Eh]
	 Total Energy              =    -456.7948493054482242 [Eh]

	 ================> DF-SCS-MP2 Energies <==================
	-----------------------------------------------------------
	 SCS Same-Spin Scale       =       0.3333333333333333 [-]
	 SCS Opposite-Spin Scale   =       1.2000000000000000 [-]
	 SCS Same-Spin Energy      =      -0.1615094350802177 [Eh]
	 SCS Opposite-Spin Energy  =      -1.8190374694359697 [Eh]
	 SCS Correlation Energy    =      -1.9805469045161874 [Eh]
	 SCS Total Energy          =    -456.7750033468604443 [Eh]
	-----------------------------------------------------------

  Dipole Moment: [D]
     X:     0.3517      Y:    -1.0973      Z:     1.3562     Total:     1.7796

*** Psi4 exiting successfully. Buy a developer a beer!
