                               Psi4 1.4a3.dev225

  ==> Input File <==

--------------------------------------------------------------------------
#psi4
#
memory 32 gb

molecule  {
0 1
  O       -1.3267430     1.3986080    -0.4043610
  N        1.4095890     0.5516460     0.0718950
  N       -2.0120760    -0.7164460     0.1311050
  C        0.3280180    -0.2917100    -0.0638180
  C        0.8200520    -1.5979270    -0.1446940
  C        2.5591820    -0.1927100     0.0828840
  C        2.2723404    -1.5287118    -0.0498731
  C       -1.0490640     0.2229840    -0.1220780
  C        1.3775260     2.0070720     0.1804590
  C       -3.4119730    -0.3353390     0.1671430
  H        0.2239390    -2.4879400    -0.3067250
  H        3.5227950     0.2883690     0.1888050
  H        2.9194420    -2.3581700    -0.0891670
  H        0.6999810     2.3106600     0.9777950
  H        2.3913760     2.3394710     0.4091260
  H        1.0337950     2.4512300    -0.7527080
  H       -1.7260750    -1.5572290     0.6147920
  H       -4.0269330    -1.2262470     0.0275940
  H       -3.5972090     0.3657440    -0.6460440
  H       -3.6872220     0.1511560     1.1097960
units angstrom
no_reorient  #important for SAPT in psi4, default
symmetry c1  #important for SAPT in psi4, default
}

set PROPERTIES_ORIGIN ["COM"]
properties('MP2/aug-cc-pvtz', properties = ['dipole'])
--------------------------------------------------------------------------

    Molecular point group: c1
  Charge       = 0
  Multiplicity = 1
  Basis Set: AUG-CC-PVTZ
    Blend: AUG-CC-PVTZ
  Basis Set: (AUG-CC-PVTZ AUX)
    Blend: AUG-CC-PVTZ-JKFIT

    Orbital Energies [Eh]
    ---------------------

    Doubly Occupied:

       1A    -20.517552     2A    -15.617787     3A    -15.583710
       4A    -11.356128     5A    -11.266949     6A    -11.265151
       7A    -11.262828     8A    -11.257668     9A    -11.236932
      10A    -11.221168    11A     -1.373386    12A     -1.304916
      13A     -1.226422    14A     -1.076719    15A     -1.018353
      16A     -0.942842    17A     -0.934035    18A     -0.827126
      19A     -0.789688    20A     -0.761673    21A     -0.724728
      22A     -0.650457    23A     -0.642137    24A     -0.635472
      25A     -0.617450    26A     -0.599300    27A     -0.580749
      28A     -0.575104    29A     -0.549131    30A     -0.540610
      31A     -0.536857    32A     -0.533365    33A     -0.513116
      34A     -0.430605    35A     -0.393937    36A     -0.341930
      37A     -0.311471

  @DF-RHF Final Energy:  -454.81795295879851

   => Energetics <=

    Nuclear Repulsion Energy =            522.0617405809224465
    One-Electron Energy =               -1653.7244806532071379
    Two-Electron Energy =                 676.8447871134860634
    Total Energy =                       -454.8179529587985144
  Basis Set: (AUG-CC-PVTZ AUX)
    Blend: AUG-CC-PVTZ-RI
    Molecular point group: c1

    Geometry (in Angstrom), charge = 0, multiplicity = 1:

       Center              X                  Y                   Z               Mass
    ------------   -----------------  -----------------  -----------------  -----------------
         O           -1.347249177165     1.400447383221    -0.393645716329    15.994914619570
         N            1.389082822835     0.553485383221     0.082610283671    14.003074004430
         N           -2.032582177165    -0.714606616779     0.141820283671    14.003074004430
         C            0.307511822835    -0.289870616779    -0.053102716329    12.000000000000
         C            0.799545822835    -1.596087616779    -0.133978716329    12.000000000000
         C            2.538675822835    -0.190870616779     0.093599283671    12.000000000000
         C            2.251834222835    -1.526872416779    -0.039157816329    12.000000000000
         C           -1.069570177165     0.224823383221    -0.111362716329    12.000000000000
         C            1.357019822835     2.008911383221     0.191174283671    12.000000000000
         C           -3.432479177165    -0.333499616779     0.177858283671    12.000000000000
         H            0.203432822835    -2.486100616779    -0.296009716329     1.007825032230
         H            3.502288822835     0.290208383221     0.199520283671     1.007825032230
         H            2.898935822835    -2.356330616779    -0.078451716329     1.007825032230
         H            0.679474822835     2.312499383221     0.988510283671     1.007825032230
         H            2.370869822835     2.341310383221     0.419841283671     1.007825032230
         H            1.013288822835     2.453069383221    -0.741992716329     1.007825032230
         H           -1.746581177165    -1.555389616779     0.625507283671     1.007825032230
         H           -4.047439177165    -1.224407616779     0.038309283671     1.007825032230
         H           -3.617715177165     0.367583383221    -0.635328716329     1.007825032230
         H           -3.707728177165     0.152995383221     1.120511283671     1.007825032230

  Basis Set: AUG-CC-PVTZ
    Blend: AUG-CC-PVTZ
  Basis Set: (AUG-CC-PVTZ AUX)
    Blend: AUG-CC-PVTZ-JKFIT
	 Reference Energy          =    -454.8179529587985144 [Eh]
	 Singles Energy            =      -0.0000000000000000 [Eh]
	 Same-Spin Energy          =      -0.4845876961190829 [Eh]
	 Opposite-Spin Energy      =      -1.5164712897024697 [Eh]
	 Correlation Energy        =      -2.0010589858215524 [Eh]
	 Total Energy              =    -456.8190119446200583 [Eh]

	 ================> DF-SCS-MP2 Energies <==================
	-----------------------------------------------------------
	 SCS Same-Spin Scale       =       0.3333333333333333 [-]
	 SCS Opposite-Spin Scale   =       1.2000000000000000 [-]
	 SCS Same-Spin Energy      =      -0.1615292320396943 [Eh]
	 SCS Opposite-Spin Energy  =      -1.8197655476429635 [Eh]
	 SCS Correlation Energy    =      -1.9812947796826579 [Eh]
	 SCS Total Energy          =    -456.7992477384811991 [Eh]
	-----------------------------------------------------------

  Dipole Moment: [D]
     X:     0.2390      Y:    -1.1796      Z:     1.3555     Total:     1.8127

*** Psi4 exiting successfully. Buy a developer a beer!
