                               Psi4 1.4a3.dev225

  ==> Input File <==

--------------------------------------------------------------------------
#psi4
#
memory 32 gb

molecule  {
0 1
  O       -1.3267430     1.3986080    -0.4043610
  N        1.4095890     0.5516460     0.0718950
  N       -2.0120760    -0.7164460     0.1311050
  C        0.2887798    -0.3223061    -0.0687415
  C        0.8200520    -1.5979270    -0.1446940
  C        2.5591820    -0.1927100     0.0828840
  C        2.2225030    -1.5310870    -0.0531270
  C       -1.0490640     0.2229840    -0.1220780
  C        1.3775260     2.0070720     0.1804590
  C       -3.4119730    -0.3353390     0.1671430
  H        0.2239390    -2.4879400    -0.3067250
  H        3.5227950     0.2883690     0.1888050
  H        2.9194420    -2.3581700    -0.0891670
  H        0.6999810     2.3106600     0.9777950
  H        2.3913760     2.3394710     0.4091260
  H        1.0337950     2.4512300    -0.7527080
  H       -1.7260750    -1.5572290     0.6147920
  H       -4.0269330    -1.2262470     0.0275940
  H       -3.5972090     0.3657440    -0.6460440
  H       -3.6872220     0.1511560     1.1097960
units angstrom
no_reorient  #important for SAPT in psi4, default
symmetry c1  #important for SAPT in psi4, default
}

set PROPERTIES_ORIGIN ["COM"]
properties('MP2/aug-cc-pvtz', properties = ['dipole'])
--------------------------------------------------------------------------

    Molecular point group: c1
  Charge       = 0
  Multiplicity = 1
  Basis Set: AUG-CC-PVTZ
    Blend: AUG-CC-PVTZ
  Basis Set: (AUG-CC-PVTZ AUX)
    Blend: AUG-CC-PVTZ-JKFIT

    Orbital Energies [Eh]
    ---------------------

    Doubly Occupied:

       1A    -20.515756     2A    -15.618536     3A    -15.581330
       4A    -11.352997     5A    -11.272050     6A    -11.262551
       7A    -11.261132     8A    -11.256151     9A    -11.236907
      10A    -11.220579    11A     -1.371701    12A     -1.295356
      13A     -1.225634    14A     -1.083041    15A     -1.019667
      16A     -0.941570    17A     -0.933170    18A     -0.830200
      19A     -0.784002    20A     -0.762415    21A     -0.723287
      22A     -0.651318    23A     -0.640186    24A     -0.633408
      25A     -0.615253    26A     -0.592962    27A     -0.579660
      28A     -0.570906    29A     -0.553663    30A     -0.546602
      31A     -0.537142    32A     -0.528958    33A     -0.511150
      34A     -0.431030    35A     -0.393052    36A     -0.348158
      37A     -0.309090

  @DF-RHF Final Energy:  -454.81573818712809

   => Energetics <=

    Nuclear Repulsion Energy =            522.4801504983546465
    One-Electron Energy =               -1654.6106359244311079
    Two-Electron Energy =                 677.3147472389484847
    Total Energy =                       -454.8157381871280904
  Basis Set: (AUG-CC-PVTZ AUX)
    Blend: AUG-CC-PVTZ-RI
    Molecular point group: c1

    Geometry (in Angstrom), charge = 0, multiplicity = 1:

       Center              X                  Y                   Z               Mass
    ------------   -----------------  -----------------  -----------------  -----------------
         O           -1.339507921961     1.403312805938    -0.392935046512    15.994914619570
         N            1.396824078039     0.556350805938     0.083320953488    14.003074004430
         N           -2.024840921961    -0.711741194062     0.142530953488    14.003074004430
         C            0.276014878039    -0.317601294062    -0.057315546512    12.000000000000
         C            0.807287078039    -1.593222194062    -0.133268046512    12.000000000000
         C            2.546417078039    -0.188005194062     0.094309953488    12.000000000000
         C            2.209738078039    -1.526382194062    -0.041701046512    12.000000000000
         C           -1.061828921961     0.227688805938    -0.110652046512    12.000000000000
         C            1.364761078039     2.011776805938     0.191884953488    12.000000000000
         C           -3.424737921961    -0.330634194062     0.178568953488    12.000000000000
         H            0.211174078039    -2.483235194062    -0.295299046512     1.007825032230
         H            3.510030078039     0.293073805938     0.200230953488     1.007825032230
         H            2.906677078039    -2.353465194062    -0.077741046512     1.007825032230
         H            0.687216078039     2.315364805938     0.989220953488     1.007825032230
         H            2.378611078039     2.344175805938     0.420551953488     1.007825032230
         H            1.021030078039     2.455934805938    -0.741282046512     1.007825032230
         H           -1.738839921961    -1.552524194062     0.626217953488     1.007825032230
         H           -4.039697921961    -1.221542194062     0.039019953488     1.007825032230
         H           -3.609973921961     0.370448805938    -0.634618046512     1.007825032230
         H           -3.699986921961     0.155860805938     1.121221953488     1.007825032230

  Basis Set: AUG-CC-PVTZ
    Blend: AUG-CC-PVTZ
  Basis Set: (AUG-CC-PVTZ AUX)
    Blend: AUG-CC-PVTZ-JKFIT
	 Reference Energy          =    -454.8157381871280904 [Eh]
	 Singles Energy            =      -0.0000000000000000 [Eh]
	 Same-Spin Energy          =      -0.4854489526628104 [Eh]
	 Opposite-Spin Energy      =      -1.5176214983154228 [Eh]
	 Correlation Energy        =      -2.0030704509782331 [Eh]
	 Total Energy              =    -456.8188086381063044 [Eh]

	 ================> DF-SCS-MP2 Energies <==================
	-----------------------------------------------------------
	 SCS Same-Spin Scale       =       0.3333333333333333 [-]
	 SCS Opposite-Spin Scale   =       1.2000000000000000 [-]
	 SCS Same-Spin Energy      =      -0.1618163175542701 [Eh]
	 SCS Opposite-Spin Energy  =      -1.8211457979785073 [Eh]
	 SCS Correlation Energy    =      -1.9829621155327775 [Eh]
	 SCS Total Energy          =    -456.7987003026608477 [Eh]
	-----------------------------------------------------------

  Dipole Moment: [D]
     X:     0.3478      Y:    -1.2561      Z:     1.3491     Total:     1.8758

*** Psi4 exiting successfully. Buy a developer a beer!
