                               Psi4 1.3.2 release

  ==> Input File <==

--------------------------------------------------------------------------
#psi4
#
memory 32 gb

molecule  {
0 1
  O       -1.3267430     1.3986080    -0.4043610
  N        1.4095890     0.5516460     0.0718950
  N       -2.0120760    -0.7164460     0.1311050
  C        0.2450995    -0.1737446    -0.0593902
  C        0.8200520    -1.5979270    -0.1446940
  C        2.5591820    -0.1927100     0.0828840
  C        2.2225030    -1.5310870    -0.0531270
  C       -1.0490640     0.2229840    -0.1220780
  C        1.3775260     2.0070720     0.1804590
  C       -3.4119730    -0.3353390     0.1671430
  H        0.2239390    -2.4879400    -0.3067250
  H        3.5227950     0.2883690     0.1888050
  H        2.9194420    -2.3581700    -0.0891670
  H        0.6999810     2.3106600     0.9777950
  H        2.3913760     2.3394710     0.4091260
  H        1.0337950     2.4512300    -0.7527080
  H       -1.7260750    -1.5572290     0.6147920
  H       -4.0269330    -1.2262470     0.0275940
  H       -3.5972090     0.3657440    -0.6460440
  H       -3.6872220     0.1511560     1.1097960
units angstrom
no_reorient  #important for SAPT in psi4, default
symmetry c1  #important for SAPT in psi4, default
}

set PROPERTIES_ORIGIN ["COM"]
properties('MP2/aug-cc-pvtz', properties = ['dipole'])
--------------------------------------------------------------------------

    Molecular point group: c1
  Charge       = 0
  Multiplicity = 1
  Basis Set: AUG-CC-PVTZ
    Blend: AUG-CC-PVTZ
  Basis Set: (AUG-CC-PVTZ AUX)
    Blend: AUG-CC-PVTZ-JKFIT

    Orbital Energies [Eh]
    ---------------------

    Doubly Occupied:

       1A    -20.504051     2A    -15.634892     3A    -15.577103
       4A    -11.339488     5A    -11.277490     6A    -11.263572
       7A    -11.262825     8A    -11.253832     9A    -11.250940
      10A    -11.229843    11A     -1.370083    12A     -1.306506
      13A     -1.220697    14A     -1.076052    15A     -1.030530
      16A     -0.940154    17A     -0.935602    18A     -0.847181
      19A     -0.785471    20A     -0.760640    21A     -0.721710
      22A     -0.662636    23A     -0.644961    24A     -0.632706
      25A     -0.615369    26A     -0.592862    27A     -0.583667
      28A     -0.573532    29A     -0.552100    30A     -0.543141
      31A     -0.538208    32A     -0.513909    33A     -0.507565
      34A     -0.424619    35A     -0.388669    36A     -0.351195
      37A     -0.297763

  @DF-RHF Final Energy:  -454.78579001891859

   => Energetics <=

    Nuclear Repulsion Energy =            523.0792238005394665
    One-Electron Energy =               -1655.7068932724732804
    Two-Electron Energy =                 677.8418794530151672
    Total Energy =                       -454.7857900189186466
  Basis Set: (AUG-CC-PVTZ AUX)
    Blend: AUG-CC-PVTZ-RI
    Molecular point group: c1

    Geometry (in Angstrom), charge = 0, multiplicity = 1:

       Center              X                  Y                   Z               Mass
    ------------   -----------------  -----------------  -----------------  -----------------
         O           -1.335711816746     1.390401834975    -0.393747735956    15.994914619570
         N            1.400620183254     0.543439834975     0.082508264044    14.003074004430
         N           -2.021044816746    -0.724652165025     0.141718264044    14.003074004430
         C            0.236130683254    -0.181950765025    -0.048776935956    12.000000000000
         C            0.811083183254    -1.606133165025    -0.134080735956    12.000000000000
         C            2.550213183254    -0.200916165025     0.093497264044    12.000000000000
         C            2.213534183254    -1.539293165025    -0.042513735956    12.000000000000
         C           -1.058032816746     0.214777834975    -0.111464735956    12.000000000000
         C            1.368557183254     1.998865834975     0.191072264044    12.000000000000
         C           -3.420941816746    -0.343545165025     0.177756264044    12.000000000000
         H            0.214970183254    -2.496146165025    -0.296111735956     1.007825032230
         H            3.513826183254     0.280162834975     0.199418264044     1.007825032230
         H            2.910473183254    -2.366376165025    -0.078553735956     1.007825032230
         H            0.691012183254     2.302453834975     0.988408264044     1.007825032230
         H            2.382407183254     2.331264834975     0.419739264044     1.007825032230
         H            1.024826183254     2.443023834975    -0.742094735956     1.007825032230
         H           -1.735043816746    -1.565435165025     0.625405264044     1.007825032230
         H           -4.035901816746    -1.234453165025     0.038207264044     1.007825032230
         H           -3.606177816746     0.357537834975    -0.635430735956     1.007825032230
         H           -3.696190816746     0.142949834975     1.120409264044     1.007825032230

  Basis Set: AUG-CC-PVTZ
    Blend: AUG-CC-PVTZ
  Basis Set: (AUG-CC-PVTZ AUX)
    Blend: AUG-CC-PVTZ-JKFIT
	 Reference Energy          =    -454.7857900189185898 [Eh]
	 Singles Energy            =      -0.0000000000000000 [Eh]
	 Same-Spin Energy          =      -0.4886827231721534 [Eh]
	 Opposite-Spin Energy      =      -1.5224459930477507 [Eh]
	 Correlation Energy        =      -2.0111287162199041 [Eh]
	 Total Energy              =    -456.7969187351384903 [Eh]

	 ================> DF-SCS-MP2 Energies <==================
	-----------------------------------------------------------
	 SCS Same-Spin Scale       =       0.3333333333333333 [-]
	 SCS Opposite-Spin Scale   =       1.2000000000000000 [-]
	 SCS Same-Spin Energy      =      -0.1628942410573845 [Eh]
	 SCS Opposite-Spin Energy  =      -1.8269351916573009 [Eh]
	 SCS Correlation Energy    =      -1.9898294327146853 [Eh]
	 SCS Total Energy          =    -456.7756194516332471 [Eh]
	-----------------------------------------------------------

  Dipole Moment: [D]
     X:     0.7981      Y:    -1.2492      Z:     1.3839     Total:     2.0280

*** Psi4 exiting successfully. Buy a developer a beer!
