                               Psi4 1.3.2 release

  ==> Input File <==

--------------------------------------------------------------------------
#psi4
#
memory 32 gb

molecule  {
0 1
  O       -1.3267430     1.3986080    -0.4043610
  N        1.5093590     0.5558999     0.0921496
  N       -2.0120760    -0.7164460     0.1311050
  C        0.3280180    -0.2917100    -0.0638180
  C        0.8200520    -1.5979270    -0.1446940
  C        2.5591820    -0.1927100     0.0828840
  C        2.2225030    -1.5310870    -0.0531270
  C       -1.0490640     0.2229840    -0.1220780
  C        1.3775260     2.0070720     0.1804590
  C       -3.4119730    -0.3353390     0.1671430
  H        0.2239390    -2.4879400    -0.3067250
  H        3.5227950     0.2883690     0.1888050
  H        2.9194420    -2.3581700    -0.0891670
  H        0.6999810     2.3106600     0.9777950
  H        2.3913760     2.3394710     0.4091260
  H        1.0337950     2.4512300    -0.7527080
  H       -1.7260750    -1.5572290     0.6147920
  H       -4.0269330    -1.2262470     0.0275940
  H       -3.5972090     0.3657440    -0.6460440
  H       -3.6872220     0.1511560     1.1097960
units angstrom
no_reorient  #important for SAPT in psi4, default
symmetry c1  #important for SAPT in psi4, default
}

set PROPERTIES_ORIGIN ["COM"]
properties('MP2/aug-cc-pvtz', properties = ['dipole'])
--------------------------------------------------------------------------

    Molecular point group: c1
  Charge       = 0
  Multiplicity = 1
  Basis Set: AUG-CC-PVTZ
    Blend: AUG-CC-PVTZ
  Basis Set: (AUG-CC-PVTZ AUX)
    Blend: AUG-CC-PVTZ-JKFIT

    Orbital Energies [Eh]
    ---------------------

    Doubly Occupied:

       1A    -20.512230     2A    -15.622694     3A    -15.580879
       4A    -11.353448     5A    -11.269125     6A    -11.265559
       7A    -11.260479     8A    -11.256027     9A    -11.240532
      10A    -11.214301    11A     -1.368620    12A     -1.314404
      13A     -1.223670    14A     -1.084675    15A     -1.016698
      16A     -0.949763    17A     -0.930403    18A     -0.823820
      19A     -0.787652    20A     -0.760937    21A     -0.725561
      22A     -0.654614    23A     -0.641907    24A     -0.633409
      25A     -0.616968    26A     -0.600838    27A     -0.587272
      28A     -0.562965    29A     -0.550973    30A     -0.544216
      31A     -0.537390    32A     -0.523960    33A     -0.516523
      34A     -0.426897    35A     -0.391912    36A     -0.356284
      37A     -0.301401

  @DF-RHF Final Energy:  -454.80914995713289

   => Energetics <=

    Nuclear Repulsion Energy =            521.9096296233665271
    One-Electron Energy =               -1653.4195491533928362
    Two-Electron Energy =                 676.7007695728934777
    Total Energy =                       -454.8091499571328313
  Basis Set: (AUG-CC-PVTZ AUX)
    Blend: AUG-CC-PVTZ-RI
    Molecular point group: c1

    Geometry (in Angstrom), charge = 0, multiplicity = 1:

       Center              X                  Y                   Z               Mass
    ------------   -----------------  -----------------  -----------------  -----------------
         O           -1.353035980969     1.400222401826    -0.395417016153    15.994914619570
         N            1.483066019031     0.557514301826     0.101093583847    14.003074004430
         N           -2.038368980969    -0.714831598174     0.140048983847    14.003074004430
         C            0.301725019031    -0.290095598174    -0.054874016153    12.000000000000
         C            0.793759019031    -1.596312598174    -0.135750016153    12.000000000000
         C            2.532889019031    -0.191095598174     0.091827983847    12.000000000000
         C            2.196210019031    -1.529472598174    -0.044183016153    12.000000000000
         C           -1.075356980969     0.224598401826    -0.113134016153    12.000000000000
         C            1.351233019031     2.008686401826     0.189402983847    12.000000000000
         C           -3.438265980969    -0.333724598174     0.176086983847    12.000000000000
         H            0.197646019031    -2.486325598174    -0.297781016153     1.007825032230
         H            3.496502019031     0.289983401826     0.197748983847     1.007825032230
         H            2.893149019031    -2.356555598174    -0.080223016153     1.007825032230
         H            0.673688019031     2.312274401826     0.986738983847     1.007825032230
         H            2.365083019031     2.341085401826     0.418069983847     1.007825032230
         H            1.007502019031     2.452844401826    -0.743764016153     1.007825032230
         H           -1.752367980969    -1.555614598174     0.623735983847     1.007825032230
         H           -4.053225980969    -1.224632598174     0.036537983847     1.007825032230
         H           -3.623501980969     0.367358401826    -0.637100016153     1.007825032230
         H           -3.713514980969     0.152770401826     1.118739983847     1.007825032230

  Basis Set: AUG-CC-PVTZ
    Blend: AUG-CC-PVTZ
  Basis Set: (AUG-CC-PVTZ AUX)
    Blend: AUG-CC-PVTZ-JKFIT
	 Reference Energy          =    -454.8091499571328882 [Eh]
	 Singles Energy            =      -0.0000000000000000 [Eh]
	 Same-Spin Energy          =      -0.4847124432691038 [Eh]
	 Opposite-Spin Energy      =      -1.5159219340531016 [Eh]
	 Correlation Energy        =      -2.0006343773222053 [Eh]
	 Total Energy              =    -456.8097843344551166 [Eh]

	 ================> DF-SCS-MP2 Energies <==================
	-----------------------------------------------------------
	 SCS Same-Spin Scale       =       0.3333333333333333 [-]
	 SCS Opposite-Spin Scale   =       1.2000000000000000 [-]
	 SCS Same-Spin Energy      =      -0.1615708144230346 [Eh]
	 SCS Opposite-Spin Energy  =      -1.8191063208637219 [Eh]
	 SCS Correlation Energy    =      -1.9806771352867565 [Eh]
	 SCS Total Energy          =    -456.7898270924196709 [Eh]
	-----------------------------------------------------------

  Dipole Moment: [D]
     X:     0.3201      Y:    -1.1391      Z:     1.3552     Total:     1.7991

*** Psi4 exiting successfully. Buy a developer a beer!
