                               Psi4 1.3.2 release

  ==> Input File <==

--------------------------------------------------------------------------
#psi4
#
memory 32 gb

molecule  {
0 1
  O       -1.3267430     1.3986080    -0.4043610
  N        1.4095890     0.5516460     0.0718950
  N       -2.0120760    -0.7164460     0.1311050
  C        0.3280180    -0.2917100    -0.0638180
  C        0.8200520    -1.5979270    -0.1446940
  C        2.5591820    -0.1927100     0.0828840
  C        2.2225030    -1.5310870    -0.0531270
  C       -1.0490640     0.2229840    -0.1220780
  C        1.3775260     2.0070720     0.1804590
  C       -3.4119730    -0.3353390     0.1671430
  H        0.3339852    -2.3236381    -0.2768131
  H        3.5227950     0.2883690     0.1888050
  H        2.9194420    -2.3581700    -0.0891670
  H        0.6999810     2.3106600     0.9777950
  H        2.3913760     2.3394710     0.4091260
  H        1.0337950     2.4512300    -0.7527080
  H       -1.7260750    -1.5572290     0.6147920
  H       -4.0269330    -1.2262470     0.0275940
  H       -3.5972090     0.3657440    -0.6460440
  H       -3.6872220     0.1511560     1.1097960
units angstrom
no_reorient  #important for SAPT in psi4, default
symmetry c1  #important for SAPT in psi4, default
}

set PROPERTIES_ORIGIN ["COM"]
properties('MP2/aug-cc-pvtz', properties = ['dipole'])
--------------------------------------------------------------------------

    Molecular point group: c1
  Charge       = 0
  Multiplicity = 1
  Basis Set: AUG-CC-PVTZ
    Blend: AUG-CC-PVTZ
  Basis Set: (AUG-CC-PVTZ AUX)
    Blend: AUG-CC-PVTZ-JKFIT

    Orbital Energies [Eh]
    ---------------------

    Doubly Occupied:

       1A    -20.516341     2A    -15.620157     3A    -15.583647
       4A    -11.355016     5A    -11.265947     6A    -11.262854
       7A    -11.261951     8A    -11.257559     9A    -11.219283
      10A    -11.209027    11A     -1.372501    12A     -1.305938
      13A     -1.226219    14A     -1.086314    15A     -1.016677
      16A     -0.947467    17A     -0.940980    18A     -0.832751
      19A     -0.800862    20A     -0.762127    21A     -0.737861
      22A     -0.653779    23A     -0.641908    24A     -0.635827
      25A     -0.618671    26A     -0.605122    27A     -0.583593
      28A     -0.574030    29A     -0.553750    30A     -0.547343
      31A     -0.538375    32A     -0.535078    33A     -0.513285
      34A     -0.429706    35A     -0.393881    36A     -0.347244
      37A     -0.305963

  @DF-RHF Final Energy:  -454.78427964084756

   => Energetics <=

    Nuclear Repulsion Energy =            523.9086008893469852
    One-Electron Energy =               -1657.2676955066010578
    Two-Electron Energy =                 678.5748149764064010
    Total Energy =                       -454.7842796408475579
  Basis Set: (AUG-CC-PVTZ AUX)
    Blend: AUG-CC-PVTZ-RI
    Molecular point group: c1

    Geometry (in Angstrom), charge = 0, multiplicity = 1:

       Center              X                  Y                   Z               Mass
    ------------   -----------------  -----------------  -----------------  -----------------
         O           -1.343721194048     1.399454583035    -0.393581254548    15.994914619570
         N            1.392610805952     0.552492583035     0.082674745452    14.003074004430
         N           -2.029054194048    -0.715599416965     0.141884745452    14.003074004430
         C            0.311039805952    -0.290863416965    -0.053038254548    12.000000000000
         C            0.803073805952    -1.597080416965    -0.133914254548    12.000000000000
         C            2.542203805952    -0.191863416965     0.093663745452    12.000000000000
         C            2.205524805952    -1.530240416965    -0.042347254548    12.000000000000
         C           -1.066042194048     0.223830583035    -0.111298254548    12.000000000000
         C            1.360547805952     2.007918583035     0.191238745452    12.000000000000
         C           -3.428951194048    -0.334492416965     0.177922745452    12.000000000000
         H            0.317007005952    -2.322791516965    -0.266033354548     1.007825032230
         H            3.505816805952     0.289215583035     0.199584745452     1.007825032230
         H            2.902463805952    -2.357323416965    -0.078387254548     1.007825032230
         H            0.683002805952     2.311506583035     0.988574745452     1.007825032230
         H            2.374397805952     2.340317583035     0.419905745452     1.007825032230
         H            1.016816805952     2.452076583035    -0.741928254548     1.007825032230
         H           -1.743053194048    -1.556382416965     0.625571745452     1.007825032230
         H           -4.043911194048    -1.225400416965     0.038373745452     1.007825032230
         H           -3.614187194048     0.366590583035    -0.635264254548     1.007825032230
         H           -3.704200194048     0.152002583035     1.120575745452     1.007825032230

  Basis Set: AUG-CC-PVTZ
    Blend: AUG-CC-PVTZ
  Basis Set: (AUG-CC-PVTZ AUX)
    Blend: AUG-CC-PVTZ-JKFIT
	 Reference Energy          =    -454.7842796408475579 [Eh]
	 Singles Energy            =      -0.0000000000000000 [Eh]
	 Same-Spin Energy          =      -0.4850287186854633 [Eh]
	 Opposite-Spin Energy      =      -1.5162331329250494 [Eh]
	 Correlation Energy        =      -2.0012618516105127 [Eh]
	 Total Energy              =    -456.7855414924580941 [Eh]

	 ================> DF-SCS-MP2 Energies <==================
	-----------------------------------------------------------
	 SCS Same-Spin Scale       =       0.3333333333333333 [-]
	 SCS Opposite-Spin Scale   =       1.2000000000000000 [-]
	 SCS Same-Spin Energy      =      -0.1616762395618211 [Eh]
	 SCS Opposite-Spin Energy  =      -1.8194797595100591 [Eh]
	 SCS Correlation Energy    =      -1.9811559990718801 [Eh]
	 SCS Total Energy          =    -456.7654356399194171 [Eh]
	-----------------------------------------------------------

  Dipole Moment: [D]
     X:     0.2521      Y:    -1.1893      Z:     1.3623     Total:     1.8259

*** Psi4 exiting successfully. Buy a developer a beer!
