                               Psi4 1.3.2 release

  ==> Input File <==

--------------------------------------------------------------------------
#psi4
#
memory 32 gb

molecule  {
0 1
  O       -1.3267430     1.3986080    -0.4043610
  N        1.4095890     0.5516460     0.0718950
  N       -2.1083307    -0.6121120     0.1115697
  C        0.3280180    -0.2917100    -0.0638180
  C        0.8200520    -1.5979270    -0.1446940
  C        2.5591820    -0.1927100     0.0828840
  C        2.2225030    -1.5310870    -0.0531270
  C       -1.0490640     0.2229840    -0.1220780
  C        1.3775260     2.0070720     0.1804590
  C       -3.4119730    -0.3353390     0.1671430
  H        0.2239390    -2.4879400    -0.3067250
  H        3.5227950     0.2883690     0.1888050
  H        2.9194420    -2.3581700    -0.0891670
  H        0.6999810     2.3106600     0.9777950
  H        2.3913760     2.3394710     0.4091260
  H        1.0337950     2.4512300    -0.7527080
  H       -1.7260750    -1.5572290     0.6147920
  H       -4.0269330    -1.2262470     0.0275940
  H       -3.5972090     0.3657440    -0.6460440
  H       -3.6872220     0.1511560     1.1097960
units angstrom
no_reorient  #important for SAPT in psi4, default
symmetry c1  #important for SAPT in psi4, default
}

set PROPERTIES_ORIGIN ["COM"]
properties('MP2/aug-cc-pvtz', properties = ['dipole'])
--------------------------------------------------------------------------

    Molecular point group: c1
  Charge       = 0
  Multiplicity = 1
  Basis Set: AUG-CC-PVTZ
    Blend: AUG-CC-PVTZ
  Basis Set: (AUG-CC-PVTZ AUX)
    Blend: AUG-CC-PVTZ-JKFIT

    Orbital Energies [Eh]
    ---------------------

    Doubly Occupied:

       1A    -20.510496     2A    -15.624813     3A    -15.586917
       4A    -11.355497     5A    -11.270647     6A    -11.269324
       7A    -11.264732     8A    -11.246996     9A    -11.236672
      10A    -11.223450    11A     -1.375098    12A     -1.310439
      13A     -1.236044    14A     -1.085934    15A     -1.023208
      16A     -0.948381    17A     -0.940390    18A     -0.818510
      19A     -0.788058    20A     -0.745547    21A     -0.726845
      22A     -0.665428    23A     -0.646705    24A     -0.639682
      25A     -0.627432    26A     -0.602726    27A     -0.583046
      28A     -0.582264    29A     -0.552830    30A     -0.538378
      31A     -0.537799    32A     -0.516499    33A     -0.511746
      34A     -0.426639    35A     -0.379043    36A     -0.350723
      37A     -0.310162

  @DF-RHF Final Energy:  -454.78952366861512

   => Energetics <=

    Nuclear Repulsion Energy =            523.3700063276008905
    One-Electron Energy =               -1656.2008615164982075
    Two-Electron Energy =                 678.0413315202820286
    Total Energy =                       -454.7895236686151748
  Basis Set: (AUG-CC-PVTZ AUX)
    Blend: AUG-CC-PVTZ-RI
    Molecular point group: c1

    Geometry (in Angstrom), charge = 0, multiplicity = 1:

       Center              X                  Y                   Z               Mass
    ------------   -----------------  -----------------  -----------------  -----------------
         O           -1.333156476052     1.390072952088    -0.391381792466    15.994914619570
         N            1.403175523948     0.543110952088     0.084874207534    14.003074004430
         N           -2.114744176052    -0.620647047912     0.124548907534    14.003074004430
         C            0.321604523948    -0.300245047912    -0.050838792466    12.000000000000
         C            0.813638523948    -1.606462047912    -0.131714792466    12.000000000000
         C            2.552768523948    -0.201245047912     0.095863207534    12.000000000000
         C            2.216089523948    -1.539622047912    -0.040147792466    12.000000000000
         C           -1.055477476052     0.214448952088    -0.109098792466    12.000000000000
         C            1.371112523948     1.998536952088     0.193438207534    12.000000000000
         C           -3.418386476052    -0.343874047912     0.180122207534    12.000000000000
         H            0.217525523948    -2.496475047912    -0.293745792466     1.007825032230
         H            3.516381523948     0.279833952088     0.201784207534     1.007825032230
         H            2.913028523948    -2.366705047912    -0.076187792466     1.007825032230
         H            0.693567523948     2.302124952088     0.990774207534     1.007825032230
         H            2.384962523948     2.330935952088     0.422105207534     1.007825032230
         H            1.027381523948     2.442694952088    -0.739728792466     1.007825032230
         H           -1.732488476052    -1.565764047912     0.627771207534     1.007825032230
         H           -4.033346476052    -1.234782047912     0.040573207534     1.007825032230
         H           -3.603622476052     0.357208952088    -0.633064792466     1.007825032230
         H           -3.693635476052     0.142620952088     1.122775207534     1.007825032230

  Basis Set: AUG-CC-PVTZ
    Blend: AUG-CC-PVTZ
  Basis Set: (AUG-CC-PVTZ AUX)
    Blend: AUG-CC-PVTZ-JKFIT
	 Reference Energy          =    -454.7895236686151179 [Eh]
	 Singles Energy            =      -0.0000000000000000 [Eh]
	 Same-Spin Energy          =      -0.4870036609238670 [Eh]
	 Opposite-Spin Energy      =      -1.5193946569068006 [Eh]
	 Correlation Energy        =      -2.0063983178306675 [Eh]
	 Total Energy              =    -456.7959219864457623 [Eh]

	 ================> DF-SCS-MP2 Energies <==================
	-----------------------------------------------------------
	 SCS Same-Spin Scale       =       0.3333333333333333 [-]
	 SCS Opposite-Spin Scale   =       1.2000000000000000 [-]
	 SCS Same-Spin Energy      =      -0.1623345536412890 [Eh]
	 SCS Opposite-Spin Energy  =      -1.8232735882881608 [Eh]
	 SCS Correlation Energy    =      -1.9856081419294498 [Eh]
	 SCS Total Energy          =    -456.7751318105445648 [Eh]
	-----------------------------------------------------------

  Dipole Moment: [D]
     X:     0.6239      Y:    -1.3393      Z:     1.3114     Total:     1.9755

*** Psi4 exiting successfully. Buy a developer a beer!
