                               Psi4 1.3.2 release

  ==> Input File <==

--------------------------------------------------------------------------
#psi4
#
memory 32 gb

molecule  {
0 1
  O       -1.3267430     1.3986080    -0.4043610
  N        1.4595240     0.5528871     0.0819623
  N       -2.0120760    -0.7164460     0.1311050
  C        0.3280180    -0.2917100    -0.0638180
  C        0.8200520    -1.5979270    -0.1446940
  C        2.5591820    -0.1927100     0.0828840
  C        2.2225030    -1.5310870    -0.0531270
  C       -1.0490640     0.2229840    -0.1220780
  C        1.3775260     2.0070720     0.1804590
  C       -3.4119730    -0.3353390     0.1671430
  H        0.2239390    -2.4879400    -0.3067250
  H        3.5227950     0.2883690     0.1888050
  H        2.9194420    -2.3581700    -0.0891670
  H        0.6999810     2.3106600     0.9777950
  H        2.3913760     2.3394710     0.4091260
  H        1.0337950     2.4512300    -0.7527080
  H       -1.7260750    -1.5572290     0.6147920
  H       -4.0269330    -1.2262470     0.0275940
  H       -3.5972090     0.3657440    -0.6460440
  H       -3.6872220     0.1511560     1.1097960
units angstrom
no_reorient  #important for SAPT in psi4, default
symmetry c1  #important for SAPT in psi4, default
}

set PROPERTIES_ORIGIN ["COM"]
properties('MP2/aug-cc-pvtz', properties = ['dipole'])
--------------------------------------------------------------------------

    Molecular point group: c1
  Charge       = 0
  Multiplicity = 1
  Basis Set: AUG-CC-PVTZ
    Blend: AUG-CC-PVTZ
  Basis Set: (AUG-CC-PVTZ AUX)
    Blend: AUG-CC-PVTZ-JKFIT

    Orbital Energies [Eh]
    ---------------------

    Doubly Occupied:

       1A    -20.514189     2A    -15.621764     3A    -15.581919
       4A    -11.354204     5A    -11.268201     6A    -11.264066
       7A    -11.261686     8A    -11.256612     9A    -11.236798
      10A    -11.217449    11A     -1.370405    12A     -1.309520
      13A     -1.224669    14A     -1.083407    15A     -1.016043
      16A     -0.944763    17A     -0.935186    18A     -0.824581
      19A     -0.787325    20A     -0.761491    21A     -0.725209
      22A     -0.652519    23A     -0.641763    24A     -0.634011
      25A     -0.616943    26A     -0.596114    27A     -0.584149
      28A     -0.568540    29A     -0.550442    30A     -0.545776
      31A     -0.537216    32A     -0.530117    33A     -0.515040
      34A     -0.428349    35A     -0.392624    36A     -0.350846
      37A     -0.305133

  @DF-RHF Final Energy:  -454.81763654826199

   => Energetics <=

    Nuclear Repulsion Energy =            522.3281807611185741
    One-Electron Energy =               -1654.2734995878620339
    Two-Electron Energy =                 677.1276822784815295
    Total Energy =                       -454.8176365482619303
  Basis Set: (AUG-CC-PVTZ AUX)
    Blend: AUG-CC-PVTZ-RI
    Molecular point group: c1

    Geometry (in Angstrom), charge = 0, multiplicity = 1:

       Center              X                  Y                   Z               Mass
    ------------   -----------------  -----------------  -----------------  -----------------
         O           -1.347982050890     1.400527939712    -0.394383888795    15.994914619570
         N            1.438284949110     0.554807039712     0.091939411205    14.003074004430
         N           -2.033315050890    -0.714526060288     0.141082111205    14.003074004430
         C            0.306778949110    -0.289790060288    -0.053840888795    12.000000000000
         C            0.798812949110    -1.596007060288    -0.134716888795    12.000000000000
         C            2.537942949110    -0.190790060288     0.092861111205    12.000000000000
         C            2.201263949110    -1.529167060288    -0.043149888795    12.000000000000
         C           -1.070303050890     0.224903939712    -0.112100888795    12.000000000000
         C            1.356286949110     2.008991939712     0.190436111205    12.000000000000
         C           -3.433212050890    -0.333419060288     0.177120111205    12.000000000000
         H            0.202699949110    -2.486020060288    -0.296747888795     1.007825032230
         H            3.501555949110     0.290288939712     0.198782111205     1.007825032230
         H            2.898202949110    -2.356250060288    -0.079189888795     1.007825032230
         H            0.678741949110     2.312579939712     0.987772111205     1.007825032230
         H            2.370136949110     2.341390939712     0.419103111205     1.007825032230
         H            1.012555949110     2.453149939712    -0.742730888795     1.007825032230
         H           -1.747314050890    -1.555309060288     0.624769111205     1.007825032230
         H           -4.048172050890    -1.224327060288     0.037571111205     1.007825032230
         H           -3.618448050890     0.367663939712    -0.636066888795     1.007825032230
         H           -3.708461050890     0.153075939712     1.119773111205     1.007825032230

  Basis Set: AUG-CC-PVTZ
    Blend: AUG-CC-PVTZ
  Basis Set: (AUG-CC-PVTZ AUX)
    Blend: AUG-CC-PVTZ-JKFIT
	 Reference Energy          =    -454.8176365482619872 [Eh]
	 Singles Energy            =      -0.0000000000000000 [Eh]
	 Same-Spin Energy          =      -0.4849655813897382 [Eh]
	 Opposite-Spin Energy      =      -1.5162619040062979 [Eh]
	 Correlation Energy        =      -2.0012274853960359 [Eh]
	 Total Energy              =    -456.8188640336580306 [Eh]

	 ================> DF-SCS-MP2 Energies <==================
	-----------------------------------------------------------
	 SCS Same-Spin Scale       =       0.3333333333333333 [-]
	 SCS Opposite-Spin Scale   =       1.2000000000000000 [-]
	 SCS Same-Spin Energy      =      -0.1616551937965794 [Eh]
	 SCS Opposite-Spin Energy  =      -1.8195142848075574 [Eh]
	 SCS Correlation Energy    =      -1.9811694786041367 [Eh]
	 SCS Total Energy          =    -456.7988060268661457 [Eh]
	-----------------------------------------------------------

  Dipole Moment: [D]
     X:     0.2980      Y:    -1.1679      Z:     1.3558     Total:     1.8141

*** Psi4 exiting successfully. Buy a developer a beer!
