                               Psi4 1.3.2 release

  ==> Input File <==

--------------------------------------------------------------------------
#psi4
#
memory 32 gb

molecule  {
0 1
  O       -1.3267430     1.3986080    -0.4043610
  N        1.4242637     0.5326010     0.0711634
  N       -2.0120760    -0.7164460     0.1311050
  C        0.3280180    -0.2917100    -0.0638180
  C        0.8200520    -1.5979270    -0.1446940
  C        2.5591820    -0.1927100     0.0828840
  C        2.2225030    -1.5310870    -0.0531270
  C       -1.0490640     0.2229840    -0.1220780
  C        1.3775260     2.0070720     0.1804590
  C       -3.4119730    -0.3353390     0.1671430
  H        0.2239390    -2.4879400    -0.3067250
  H        3.5227950     0.2883690     0.1888050
  H        2.9194420    -2.3581700    -0.0891670
  H        0.6999810     2.3106600     0.9777950
  H        2.3913760     2.3394710     0.4091260
  H        1.0337950     2.4512300    -0.7527080
  H       -1.7260750    -1.5572290     0.6147920
  H       -4.0269330    -1.2262470     0.0275940
  H       -3.5972090     0.3657440    -0.6460440
  H       -3.6872220     0.1511560     1.1097960
units angstrom
no_reorient  #important for SAPT in psi4, default
symmetry c1  #important for SAPT in psi4, default
}

set PROPERTIES_ORIGIN ["COM"]
properties('MP2/aug-cc-pvtz', properties = ['dipole'])
--------------------------------------------------------------------------

    Molecular point group: c1
  Charge       = 0
  Multiplicity = 1
  Basis Set: AUG-CC-PVTZ
    Blend: AUG-CC-PVTZ
  Basis Set: (AUG-CC-PVTZ AUX)
    Blend: AUG-CC-PVTZ-JKFIT

    Orbital Energies [Eh]
    ---------------------

    Doubly Occupied:

       1A    -20.515681     2A    -15.621543     3A    -15.582737
       4A    -11.355024     5A    -11.265616     6A    -11.265516
       7A    -11.260886     8A    -11.257085     9A    -11.232324
      10A    -11.218381    11A     -1.372020    12A     -1.310883
      13A     -1.225429    14A     -1.078959    15A     -1.017561
      16A     -0.942266    17A     -0.938352    18A     -0.825204
      19A     -0.787911    20A     -0.761588    21A     -0.724383
      22A     -0.653169    23A     -0.642202    24A     -0.634482
      25A     -0.616814    26A     -0.593466    27A     -0.577648
      28A     -0.573168    29A     -0.549440    30A     -0.546986
      31A     -0.538351    32A     -0.533244    33A     -0.515757
      34A     -0.429566    35A     -0.393230    36A     -0.347920
      37A     -0.306484

  @DF-RHF Final Energy:  -454.81981341055274

   => Energetics <=

    Nuclear Repulsion Energy =            522.8445024537121526
    One-Electron Energy =               -1655.3060819141630873
    Two-Electron Energy =                 677.6417660498983651
    Total Energy =                       -454.8198134105526833
  Basis Set: (AUG-CC-PVTZ AUX)
    Blend: AUG-CC-PVTZ-RI
    Molecular point group: c1

    Geometry (in Angstrom), charge = 0, multiplicity = 1:

       Center              X                  Y                   Z               Mass
    ------------   -----------------  -----------------  -----------------  -----------------
         O           -1.344406188730     1.402585219354    -0.393288737084    15.994914619570
         N            1.406600511270     0.536578219354     0.082235662916    14.003074004430
         N           -2.029739188730    -0.712468780646     0.142177262916    14.003074004430
         C            0.310354811270    -0.287732780646    -0.052745737084    12.000000000000
         C            0.802388811270    -1.593949780646    -0.133621737084    12.000000000000
         C            2.541518811270    -0.188732780646     0.093956262916    12.000000000000
         C            2.204839811270    -1.527109780646    -0.042054737084    12.000000000000
         C           -1.066727188730     0.226961219354    -0.111005737084    12.000000000000
         C            1.359862811270     2.011049219354     0.191531262916    12.000000000000
         C           -3.429636188730    -0.331361780646     0.178215262916    12.000000000000
         H            0.206275811270    -2.483962780646    -0.295652737084     1.007825032230
         H            3.505131811270     0.292346219354     0.199877262916     1.007825032230
         H            2.901778811270    -2.354192780646    -0.078094737084     1.007825032230
         H            0.682317811270     2.314637219354     0.988867262916     1.007825032230
         H            2.373712811270     2.343448219354     0.420198262916     1.007825032230
         H            1.016131811270     2.455207219354    -0.741635737084     1.007825032230
         H           -1.743738188730    -1.553251780646     0.625864262916     1.007825032230
         H           -4.044596188730    -1.222269780646     0.038666262916     1.007825032230
         H           -3.614872188730     0.369721219354    -0.634971737084     1.007825032230
         H           -3.704885188730     0.155133219354     1.120868262916     1.007825032230

  Basis Set: AUG-CC-PVTZ
    Blend: AUG-CC-PVTZ
  Basis Set: (AUG-CC-PVTZ AUX)
    Blend: AUG-CC-PVTZ-JKFIT
	 Reference Energy          =    -454.8198134105527402 [Eh]
	 Singles Energy            =      -0.0000000000000000 [Eh]
	 Same-Spin Energy          =      -0.4851245429600932 [Eh]
	 Opposite-Spin Energy      =      -1.5164191930857800 [Eh]
	 Correlation Energy        =      -2.0015437360458730 [Eh]
	 Total Energy              =    -456.8213571465985865 [Eh]

	 ================> DF-SCS-MP2 Energies <==================
	-----------------------------------------------------------
	 SCS Same-Spin Scale       =       0.3333333333333333 [-]
	 SCS Opposite-Spin Scale   =       1.2000000000000000 [-]
	 SCS Same-Spin Energy      =      -0.1617081809866977 [Eh]
	 SCS Opposite-Spin Energy  =      -1.8197030317029359 [Eh]
	 SCS Correlation Energy    =      -1.9814112126896337 [Eh]
	 SCS Total Energy          =    -456.8012246232423763 [Eh]
	-----------------------------------------------------------

  Dipole Moment: [D]
     X:     0.2865      Y:    -1.1126      Z:     1.3642     Total:     1.7835

*** Psi4 exiting successfully. Buy a developer a beer!
