                               Psi4 1.3.2 release

  ==> Input File <==

--------------------------------------------------------------------------
#psi4
#
memory 32 gb

molecule  {
0 1
  O       -1.3267430     1.3986080    -0.4043610
  N        1.3477374     0.6253163     0.0729232
  N       -2.0120760    -0.7164460     0.1311050
  C        0.3280180    -0.2917100    -0.0638180
  C        0.8200520    -1.5979270    -0.1446940
  C        2.5591820    -0.1927100     0.0828840
  C        2.2225030    -1.5310870    -0.0531270
  C       -1.0490640     0.2229840    -0.1220780
  C        1.3775260     2.0070720     0.1804590
  C       -3.4119730    -0.3353390     0.1671430
  H        0.2239390    -2.4879400    -0.3067250
  H        3.5227950     0.2883690     0.1888050
  H        2.9194420    -2.3581700    -0.0891670
  H        0.6999810     2.3106600     0.9777950
  H        2.3913760     2.3394710     0.4091260
  H        1.0337950     2.4512300    -0.7527080
  H       -1.7260750    -1.5572290     0.6147920
  H       -4.0269330    -1.2262470     0.0275940
  H       -3.5972090     0.3657440    -0.6460440
  H       -3.6872220     0.1511560     1.1097960
units angstrom
no_reorient  #important for SAPT in psi4, default
symmetry c1  #important for SAPT in psi4, default
}

set PROPERTIES_ORIGIN ["COM"]
properties('MP2/aug-cc-pvtz', properties = ['dipole'])
--------------------------------------------------------------------------

    Molecular point group: c1
  Charge       = 0
  Multiplicity = 1
  Basis Set: AUG-CC-PVTZ
    Blend: AUG-CC-PVTZ
  Basis Set: (AUG-CC-PVTZ AUX)
    Blend: AUG-CC-PVTZ-JKFIT

    Orbital Energies [Eh]
    ---------------------

    Doubly Occupied:

       1A    -20.518082     2A    -15.618047     3A    -15.583717
       4A    -11.354453     5A    -11.272401     6A    -11.271645
       7A    -11.257556     8A    -11.254805     9A    -11.234203
      10A    -11.229143    11A     -1.373890    12A     -1.295770
      13A     -1.226585    14A     -1.096388    15A     -1.012618
      16A     -0.943221    17A     -0.932140    18A     -0.825778
      19A     -0.784099    20A     -0.763835    21A     -0.725665
      22A     -0.647174    23A     -0.641724    24A     -0.637243
      25A     -0.618284    26A     -0.601441    27A     -0.594815
      28A     -0.567078    29A     -0.552606    30A     -0.546505
      31A     -0.535671    32A     -0.523237    33A     -0.504698
      34A     -0.429786    35A     -0.393871    36A     -0.348550
      37A     -0.305583

  @DF-RHF Final Energy:  -454.80443588973253

   => Energetics <=

    Nuclear Repulsion Energy =            522.5730743641395293
    One-Electron Energy =               -1654.7104051363724011
    Two-Electron Energy =                 677.3328948825003408
    Total Energy =                       -454.8044358897325310
  Basis Set: (AUG-CC-PVTZ AUX)
    Blend: AUG-CC-PVTZ-RI
    Molecular point group: c1

    Geometry (in Angstrom), charge = 0, multiplicity = 1:

       Center              X                  Y                   Z               Mass
    ------------   -----------------  -----------------  -----------------  -----------------
         O           -1.336645406761     1.393182658033    -0.393467204148    15.994914619570
         N            1.337834993239     0.619890958033     0.083816995852    14.003074004430
         N           -2.021978406761    -0.721871341967     0.141998795852    14.003074004430
         C            0.318115593239    -0.297135341967    -0.052924204148    12.000000000000
         C            0.810149593239    -1.603352341967    -0.133800204148    12.000000000000
         C            2.549279593239    -0.198135341967     0.093777795852    12.000000000000
         C            2.212600593239    -1.536512341967    -0.042233204148    12.000000000000
         C           -1.058966406761     0.217558658033    -0.111184204148    12.000000000000
         C            1.367623593239     2.001646658033     0.191352795852    12.000000000000
         C           -3.421875406761    -0.340764341967     0.178036795852    12.000000000000
         H            0.214036593239    -2.493365341967    -0.295831204148     1.007825032230
         H            3.512892593239     0.282943658033     0.199698795852     1.007825032230
         H            2.909539593239    -2.363595341967    -0.078273204148     1.007825032230
         H            0.690078593239     2.305234658033     0.988688795852     1.007825032230
         H            2.381473593239     2.334045658033     0.420019795852     1.007825032230
         H            1.023892593239     2.445804658033    -0.741814204148     1.007825032230
         H           -1.735977406761    -1.562654341967     0.625685795852     1.007825032230
         H           -4.036835406761    -1.231672341967     0.038487795852     1.007825032230
         H           -3.607111406761     0.360318658033    -0.635150204148     1.007825032230
         H           -3.697124406761     0.145730658033     1.120689795852     1.007825032230

  Basis Set: AUG-CC-PVTZ
    Blend: AUG-CC-PVTZ
  Basis Set: (AUG-CC-PVTZ AUX)
    Blend: AUG-CC-PVTZ-JKFIT
	 Reference Energy          =    -454.8044358897325310 [Eh]
	 Singles Energy            =      -0.0000000000000000 [Eh]
	 Same-Spin Energy          =      -0.4861474784905925 [Eh]
	 Opposite-Spin Energy      =      -1.5194831635192378 [Eh]
	 Correlation Energy        =      -2.0056306420098302 [Eh]
	 Total Energy              =    -456.8100665317423363 [Eh]

	 ================> DF-SCS-MP2 Energies <==================
	-----------------------------------------------------------
	 SCS Same-Spin Scale       =       0.3333333333333333 [-]
	 SCS Opposite-Spin Scale   =       1.2000000000000000 [-]
	 SCS Same-Spin Energy      =      -0.1620491594968642 [Eh]
	 SCS Opposite-Spin Energy  =      -1.8233797962230853 [Eh]
	 SCS Correlation Energy    =      -1.9854289557199496 [Eh]
	 SCS Total Energy          =    -456.7898648454524846 [Eh]
	-----------------------------------------------------------

  Dipole Moment: [D]
     X:     0.2975      Y:    -1.4472      Z:     1.3360     Total:     1.9920

*** Psi4 exiting successfully. Buy a developer a beer!
