                               Psi4 1.3.2 release

  ==> Input File <==

--------------------------------------------------------------------------
#psi4
#
memory 32 gb

molecule  {
0 1
  O       -1.3267430     1.3986080    -0.4043610
  N        1.4386045     0.5133049     0.0703906
  N       -2.0120760    -0.7164460     0.1311050
  C        0.3280180    -0.2917100    -0.0638180
  C        0.8200520    -1.5979270    -0.1446940
  C        2.5591820    -0.1927100     0.0828840
  C        2.2225030    -1.5310870    -0.0531270
  C       -1.0490640     0.2229840    -0.1220780
  C        1.3775260     2.0070720     0.1804590
  C       -3.4119730    -0.3353390     0.1671430
  H        0.2239390    -2.4879400    -0.3067250
  H        3.5227950     0.2883690     0.1888050
  H        2.9194420    -2.3581700    -0.0891670
  H        0.6999810     2.3106600     0.9777950
  H        2.3913760     2.3394710     0.4091260
  H        1.0337950     2.4512300    -0.7527080
  H       -1.7260750    -1.5572290     0.6147920
  H       -4.0269330    -1.2262470     0.0275940
  H       -3.5972090     0.3657440    -0.6460440
  H       -3.6872220     0.1511560     1.1097960
units angstrom
no_reorient  #important for SAPT in psi4, default
symmetry c1  #important for SAPT in psi4, default
}

set PROPERTIES_ORIGIN ["COM"]
properties('MP2/aug-cc-pvtz', properties = ['dipole'])
--------------------------------------------------------------------------

    Molecular point group: c1
  Charge       = 0
  Multiplicity = 1
  Basis Set: AUG-CC-PVTZ
    Blend: AUG-CC-PVTZ
  Basis Set: (AUG-CC-PVTZ AUX)
    Blend: AUG-CC-PVTZ-JKFIT

    Orbital Energies [Eh]
    ---------------------

    Doubly Occupied:

       1A    -20.515155     2A    -15.622133     3A    -15.582508
       4A    -11.355119     5A    -11.267909     6A    -11.263953
       7A    -11.258877     8A    -11.256968     9A    -11.231897
      10A    -11.216186    11A     -1.371698    12A     -1.315481
      13A     -1.225177    14A     -1.075640    15A     -1.019230
      16A     -0.943507    17A     -0.938050    18A     -0.824987
      19A     -0.788926    20A     -0.761193    21A     -0.723772
      22A     -0.655688    23A     -0.642316    24A     -0.634125
      25A     -0.616724    26A     -0.593201    27A     -0.579504
      28A     -0.568683    29A     -0.548434    30A     -0.546218
      31A     -0.539378    32A     -0.533575    33A     -0.517670
      34A     -0.429400    35A     -0.393087    36A     -0.348162
      37A     -0.306075

  @DF-RHF Final Energy:  -454.81802310079746

   => Energetics <=

    Nuclear Repulsion Energy =            522.9452668531656627
    One-Electron Energy =               -1655.5053668136636134
    Two-Electron Energy =                 677.7420768597005463
    Total Energy =                       -454.8180231007975181
  Basis Set: (AUG-CC-PVTZ AUX)
    Blend: AUG-CC-PVTZ-RI
    Molecular point group: c1

    Geometry (in Angstrom), charge = 0, multiplicity = 1:

       Center              X                  Y                   Z               Mass
    ------------   -----------------  -----------------  -----------------  -----------------
         O           -1.345860536085     1.404542099864    -0.393210364912    15.994914619570
         N            1.419486963915     0.519238999864     0.081541235088    14.003074004430
         N           -2.031193536085    -0.710511900136     0.142255635088    14.003074004430
         C            0.308900463915    -0.285775900136    -0.052667364912    12.000000000000
         C            0.800934463915    -1.591992900136    -0.133543364912    12.000000000000
         C            2.540064463915    -0.186775900136     0.094034635088    12.000000000000
         C            2.203385463915    -1.525152900136    -0.041976364912    12.000000000000
         C           -1.068181536085     0.228918099864    -0.110927364912    12.000000000000
         C            1.358408463915     2.013006099864     0.191609635088    12.000000000000
         C           -3.431090536085    -0.329404900136     0.178293635088    12.000000000000
         H            0.204821463915    -2.482005900136    -0.295574364912     1.007825032230
         H            3.503677463915     0.294303099864     0.199955635088     1.007825032230
         H            2.900324463915    -2.352235900136    -0.078016364912     1.007825032230
         H            0.680863463915     2.316594099864     0.988945635088     1.007825032230
         H            2.372258463915     2.345405099864     0.420276635088     1.007825032230
         H            1.014677463915     2.457164099864    -0.741557364912     1.007825032230
         H           -1.745192536085    -1.551294900136     0.625942635088     1.007825032230
         H           -4.046050536085    -1.220312900136     0.038744635088     1.007825032230
         H           -3.616326536085     0.371678099864    -0.634893364912     1.007825032230
         H           -3.706339536085     0.157090099864     1.120946635088     1.007825032230

  Basis Set: AUG-CC-PVTZ
    Blend: AUG-CC-PVTZ
  Basis Set: (AUG-CC-PVTZ AUX)
    Blend: AUG-CC-PVTZ-JKFIT
	 Reference Energy          =    -454.8180231007974612 [Eh]
	 Singles Energy            =      -0.0000000000000000 [Eh]
	 Same-Spin Energy          =      -0.4850337230231227 [Eh]
	 Opposite-Spin Energy      =      -1.5160692573132601 [Eh]
	 Correlation Energy        =      -2.0011029803363827 [Eh]
	 Total Energy              =    -456.8191260811338452 [Eh]

	 ================> DF-SCS-MP2 Energies <==================
	-----------------------------------------------------------
	 SCS Same-Spin Scale       =       0.3333333333333333 [-]
	 SCS Opposite-Spin Scale   =       1.2000000000000000 [-]
	 SCS Same-Spin Energy      =      -0.1616779076743742 [Eh]
	 SCS Opposite-Spin Energy  =      -1.8192831087759120 [Eh]
	 SCS Correlation Energy    =      -1.9809610164502862 [Eh]
	 SCS Total Energy          =    -456.7989841172477554 [Eh]
	-----------------------------------------------------------

  Dipole Moment: [D]
     X:     0.2915      Y:    -1.0412      Z:     1.3707     Total:     1.7459

*** Psi4 exiting successfully. Buy a developer a beer!
