                               Psi4 1.3.2 release

  ==> Input File <==

--------------------------------------------------------------------------
#psi4
#
memory 32 gb

molecule  {
0 1
  O       -1.1990118     1.4187881    -0.4161004
  N        1.4095890     0.5516460     0.0718950
  N       -2.0120760    -0.7164460     0.1311050
  C        0.3280180    -0.2917100    -0.0638180
  C        0.8200520    -1.5979270    -0.1446940
  C        2.5591820    -0.1927100     0.0828840
  C        2.2225030    -1.5310870    -0.0531270
  C       -1.0490640     0.2229840    -0.1220780
  C        1.3775260     2.0070720     0.1804590
  C       -3.4119730    -0.3353390     0.1671430
  H        0.2239390    -2.4879400    -0.3067250
  H        3.5227950     0.2883690     0.1888050
  H        2.9194420    -2.3581700    -0.0891670
  H        0.6999810     2.3106600     0.9777950
  H        2.3913760     2.3394710     0.4091260
  H        1.0337950     2.4512300    -0.7527080
  H       -1.7260750    -1.5572290     0.6147920
  H       -4.0269330    -1.2262470     0.0275940
  H       -3.5972090     0.3657440    -0.6460440
  H       -3.6872220     0.1511560     1.1097960
units angstrom
no_reorient  #important for SAPT in psi4, default
symmetry c1  #important for SAPT in psi4, default
}

set PROPERTIES_ORIGIN ["COM"]
properties('MP2/aug-cc-pvtz', properties = ['dipole'])
--------------------------------------------------------------------------

    Molecular point group: c1
  Charge       = 0
  Multiplicity = 1
  Basis Set: AUG-CC-PVTZ
    Blend: AUG-CC-PVTZ
  Basis Set: (AUG-CC-PVTZ AUX)
    Blend: AUG-CC-PVTZ-JKFIT

    Orbital Energies [Eh]
    ---------------------

    Doubly Occupied:

       1A    -20.518609     2A    -15.617150     3A    -15.589845
       4A    -11.356756     5A    -11.263412     6A    -11.262248
       7A    -11.259188     8A    -11.258059     9A    -11.228291
      10A    -11.217313    11A     -1.373779    12A     -1.302299
      13A     -1.234392    14A     -1.078774    15A     -1.012904
      16A     -0.944271    17A     -0.934488    18A     -0.825036
      19A     -0.784691    20A     -0.764566    21A     -0.722123
      22A     -0.651270    23A     -0.642836    24A     -0.636376
      25A     -0.617797    26A     -0.590931    27A     -0.576314
      28A     -0.575335    29A     -0.553521    30A     -0.547615
      31A     -0.536869    32A     -0.528965    33A     -0.512991
      34A     -0.427919    35A     -0.399092    36A     -0.344520
      37A     -0.302777

  @DF-RHF Final Energy:  -454.81637150614398

   => Energetics <=

    Nuclear Repulsion Energy =            523.6015890582601742
    One-Electron Energy =               -1656.8492744322040835
    Two-Electron Energy =                 678.4313138678000996
    Total Energy =                       -454.8163715061439234
  Basis Set: (AUG-CC-PVTZ AUX)
    Blend: AUG-CC-PVTZ-RI
    Molecular point group: c1

    Geometry (in Angstrom), charge = 0, multiplicity = 1:

       Center              X                  Y                   Z               Mass
    ------------   -----------------  -----------------  -----------------  -----------------
         O           -1.229982983163     1.418496269137    -0.403742455341    15.994914619570
         N            1.378617816837     0.551354169137     0.084252944659    14.003074004430
         N           -2.043047183163    -0.716737830863     0.143462944659    14.003074004430
         C            0.297046816837    -0.292001830863    -0.051460055341    12.000000000000
         C            0.789080816837    -1.598218830863    -0.132336055341    12.000000000000
         C            2.528210816837    -0.193001830863     0.095241944659    12.000000000000
         C            2.191531816837    -1.531378830863    -0.040769055341    12.000000000000
         C           -1.080035183163     0.222692169137    -0.109720055341    12.000000000000
         C            1.346554816837     2.006780169137     0.192816944659    12.000000000000
         C           -3.442944183163    -0.335630830863     0.179500944659    12.000000000000
         H            0.192967816837    -2.488231830863    -0.294367055341     1.007825032230
         H            3.491823816837     0.288077169137     0.201162944659     1.007825032230
         H            2.888470816837    -2.358461830863    -0.076809055341     1.007825032230
         H            0.669009816837     2.310368169137     0.990152944659     1.007825032230
         H            2.360404816837     2.339179169137     0.421483944659     1.007825032230
         H            1.002823816837     2.450938169137    -0.740350055341     1.007825032230
         H           -1.757046183163    -1.557520830863     0.627149944659     1.007825032230
         H           -4.057904183163    -1.226538830863     0.039951944659     1.007825032230
         H           -3.628180183163     0.365452169137    -0.633686055341     1.007825032230
         H           -3.718193183163     0.150864169137     1.122153944659     1.007825032230

  Basis Set: AUG-CC-PVTZ
    Blend: AUG-CC-PVTZ
  Basis Set: (AUG-CC-PVTZ AUX)
    Blend: AUG-CC-PVTZ-JKFIT
	 Reference Energy          =    -454.8163715061439802 [Eh]
	 Singles Energy            =      -0.0000000000000000 [Eh]
	 Same-Spin Energy          =      -0.4854234548889380 [Eh]
	 Opposite-Spin Energy      =      -1.5172209565440653 [Eh]
	 Correlation Energy        =      -2.0026444114330033 [Eh]
	 Total Energy              =    -456.8190159175769622 [Eh]

	 ================> DF-SCS-MP2 Energies <==================
	-----------------------------------------------------------
	 SCS Same-Spin Scale       =       0.3333333333333333 [-]
	 SCS Opposite-Spin Scale   =       1.2000000000000000 [-]
	 SCS Same-Spin Energy      =      -0.1618078182963126 [Eh]
	 SCS Opposite-Spin Energy  =      -1.8206651478528784 [Eh]
	 SCS Correlation Energy    =      -1.9824729661491909 [Eh]
	 SCS Total Energy          =    -456.7988444722931831 [Eh]
	-----------------------------------------------------------

  Dipole Moment: [D]
     X:    -0.2169      Y:    -1.2104      Z:     1.3768     Total:     1.8460

*** Psi4 exiting successfully. Buy a developer a beer!
