                               Psi4 1.3.2 release

  ==> Input File <==

--------------------------------------------------------------------------
#psi4
#
memory 32 gb

molecule  {
0 1
  O       -1.3267430     1.3986080    -0.4043610
  N        1.4095890     0.5516460     0.0718950
  N       -2.0120760    -0.7164460     0.1311050
  C        0.4227864    -0.4004354    -0.0667589
  C        0.8200520    -1.5979270    -0.1446940
  C        2.5591820    -0.1927100     0.0828840
  C        2.2225030    -1.5310870    -0.0531270
  C       -1.0490640     0.2229840    -0.1220780
  C        1.3775260     2.0070720     0.1804590
  C       -3.4119730    -0.3353390     0.1671430
  H        0.2239390    -2.4879400    -0.3067250
  H        3.5227950     0.2883690     0.1888050
  H        2.9194420    -2.3581700    -0.0891670
  H        0.6999810     2.3106600     0.9777950
  H        2.3913760     2.3394710     0.4091260
  H        1.0337950     2.4512300    -0.7527080
  H       -1.7260750    -1.5572290     0.6147920
  H       -4.0269330    -1.2262470     0.0275940
  H       -3.5972090     0.3657440    -0.6460440
  H       -3.6872220     0.1511560     1.1097960
units angstrom
no_reorient  #important for SAPT in psi4, default
symmetry c1  #important for SAPT in psi4, default
}

set PROPERTIES_ORIGIN ["COM"]
properties('MP2/aug-cc-pvtz', properties = ['dipole'])
--------------------------------------------------------------------------

    Molecular point group: c1
  Charge       = 0
  Multiplicity = 1
  Basis Set: AUG-CC-PVTZ
    Blend: AUG-CC-PVTZ
  Basis Set: (AUG-CC-PVTZ AUX)
    Blend: AUG-CC-PVTZ-JKFIT

    Orbital Energies [Eh]
    ---------------------

    Doubly Occupied:

       1A    -20.523561     2A    -15.608515     3A    -15.585924
       4A    -11.362807     5A    -11.264513     6A    -11.260314
       7A    -11.260155     8A    -11.258617     9A    -11.214186
      10A    -11.212491    11A     -1.372987    12A     -1.310427
      13A     -1.227260    14A     -1.100251    15A     -1.003168
      16A     -0.946239    17A     -0.938370    18A     -0.807816
      19A     -0.791248    20A     -0.756409    21A     -0.728571
      22A     -0.646284    23A     -0.639936    24A     -0.635231
      25A     -0.616938    26A     -0.604374    27A     -0.585300
      28A     -0.558007    29A     -0.550035    30A     -0.547072
      31A     -0.539990    32A     -0.535645    33A     -0.518882
      34A     -0.422560    35A     -0.395561    36A     -0.355937
      37A     -0.310272

  @DF-RHF Final Energy:  -454.79452085284726

   => Energetics <=

    Nuclear Repulsion Energy =            522.8594684629526910
    One-Electron Energy =               -1655.3162760625612009
    Two-Electron Energy =                 677.6622867467611968
    Total Energy =                       -454.7945208528473131
  Basis Set: (AUG-CC-PVTZ AUX)
    Blend: AUG-CC-PVTZ-RI
    Molecular point group: c1

    Geometry (in Angstrom), charge = 0, multiplicity = 1:

       Center              X                  Y                   Z               Mass
    ------------   -----------------  -----------------  -----------------  -----------------
         O           -1.351153976432     1.410102755713    -0.393107347486    15.994914619570
         N            1.385178023568     0.563140755713     0.083148652514    14.003074004430
         N           -2.036486976432    -0.704951244287     0.142358652514    14.003074004430
         C            0.398375423568    -0.388940644287    -0.055505247486    12.000000000000
         C            0.795641023568    -1.586432244287    -0.133440347486    12.000000000000
         C            2.534771023568    -0.181215244287     0.094137652514    12.000000000000
         C            2.198092023568    -1.519592244287    -0.041873347486    12.000000000000
         C           -1.073474976432     0.234478755713    -0.110824347486    12.000000000000
         C            1.353115023568     2.018566755713     0.191712652514    12.000000000000
         C           -3.436383976432    -0.323844244287     0.178396652514    12.000000000000
         H            0.199528023568    -2.476445244287    -0.295471347486     1.007825032230
         H            3.498384023568     0.299863755713     0.200058652514     1.007825032230
         H            2.895031023568    -2.346675244287    -0.077913347486     1.007825032230
         H            0.675570023568     2.322154755713     0.989048652514     1.007825032230
         H            2.366965023568     2.350965755713     0.420379652514     1.007825032230
         H            1.009384023568     2.462724755713    -0.741454347486     1.007825032230
         H           -1.750485976432    -1.545734244287     0.626045652514     1.007825032230
         H           -4.051343976432    -1.214752244287     0.038847652514     1.007825032230
         H           -3.621619976432     0.377238755713    -0.634790347486     1.007825032230
         H           -3.711632976432     0.162650755713     1.121049652514     1.007825032230

  Basis Set: AUG-CC-PVTZ
    Blend: AUG-CC-PVTZ
  Basis Set: (AUG-CC-PVTZ AUX)
    Blend: AUG-CC-PVTZ-JKFIT
	 Reference Energy          =    -454.7945208528472563 [Eh]
	 Singles Energy            =      -0.0000000000000000 [Eh]
	 Same-Spin Energy          =      -0.4833085245809302 [Eh]
	 Opposite-Spin Energy      =      -1.5146468437436464 [Eh]
	 Correlation Energy        =      -1.9979553683245765 [Eh]
	 Total Energy              =    -456.7924762211718530 [Eh]

	 ================> DF-SCS-MP2 Energies <==================
	-----------------------------------------------------------
	 SCS Same-Spin Scale       =       0.3333333333333333 [-]
	 SCS Opposite-Spin Scale   =       1.2000000000000000 [-]
	 SCS Same-Spin Energy      =      -0.1611028415269767 [Eh]
	 SCS Opposite-Spin Energy  =      -1.8175762124923756 [Eh]
	 SCS Correlation Energy    =      -1.9786790540193522 [Eh]
	 SCS Total Energy          =    -456.7731999068665800 [Eh]
	-----------------------------------------------------------

  Dipole Moment: [D]
     X:    -0.1929      Y:    -1.1535      Z:     1.3251     Total:     1.7674

*** Psi4 exiting successfully. Buy a developer a beer!
