                               Psi4 1.4a3.dev225

  ==> Input File <==

--------------------------------------------------------------------------
#psi4
#
memory 32 gb

molecule  {
0 1
  O       -1.3267430     1.3986080    -0.4043610
  N        1.4095890     0.5516460     0.0718950
  N       -2.0120760    -0.7164460     0.1311050
  C        0.3280180    -0.2917100    -0.0638180
  C        0.8376478    -1.6446391    -0.1475862
  C        2.5591820    -0.1927100     0.0828840
  C        2.2225030    -1.5310870    -0.0531270
  C       -1.0490640     0.2229840    -0.1220780
  C        1.3775260     2.0070720     0.1804590
  C       -3.4119730    -0.3353390     0.1671430
  H        0.2239390    -2.4879400    -0.3067250
  H        3.5227950     0.2883690     0.1888050
  H        2.9194420    -2.3581700    -0.0891670
  H        0.6999810     2.3106600     0.9777950
  H        2.3913760     2.3394710     0.4091260
  H        1.0337950     2.4512300    -0.7527080
  H       -1.7260750    -1.5572290     0.6147920
  H       -4.0269330    -1.2262470     0.0275940
  H       -3.5972090     0.3657440    -0.6460440
  H       -3.6872220     0.1511560     1.1097960
units angstrom
no_reorient  #important for SAPT in psi4, default
symmetry c1  #important for SAPT in psi4, default
}

set PROPERTIES_ORIGIN ["COM"]
properties('MP2/aug-cc-pvtz', properties = ['dipole'])
--------------------------------------------------------------------------

    Molecular point group: c1
  Charge       = 0
  Multiplicity = 1
  Basis Set: AUG-CC-PVTZ
    Blend: AUG-CC-PVTZ
  Basis Set: (AUG-CC-PVTZ AUX)
    Blend: AUG-CC-PVTZ-JKFIT

    Orbital Energies [Eh]
    ---------------------

    Doubly Occupied:

       1A    -20.515164     2A    -15.625887     3A    -15.582291
       4A    -11.354108     5A    -11.266734     6A    -11.266654
       7A    -11.264826     8A    -11.256766     9A    -11.234641
      10A    -11.221600    11A     -1.371480    12A     -1.306346
      13A     -1.224913    14A     -1.081804    15A     -1.013107
      16A     -0.942115    17A     -0.940000    18A     -0.825762
      19A     -0.787126    20A     -0.761546    21A     -0.725550
      22A     -0.651977    23A     -0.641753    24A     -0.634451
      25A     -0.617087    26A     -0.594223    27A     -0.583401
      28A     -0.572500    29A     -0.556519    30A     -0.546177
      31A     -0.537198    32A     -0.528119    33A     -0.513189
      34A     -0.428411    35A     -0.392901    36A     -0.350617
      37A     -0.300805

  @DF-RHF Final Energy:  -454.81498534065099

   => Energetics <=

    Nuclear Repulsion Energy =            521.8619621480575006
    One-Electron Energy =               -1653.3183946562394340
    Two-Electron Energy =                 676.6414471675309414
    Total Energy =                       -454.8149853406509919
  Basis Set: (AUG-CC-PVTZ AUX)
    Blend: AUG-CC-PVTZ-RI
    Molecular point group: c1

    Geometry (in Angstrom), charge = 0, multiplicity = 1:

       Center              X                  Y                   Z               Mass
    ------------   -----------------  -----------------  -----------------  -----------------
         O           -1.344447170176     1.404713392281    -0.393111579836    15.994914619570
         N            1.391884829824     0.557751392281     0.083144420164    14.003074004430
         N           -2.029780170176    -0.710340607719     0.142354420164    14.003074004430
         C            0.310313829824    -0.285604607719    -0.052568579836    12.000000000000
         C            0.819943629824    -1.638533707719    -0.136336779836    12.000000000000
         C            2.541477829824    -0.186604607719     0.094133420164    12.000000000000
         C            2.204798829824    -1.524981607719    -0.041877579836    12.000000000000
         C           -1.066768170176     0.229089392281    -0.110828579836    12.000000000000
         C            1.359821829824     2.013177392281     0.191708420164    12.000000000000
         C           -3.429677170176    -0.329233607719     0.178392420164    12.000000000000
         H            0.206234829824    -2.481834607719    -0.295475579836     1.007825032230
         H            3.505090829824     0.294474392281     0.200054420164     1.007825032230
         H            2.901737829824    -2.352064607719    -0.077917579836     1.007825032230
         H            0.682276829824     2.316765392281     0.989044420164     1.007825032230
         H            2.373671829824     2.345576392281     0.420375420164     1.007825032230
         H            1.016090829824     2.457335392281    -0.741458579836     1.007825032230
         H           -1.743779170176    -1.551123607719     0.626041420164     1.007825032230
         H           -4.044637170176    -1.220141607719     0.038843420164     1.007825032230
         H           -3.614913170176     0.371849392281    -0.634794579836     1.007825032230
         H           -3.704926170176     0.157261392281     1.121045420164     1.007825032230

  Basis Set: AUG-CC-PVTZ
    Blend: AUG-CC-PVTZ
  Basis Set: (AUG-CC-PVTZ AUX)
    Blend: AUG-CC-PVTZ-JKFIT
	 Reference Energy          =    -454.8149853406509919 [Eh]
	 Singles Energy            =      -0.0000000000000000 [Eh]
	 Same-Spin Energy          =      -0.4860260270969305 [Eh]
	 Opposite-Spin Energy      =      -1.5180293749160509 [Eh]
	 Correlation Energy        =      -2.0040554020129813 [Eh]
	 Total Energy              =    -456.8190407426639581 [Eh]

	 ================> DF-SCS-MP2 Energies <==================
	-----------------------------------------------------------
	 SCS Same-Spin Scale       =       0.3333333333333333 [-]
	 SCS Opposite-Spin Scale   =       1.2000000000000000 [-]
	 SCS Same-Spin Energy      =      -0.1620086756989768 [Eh]
	 SCS Opposite-Spin Energy  =      -1.8216352498992610 [Eh]
	 SCS Correlation Energy    =      -1.9836439255982379 [Eh]
	 SCS Total Energy          =    -456.7986292662492360 [Eh]
	-----------------------------------------------------------

  Dipole Moment: [D]
     X:     0.3353      Y:    -1.1571      Z:     1.3592     Total:     1.8163

*** Psi4 exiting successfully. Buy a developer a beer!
