                               Psi4 1.3.2 release

  ==> Input File <==

--------------------------------------------------------------------------
#psi4
#
memory 32 gb

molecule  {
0 1
  O       -1.3267430     1.3986080    -0.4043610
  N        1.4095890     0.5516460     0.0718950
  N       -2.0774857    -0.6479652     0.1183770
  C        0.3280180    -0.2917100    -0.0638180
  C        0.8200520    -1.5979270    -0.1446940
  C        2.5591820    -0.1927100     0.0828840
  C        2.2225030    -1.5310870    -0.0531270
  C       -1.0490640     0.2229840    -0.1220780
  C        1.3775260     2.0070720     0.1804590
  C       -3.4119730    -0.3353390     0.1671430
  H        0.2239390    -2.4879400    -0.3067250
  H        3.5227950     0.2883690     0.1888050
  H        2.9194420    -2.3581700    -0.0891670
  H        0.6999810     2.3106600     0.9777950
  H        2.3913760     2.3394710     0.4091260
  H        1.0337950     2.4512300    -0.7527080
  H       -1.7260750    -1.5572290     0.6147920
  H       -4.0269330    -1.2262470     0.0275940
  H       -3.5972090     0.3657440    -0.6460440
  H       -3.6872220     0.1511560     1.1097960
units angstrom
no_reorient  #important for SAPT in psi4, default
symmetry c1  #important for SAPT in psi4, default
}

set PROPERTIES_ORIGIN ["COM"]
properties('MP2/aug-cc-pvtz', properties = ['dipole'])
--------------------------------------------------------------------------

    Molecular point group: c1
  Charge       = 0
  Multiplicity = 1
  Basis Set: AUG-CC-PVTZ
    Blend: AUG-CC-PVTZ
  Basis Set: (AUG-CC-PVTZ AUX)
    Blend: AUG-CC-PVTZ-JKFIT

    Orbital Energies [Eh]
    ---------------------

    Doubly Occupied:

       1A    -20.512226     2A    -15.623510     3A    -15.585615
       4A    -11.354790     5A    -11.269428     6A    -11.267180
       7A    -11.264243     8A    -11.250139     9A    -11.235370
      10A    -11.222497    11A     -1.373758    12A     -1.309175
      13A     -1.231114    14A     -1.084747    15A     -1.020949
      16A     -0.945865    17A     -0.939625    18A     -0.819406
      19A     -0.787392    20A     -0.750774    21A     -0.726328
      22A     -0.660258    23A     -0.644868    24A     -0.637877
      25A     -0.623789    26A     -0.599873    27A     -0.581569
      28A     -0.580570    29A     -0.551971    30A     -0.539029
      31A     -0.537516    32A     -0.525499    33A     -0.512550
      34A     -0.427929    35A     -0.383960    36A     -0.349772
      37A     -0.309023

  @DF-RHF Final Energy:  -454.80589464084699

   => Energetics <=

    Nuclear Repulsion Energy =            523.1281726390880067
    One-Electron Energy =               -1655.7877659628411493
    Two-Electron Energy =                 677.8536986829061561
    Total Energy =                       -454.8058946408469865
  Basis Set: (AUG-CC-PVTZ AUX)
    Blend: AUG-CC-PVTZ-RI
    Molecular point group: c1

    Geometry (in Angstrom), charge = 0, multiplicity = 1:

       Center              X                  Y                   Z               Mass
    ------------   -----------------  -----------------  -----------------  -----------------
         O           -1.336284568222     1.393708942173    -0.392072142987    15.994914619570
         N            1.400047431778     0.546746942173     0.084183857013    14.003074004430
         N           -2.087027268222    -0.652864257827     0.130665857013    14.003074004430
         C            0.318476431778    -0.296609057827    -0.051529142987    12.000000000000
         C            0.810510431778    -1.602826057827    -0.132405142987    12.000000000000
         C            2.549640431778    -0.197609057827     0.095172857013    12.000000000000
         C            2.212961431778    -1.535986057827    -0.040838142987    12.000000000000
         C           -1.058605568222     0.218084942173    -0.109789142987    12.000000000000
         C            1.367984431778     2.002172942173     0.192747857013    12.000000000000
         C           -3.421514568222    -0.340238057827     0.179431857013    12.000000000000
         H            0.214397431778    -2.492839057827    -0.294436142987     1.007825032230
         H            3.513253431778     0.283469942173     0.201093857013     1.007825032230
         H            2.909900431778    -2.363069057827    -0.076878142987     1.007825032230
         H            0.690439431778     2.305760942173     0.990083857013     1.007825032230
         H            2.381834431778     2.334571942173     0.421414857013     1.007825032230
         H            1.024253431778     2.446330942173    -0.740419142987     1.007825032230
         H           -1.735616568222    -1.562128057827     0.627080857013     1.007825032230
         H           -4.036474568222    -1.231146057827     0.039882857013     1.007825032230
         H           -3.606750568222     0.360844942173    -0.633755142987     1.007825032230
         H           -3.696763568222     0.146256942173     1.122084857013     1.007825032230

  Basis Set: AUG-CC-PVTZ
    Blend: AUG-CC-PVTZ
  Basis Set: (AUG-CC-PVTZ AUX)
    Blend: AUG-CC-PVTZ-JKFIT
	 Reference Energy          =    -454.8058946408469865 [Eh]
	 Singles Energy            =      -0.0000000000000000 [Eh]
	 Same-Spin Energy          =      -0.4862624741261184 [Eh]
	 Opposite-Spin Energy      =      -1.5181516114504499 [Eh]
	 Correlation Energy        =      -2.0044140855765682 [Eh]
	 Total Energy              =    -456.8103087264235569 [Eh]

	 ================> DF-SCS-MP2 Energies <==================
	-----------------------------------------------------------
	 SCS Same-Spin Scale       =       0.3333333333333333 [-]
	 SCS Opposite-Spin Scale   =       1.2000000000000000 [-]
	 SCS Same-Spin Energy      =      -0.1620874913753728 [Eh]
	 SCS Opposite-Spin Energy  =      -1.8217819337405396 [Eh]
	 SCS Correlation Energy    =      -1.9838694251159124 [Eh]
	 SCS Total Energy          =    -456.7897640659629133 [Eh]
	-----------------------------------------------------------

  Dipole Moment: [D]
     X:     0.5118      Y:    -1.2951      Z:     1.3318     Total:     1.9268

*** Psi4 exiting successfully. Buy a developer a beer!
