                               Psi4 1.3.2 release

  ==> Input File <==

--------------------------------------------------------------------------
#psi4
#
memory 32 gb

molecule  {
0 1
  O       -1.3267430     1.3986080    -0.4043610
  N        1.4095890     0.5516460     0.0718950
  N       -2.0120760    -0.7164460     0.1311050
  C        0.3280180    -0.2917100    -0.0638180
  C        0.8427426    -1.5893072    -0.1421846
  C        2.5591820    -0.1927100     0.0828840
  C        2.2225030    -1.5310870    -0.0531270
  C       -1.0490640     0.2229840    -0.1220780
  C        1.3775260     2.0070720     0.1804590
  C       -3.4119730    -0.3353390     0.1671430
  H        0.2239390    -2.4879400    -0.3067250
  H        3.5227950     0.2883690     0.1888050
  H        2.9194420    -2.3581700    -0.0891670
  H        0.6999810     2.3106600     0.9777950
  H        2.3913760     2.3394710     0.4091260
  H        1.0337950     2.4512300    -0.7527080
  H       -1.7260750    -1.5572290     0.6147920
  H       -4.0269330    -1.2262470     0.0275940
  H       -3.5972090     0.3657440    -0.6460440
  H       -3.6872220     0.1511560     1.1097960
units angstrom
no_reorient  #important for SAPT in psi4, default
symmetry c1  #important for SAPT in psi4, default
}

set PROPERTIES_ORIGIN ["COM"]
properties('MP2/aug-cc-pvtz', properties = ['dipole'])
--------------------------------------------------------------------------

    Molecular point group: c1
  Charge       = 0
  Multiplicity = 1
  Basis Set: AUG-CC-PVTZ
    Blend: AUG-CC-PVTZ
  Basis Set: (AUG-CC-PVTZ AUX)
    Blend: AUG-CC-PVTZ-JKFIT

    Orbital Energies [Eh]
    ---------------------

    Doubly Occupied:

       1A    -20.515958     2A    -15.621656     3A    -15.582784
       4A    -11.355103     5A    -11.266969     6A    -11.263246
       7A    -11.261262     8A    -11.257056     9A    -11.232083
      10A    -11.218582    11A     -1.372207    12A     -1.307901
      13A     -1.225458    14A     -1.085526    15A     -1.015808
      16A     -0.941515    17A     -0.939018    18A     -0.825087
      19A     -0.785347    20A     -0.762427    21A     -0.724470
      22A     -0.651803    23A     -0.642345    24A     -0.634740
      25A     -0.616758    26A     -0.591946    27A     -0.578954
      28A     -0.574293    29A     -0.553219    30A     -0.547307
      31A     -0.537885    32A     -0.529254    33A     -0.514309
      34A     -0.429912    35A     -0.393264    36A     -0.350665
      37A     -0.305277

  @DF-RHF Final Energy:  -454.81876919318120

   => Energetics <=

    Nuclear Repulsion Energy =            523.0053536042103133
    One-Electron Energy =               -1655.6254563047252759
    Two-Electron Energy =                 677.8013335073337657
    Total Energy =                       -454.8187691931811969
  Basis Set: (AUG-CC-PVTZ AUX)
    Blend: AUG-CC-PVTZ-RI
    Molecular point group: c1

    Geometry (in Angstrom), charge = 0, multiplicity = 1:

       Center              X                  Y                   Z               Mass
    ------------   -----------------  -----------------  -----------------  -----------------
         O           -1.344889941788     1.399904686431    -0.393581014385    15.994914619570
         N            1.391442058212     0.552942686431     0.082674985615    14.003074004430
         N           -2.030222941788    -0.715149313569     0.141884985615    14.003074004430
         C            0.309871058212    -0.290413313569    -0.053038014385    12.000000000000
         C            0.824595658212    -1.588010513569    -0.131404614385    12.000000000000
         C            2.541035058212    -0.191413313569     0.093663985615    12.000000000000
         C            2.204356058212    -1.529790313569    -0.042347014385    12.000000000000
         C           -1.067210941788     0.224280686431    -0.111298014385    12.000000000000
         C            1.359379058212     2.008368686431     0.191238985615    12.000000000000
         C           -3.430119941788    -0.334042313569     0.177922985615    12.000000000000
         H            0.205792058212    -2.486643313569    -0.295945014385     1.007825032230
         H            3.504648058212     0.289665686431     0.199584985615     1.007825032230
         H            2.901295058212    -2.356873313569    -0.078387014385     1.007825032230
         H            0.681834058212     2.311956686431     0.988574985615     1.007825032230
         H            2.373229058212     2.340767686431     0.419905985615     1.007825032230
         H            1.015648058212     2.452526686431    -0.741928014385     1.007825032230
         H           -1.744221941788    -1.555932313569     0.625571985615     1.007825032230
         H           -4.045079941788    -1.224950313569     0.038373985615     1.007825032230
         H           -3.615355941788     0.367040686431    -0.635264014385     1.007825032230
         H           -3.705368941788     0.152452686431     1.120575985615     1.007825032230

  Basis Set: AUG-CC-PVTZ
    Blend: AUG-CC-PVTZ
  Basis Set: (AUG-CC-PVTZ AUX)
    Blend: AUG-CC-PVTZ-JKFIT
	 Reference Energy          =    -454.8187691931811969 [Eh]
	 Singles Energy            =      -0.0000000000000000 [Eh]
	 Same-Spin Energy          =      -0.4855112968523287 [Eh]
	 Opposite-Spin Energy      =      -1.5170271402420434 [Eh]
	 Correlation Energy        =      -2.0025384370943722 [Eh]
	 Total Energy              =    -456.8213076302755553 [Eh]

	 ================> DF-SCS-MP2 Energies <==================
	-----------------------------------------------------------
	 SCS Same-Spin Scale       =       0.3333333333333333 [-]
	 SCS Opposite-Spin Scale   =       1.2000000000000000 [-]
	 SCS Same-Spin Energy      =      -0.1618370989507762 [Eh]
	 SCS Opposite-Spin Energy  =      -1.8204325682904521 [Eh]
	 SCS Correlation Energy    =      -1.9822696672412283 [Eh]
	 SCS Total Energy          =    -456.8010388604224090 [Eh]
	-----------------------------------------------------------

  Dipole Moment: [D]
     X:     0.2964      Y:    -1.1937      Z:     1.3591     Total:     1.8330

*** Psi4 exiting successfully. Buy a developer a beer!
