                               Psi4 1.4a3.dev225

  ==> Input File <==

--------------------------------------------------------------------------
#psi4
#
memory 32 gb

molecule  {
0 1
  O       -1.3267430     1.3986080    -0.4043610
  N        1.4095890     0.5516460     0.0718950
  N       -2.0120760    -0.7164460     0.1311050
  C        0.3437133    -0.2794716    -0.0618486
  C        0.8200520    -1.5979270    -0.1446940
  C        2.5591820    -0.1927100     0.0828840
  C        2.2225030    -1.5310870    -0.0531270
  C       -1.0490640     0.2229840    -0.1220780
  C        1.3775260     2.0070720     0.1804590
  C       -3.4119730    -0.3353390     0.1671430
  H        0.2239390    -2.4879400    -0.3067250
  H        3.5227950     0.2883690     0.1888050
  H        2.9194420    -2.3581700    -0.0891670
  H        0.6999810     2.3106600     0.9777950
  H        2.3913760     2.3394710     0.4091260
  H        1.0337950     2.4512300    -0.7527080
  H       -1.7260750    -1.5572290     0.6147920
  H       -4.0269330    -1.2262470     0.0275940
  H       -3.5972090     0.3657440    -0.6460440
  H       -3.6872220     0.1511560     1.1097960
units angstrom
no_reorient  #important for SAPT in psi4, default
symmetry c1  #important for SAPT in psi4, default
}

set PROPERTIES_ORIGIN ["COM"]
properties('MP2/aug-cc-pvtz', properties = ['dipole'])
--------------------------------------------------------------------------

    Molecular point group: c1
  Charge       = 0
  Multiplicity = 1
  Basis Set: AUG-CC-PVTZ
    Blend: AUG-CC-PVTZ
  Basis Set: (AUG-CC-PVTZ AUX)
    Blend: AUG-CC-PVTZ-JKFIT

    Orbital Energies [Eh]
    ---------------------

    Doubly Occupied:

       1A    -20.516409     2A    -15.621774     3A    -15.583642
       4A    -11.355750     5A    -11.264903     6A    -11.264264
       7A    -11.263241     8A    -11.257635     9A    -11.231073
      10A    -11.220599    11A     -1.372733    12A     -1.311873
      13A     -1.225773    14A     -1.082201    15A     -1.014771
      16A     -0.942933    17A     -0.938874    18A     -0.823525
      19A     -0.788236    20A     -0.761824    21A     -0.725573
      22A     -0.651000    23A     -0.643335    24A     -0.635446
      25A     -0.617619    26A     -0.594281    27A     -0.581617
      28A     -0.573497    29A     -0.549455    30A     -0.547001
      31A     -0.537695    32A     -0.533308    33A     -0.514675
      34A     -0.429025    35A     -0.393544    36A     -0.348099
      37A     -0.305318

  @DF-RHF Final Energy:  -454.81992500020050

   => Energetics <=

    Nuclear Repulsion Energy =            522.8814349721418466
    One-Electron Energy =               -1655.3576768380030444
    Two-Electron Energy =                 677.6563168656606422
    Total Energy =                       -454.8199250002004419
  Basis Set: (AUG-CC-PVTZ AUX)
    Blend: AUG-CC-PVTZ-RI
    Molecular point group: c1

    Geometry (in Angstrom), charge = 0, multiplicity = 1:

       Center              X                  Y                   Z               Mass
    ------------   -----------------  -----------------  -----------------  -----------------
         O           -1.344282004232     1.399590206303    -0.393534084835    15.994914619570
         N            1.392049995768     0.552628206303     0.082721915165    14.003074004430
         N           -2.029615004232    -0.715463793697     0.141931915165    14.003074004430
         C            0.326174295768    -0.278489393697    -0.051021684835    12.000000000000
         C            0.802512995768    -1.596944793697    -0.133867084835    12.000000000000
         C            2.541642995768    -0.191727793697     0.093710915165    12.000000000000
         C            2.204963995768    -1.530104793697    -0.042300084835    12.000000000000
         C           -1.066603004232     0.223966206303    -0.111251084835    12.000000000000
         C            1.359986995768     2.008054206303     0.191285915165    12.000000000000
         C           -3.429512004232    -0.334356793697     0.177969915165    12.000000000000
         H            0.206399995768    -2.486957793697    -0.295898084835     1.007825032230
         H            3.505255995768     0.289351206303     0.199631915165     1.007825032230
         H            2.901902995768    -2.357187793697    -0.078340084835     1.007825032230
         H            0.682441995768     2.311642206303     0.988621915165     1.007825032230
         H            2.373836995768     2.340453206303     0.419952915165     1.007825032230
         H            1.016255995768     2.452212206303    -0.741881084835     1.007825032230
         H           -1.743614004232    -1.556246793697     0.625618915165     1.007825032230
         H           -4.044472004232    -1.225264793697     0.038420915165     1.007825032230
         H           -3.614748004232     0.366726206303    -0.635217084835     1.007825032230
         H           -3.704761004232     0.152138206303     1.120622915165     1.007825032230

  Basis Set: AUG-CC-PVTZ
    Blend: AUG-CC-PVTZ
  Basis Set: (AUG-CC-PVTZ AUX)
    Blend: AUG-CC-PVTZ-JKFIT
	 Reference Energy          =    -454.8199250002004987 [Eh]
	 Singles Energy            =      -0.0000000000000000 [Eh]
	 Same-Spin Energy          =      -0.4851997958929095 [Eh]
	 Opposite-Spin Energy      =      -1.5166057414361764 [Eh]
	 Correlation Energy        =      -2.0018055373290862 [Eh]
	 Total Energy              =    -456.8217305375295609 [Eh]

	 ================> DF-SCS-MP2 Energies <==================
	-----------------------------------------------------------
	 SCS Same-Spin Scale       =       0.3333333333333333 [-]
	 SCS Opposite-Spin Scale   =       1.2000000000000000 [-]
	 SCS Same-Spin Energy      =      -0.1617332652976365 [Eh]
	 SCS Opposite-Spin Energy  =      -1.8199268897234115 [Eh]
	 SCS Correlation Energy    =      -1.9816601550210480 [Eh]
	 SCS Total Energy          =    -456.8015851552215736 [Eh]
	-----------------------------------------------------------

  Dipole Moment: [D]
     X:     0.2564      Y:    -1.1517      Z:     1.3614     Total:     1.8015

*** Psi4 exiting successfully. Buy a developer a beer!
