                               Psi4 1.3.2 release

  ==> Input File <==

--------------------------------------------------------------------------
#psi4
#
memory 32 gb

molecule  {
0 1
  O       -1.3267430     1.3986080    -0.4043610
  N        1.4095890     0.5516460     0.0718950
  N       -2.0120760    -0.7164460     0.1311050
  C        0.3583395    -0.3290395    -0.0649654
  C        0.8200520    -1.5979270    -0.1446940
  C        2.5591820    -0.1927100     0.0828840
  C        2.2225030    -1.5310870    -0.0531270
  C       -1.0490640     0.2229840    -0.1220780
  C        1.3775260     2.0070720     0.1804590
  C       -3.4119730    -0.3353390     0.1671430
  H        0.2239390    -2.4879400    -0.3067250
  H        3.5227950     0.2883690     0.1888050
  H        2.9194420    -2.3581700    -0.0891670
  H        0.6999810     2.3106600     0.9777950
  H        2.3913760     2.3394710     0.4091260
  H        1.0337950     2.4512300    -0.7527080
  H       -1.7260750    -1.5572290     0.6147920
  H       -4.0269330    -1.2262470     0.0275940
  H       -3.5972090     0.3657440    -0.6460440
  H       -3.6872220     0.1511560     1.1097960
units angstrom
no_reorient  #important for SAPT in psi4, default
symmetry c1  #important for SAPT in psi4, default
}

set PROPERTIES_ORIGIN ["COM"]
properties('MP2/aug-cc-pvtz', properties = ['dipole'])
--------------------------------------------------------------------------

    Molecular point group: c1
  Charge       = 0
  Multiplicity = 1
  Basis Set: AUG-CC-PVTZ
    Blend: AUG-CC-PVTZ
  Basis Set: (AUG-CC-PVTZ AUX)
    Blend: AUG-CC-PVTZ-JKFIT

    Orbital Energies [Eh]
    ---------------------

    Doubly Occupied:

       1A    -20.519260     2A    -15.616500     3A    -15.584314
       4A    -11.358557     5A    -11.264345     6A    -11.263655
       7A    -11.262202     8A    -11.257913     9A    -11.226103
      10A    -11.217933    11A     -1.372875    12A     -1.307552
      13A     -1.226612    14A     -1.087004    15A     -1.011399
      16A     -0.942628    17A     -0.938661    18A     -0.818775
      19A     -0.788254    20A     -0.761042    21A     -0.726013
      22A     -0.648845    23A     -0.641252    24A     -0.635258
      25A     -0.617104    26A     -0.595587    27A     -0.582442
      28A     -0.569232    29A     -0.550470    30A     -0.547785
      31A     -0.537907    32A     -0.534621    33A     -0.515471
      34A     -0.428888    35A     -0.394440    36A     -0.348972
      37A     -0.308701

  @DF-RHF Final Energy:  -454.81870099094812

   => Energetics <=

    Nuclear Repulsion Energy =            522.7419176263517784
    One-Electron Energy =               -1655.1040921791391156
    Two-Electron Energy =                 677.5434735618391642
    Total Energy =                       -454.8187009909481731
  Basis Set: (AUG-CC-PVTZ AUX)
    Blend: AUG-CC-PVTZ-RI
    Molecular point group: c1

    Geometry (in Angstrom), charge = 0, multiplicity = 1:

       Center              X                  Y                   Z               Mass
    ------------   -----------------  -----------------  -----------------  -----------------
         O           -1.345553117162     1.403897982662    -0.393263214426    15.994914619570
         N            1.390778882838     0.556935982662     0.082992785574    14.003074004430
         N           -2.030886117162    -0.711156017338     0.142202785574    14.003074004430
         C            0.339529382838    -0.323749517338    -0.053867614426    12.000000000000
         C            0.801241882838    -1.592637017338    -0.133596214426    12.000000000000
         C            2.540371882838    -0.187420017338     0.093981785574    12.000000000000
         C            2.203692882838    -1.525797017338    -0.042029214426    12.000000000000
         C           -1.067874117162     0.228273982662    -0.110980214426    12.000000000000
         C            1.358715882838     2.012361982662     0.191556785574    12.000000000000
         C           -3.430783117162    -0.330049017338     0.178240785574    12.000000000000
         H            0.205128882838    -2.482650017338    -0.295627214426     1.007825032230
         H            3.503984882838     0.293658982662     0.199902785574     1.007825032230
         H            2.900631882838    -2.352880017338    -0.078069214426     1.007825032230
         H            0.681170882838     2.315949982662     0.988892785574     1.007825032230
         H            2.372565882838     2.344760982662     0.420223785574     1.007825032230
         H            1.014984882838     2.456519982662    -0.741610214426     1.007825032230
         H           -1.744885117162    -1.551939017338     0.625889785574     1.007825032230
         H           -4.045743117162    -1.220957017338     0.038691785574     1.007825032230
         H           -3.616019117162     0.371033982662    -0.634946214426     1.007825032230
         H           -3.706032117162     0.156445982662     1.120893785574     1.007825032230

  Basis Set: AUG-CC-PVTZ
    Blend: AUG-CC-PVTZ
  Basis Set: (AUG-CC-PVTZ AUX)
    Blend: AUG-CC-PVTZ-JKFIT
	 Reference Energy          =    -454.8187009909481162 [Eh]
	 Singles Energy            =      -0.0000000000000000 [Eh]
	 Same-Spin Energy          =      -0.4844093473153696 [Eh]
	 Opposite-Spin Energy      =      -1.5157231009257939 [Eh]
	 Correlation Energy        =      -2.0001324482411635 [Eh]
	 Total Energy              =    -456.8188334391892909 [Eh]

	 ================> DF-SCS-MP2 Energies <==================
	-----------------------------------------------------------
	 SCS Same-Spin Scale       =       0.3333333333333333 [-]
	 SCS Opposite-Spin Scale   =       1.2000000000000000 [-]
	 SCS Same-Spin Energy      =      -0.1614697824384565 [Eh]
	 SCS Opposite-Spin Energy  =      -1.8188677211109525 [Eh]
	 SCS Correlation Energy    =      -1.9803375035494091 [Eh]
	 SCS Total Energy          =    -456.7990384944975517 [Eh]
	-----------------------------------------------------------

  Dipole Moment: [D]
     X:     0.1101      Y:    -1.1643      Z:     1.3472     Total:     1.7840

*** Psi4 exiting successfully. Buy a developer a beer!
