                               Psi4 1.4a3.dev225

  ==> Input File <==

--------------------------------------------------------------------------
#psi4
#
memory 32 gb

molecule  {
0 1
  O       -1.3267430     1.3986080    -0.4043610
  N        1.4095890     0.5516460     0.0718950
  N       -2.0120760    -0.7164460     0.1311050
  C        0.3672562    -0.2611139    -0.0588945
  C        0.8200520    -1.5979270    -0.1446940
  C        2.5591820    -0.1927100     0.0828840
  C        2.2225030    -1.5310870    -0.0531270
  C       -1.0490640     0.2229840    -0.1220780
  C        1.3775260     2.0070720     0.1804590
  C       -3.4119730    -0.3353390     0.1671430
  H        0.2239390    -2.4879400    -0.3067250
  H        3.5227950     0.2883690     0.1888050
  H        2.9194420    -2.3581700    -0.0891670
  H        0.6999810     2.3106600     0.9777950
  H        2.3913760     2.3394710     0.4091260
  H        1.0337950     2.4512300    -0.7527080
  H       -1.7260750    -1.5572290     0.6147920
  H       -4.0269330    -1.2262470     0.0275940
  H       -3.5972090     0.3657440    -0.6460440
  H       -3.6872220     0.1511560     1.1097960
units angstrom
no_reorient  #important for SAPT in psi4, default
symmetry c1  #important for SAPT in psi4, default
}

set PROPERTIES_ORIGIN ["COM"]
properties('MP2/aug-cc-pvtz', properties = ['dipole'])
--------------------------------------------------------------------------

    Molecular point group: c1
  Charge       = 0
  Multiplicity = 1
  Basis Set: AUG-CC-PVTZ
    Blend: AUG-CC-PVTZ
  Basis Set: (AUG-CC-PVTZ AUX)
    Blend: AUG-CC-PVTZ-JKFIT

    Orbital Energies [Eh]
    ---------------------

    Doubly Occupied:

       1A    -20.516775     2A    -15.622999     3A    -15.584701
       4A    -11.357038     5A    -11.265697     6A    -11.263804
       7A    -11.261606     8A    -11.258312     9A    -11.228581
      10A    -11.220659    11A     -1.373429    12A     -1.320008
      13A     -1.225997    14A     -1.082013    15A     -1.012967
      16A     -0.946398    17A     -0.938880    18A     -0.820794
      19A     -0.790182    20A     -0.761495    21A     -0.726720
      22A     -0.651062    23A     -0.645543    24A     -0.636180
      25A     -0.618545    26A     -0.595026    27A     -0.585266
      28A     -0.571993    29A     -0.549018    30A     -0.545489
      31A     -0.538098    32A     -0.534011    33A     -0.516223
      34A     -0.427840    35A     -0.393848    36A     -0.348954
      37A     -0.302851

  @DF-RHF Final Energy:  -454.81803379144878

   => Energetics <=

    Nuclear Repulsion Energy =            523.0757234985667310
    One-Electron Energy =               -1655.7095126935864755
    Two-Electron Energy =                 677.8157554035709609
    Total Energy =                       -454.8180337914487836
  Basis Set: (AUG-CC-PVTZ AUX)
    Blend: AUG-CC-PVTZ-RI
    Molecular point group: c1

    Geometry (in Angstrom), charge = 0, multiplicity = 1:

       Center              X                  Y                   Z               Mass
    ------------   -----------------  -----------------  -----------------  -----------------
         O           -1.346328037008     1.397994801493    -0.393790815545    15.994914619570
         N            1.390003962992     0.551032801493     0.082465184455    14.003074004430
         N           -2.031661037008    -0.717059198507     0.141675184455    14.003074004430
         C            0.347671162992    -0.261727098507    -0.048324315545    12.000000000000
         C            0.800466962992    -1.598540198507    -0.134123815545    12.000000000000
         C            2.539596962992    -0.193323198507     0.093454184455    12.000000000000
         C            2.202917962992    -1.531700198507    -0.042556815545    12.000000000000
         C           -1.068649037008     0.222370801493    -0.111507815545    12.000000000000
         C            1.357940962992     2.006458801493     0.191029184455    12.000000000000
         C           -3.431558037008    -0.335952198507     0.177713184455    12.000000000000
         H            0.204353962992    -2.488553198507    -0.296154815545     1.007825032230
         H            3.503209962992     0.287755801493     0.199375184455     1.007825032230
         H            2.899856962992    -2.358783198507    -0.078596815545     1.007825032230
         H            0.680395962992     2.310046801493     0.988365184455     1.007825032230
         H            2.371790962992     2.338857801493     0.419696184455     1.007825032230
         H            1.014209962992     2.450616801493    -0.742137815545     1.007825032230
         H           -1.745660037008    -1.557842198507     0.625362184455     1.007825032230
         H           -4.046518037008    -1.226860198507     0.038164184455     1.007825032230
         H           -3.616794037008     0.365130801493    -0.635473815545     1.007825032230
         H           -3.706807037008     0.150542801493     1.120366184455     1.007825032230

  Basis Set: AUG-CC-PVTZ
    Blend: AUG-CC-PVTZ
  Basis Set: (AUG-CC-PVTZ AUX)
    Blend: AUG-CC-PVTZ-JKFIT
	 Reference Energy          =    -454.8180337914487836 [Eh]
	 Singles Energy            =      -0.0000000000000000 [Eh]
	 Same-Spin Energy          =      -0.4851442847545198 [Eh]
	 Opposite-Spin Energy      =      -1.5162821616134332 [Eh]
	 Correlation Energy        =      -2.0014264463679527 [Eh]
	 Total Energy              =    -456.8194602378167133 [Eh]

	 ================> DF-SCS-MP2 Energies <==================
	-----------------------------------------------------------
	 SCS Same-Spin Scale       =       0.3333333333333333 [-]
	 SCS Opposite-Spin Scale   =       1.2000000000000000 [-]
	 SCS Same-Spin Energy      =      -0.1617147615848399 [Eh]
	 SCS Opposite-Spin Energy  =      -1.8195385939361197 [Eh]
	 SCS Correlation Energy    =      -1.9812533555209597 [Eh]
	 SCS Total Energy          =    -456.7992871469697320 [Eh]
	-----------------------------------------------------------

  Dipole Moment: [D]
     X:     0.2123      Y:    -1.1019      Z:     1.3667     Total:     1.7684

*** Psi4 exiting successfully. Buy a developer a beer!
