                               Psi4 1.3.2 release

  ==> Input File <==

--------------------------------------------------------------------------
#psi4
#
memory 32 gb

molecule  {
0 1
  O       -1.3267430     1.3986080    -0.4043610
  N        1.4095890     0.5516460     0.0718950
  N       -2.0120760    -0.7164460     0.1311050
  C        0.3280180    -0.2917100    -0.0638180
  C        0.8200520    -1.5979270    -0.1446940
  C        2.5591820    -0.1927100     0.0828840
  C        2.2225030    -1.5310870    -0.0531270
  C       -0.8618687     0.1530184    -0.1141584
  C        1.3775260     2.0070720     0.1804590
  C       -3.4119730    -0.3353390     0.1671430
  H        0.2239390    -2.4879400    -0.3067250
  H        3.5227950     0.2883690     0.1888050
  H        2.9194420    -2.3581700    -0.0891670
  H        0.6999810     2.3106600     0.9777950
  H        2.3913760     2.3394710     0.4091260
  H        1.0337950     2.4512300    -0.7527080
  H       -1.7260750    -1.5572290     0.6147920
  H       -4.0269330    -1.2262470     0.0275940
  H       -3.5972090     0.3657440    -0.6460440
  H       -3.6872220     0.1511560     1.1097960
units angstrom
no_reorient  #important for SAPT in psi4, default
symmetry c1  #important for SAPT in psi4, default
}

set PROPERTIES_ORIGIN ["COM"]
properties('MP2/aug-cc-pvtz', properties = ['dipole'])
--------------------------------------------------------------------------

    Molecular point group: c1
  Charge       = 0
  Multiplicity = 1
  Basis Set: AUG-CC-PVTZ
    Blend: AUG-CC-PVTZ
  Basis Set: (AUG-CC-PVTZ AUX)
    Blend: AUG-CC-PVTZ-JKFIT

    Orbital Energies [Eh]
    ---------------------

    Doubly Occupied:

       1A    -20.491255     2A    -15.638113     3A    -15.566599
       4A    -11.344842     5A    -11.294231     6A    -11.268600
       7A    -11.260105     8A    -11.256256     9A    -11.245085
      10A    -11.239341    11A     -1.338419    12A     -1.283698
      13A     -1.175815    14A     -1.101020    15A     -1.063388
      16A     -0.950288    17A     -0.928929    18A     -0.864750
      19A     -0.806195    20A     -0.742607    21A     -0.718972
      22A     -0.656129    23A     -0.650848    24A     -0.614561
      25A     -0.608198    26A     -0.594993    27A     -0.591459
      28A     -0.574076    29A     -0.558353    30A     -0.547551
      31A     -0.543157    32A     -0.505646    33A     -0.483943
      34A     -0.404087    35A     -0.364754    36A     -0.362418
      37A     -0.323256

  @DF-RHF Final Energy:  -454.74542813154540

   => Energetics <=

    Nuclear Repulsion Energy =            523.4705447472409787
    One-Electron Energy =               -1656.5080767678305165
    Two-Electron Energy =                 678.2921038890440286
    Total Energy =                       -454.7454281315453954
  Basis Set: (AUG-CC-PVTZ AUX)
    Blend: AUG-CC-PVTZ-RI
    Molecular point group: c1

    Geometry (in Angstrom), charge = 0, multiplicity = 1:

       Center              X                  Y                   Z               Mass
    ------------   -----------------  -----------------  -----------------  -----------------
         O           -1.359186481637     1.406734274295    -0.394051196330    15.994914619570
         N            1.377145518363     0.559772274295     0.082204803670    14.003074004430
         N           -2.044519481637    -0.708319725705     0.141414803670    14.003074004430
         C            0.295574518363    -0.283583725705    -0.053508196330    12.000000000000
         C            0.787608518363    -1.589800725705    -0.134384196330    12.000000000000
         C            2.526738518363    -0.184583725705     0.093193803670    12.000000000000
         C            2.190059518363    -1.522960725705    -0.042817196330    12.000000000000
         C           -0.894312181637     0.161144674295    -0.103848596330    12.000000000000
         C            1.345082518363     2.015198274295     0.190768803670    12.000000000000
         C           -3.444416481637    -0.327212725705     0.177452803670    12.000000000000
         H            0.191495518363    -2.479813725705    -0.296415196330     1.007825032230
         H            3.490351518363     0.296495274295     0.199114803670     1.007825032230
         H            2.886998518363    -2.350043725705    -0.078857196330     1.007825032230
         H            0.667537518363     2.318786274295     0.988104803670     1.007825032230
         H            2.358932518363     2.347597274295     0.419435803670     1.007825032230
         H            1.001351518363     2.459356274295    -0.742398196330     1.007825032230
         H           -1.758518481637    -1.549102725705     0.625101803670     1.007825032230
         H           -4.059376481637    -1.218120725705     0.037903803670     1.007825032230
         H           -3.629652481637     0.373870274295    -0.635734196330     1.007825032230
         H           -3.719665481637     0.159282274295     1.120105803670     1.007825032230

  Basis Set: AUG-CC-PVTZ
    Blend: AUG-CC-PVTZ
  Basis Set: (AUG-CC-PVTZ AUX)
    Blend: AUG-CC-PVTZ-JKFIT
	 Reference Energy          =    -454.7454281315453954 [Eh]
	 Singles Energy            =      -0.0000000000000000 [Eh]
	 Same-Spin Energy          =      -0.4909364143790905 [Eh]
	 Opposite-Spin Energy      =      -1.5274764155218918 [Eh]
	 Correlation Energy        =      -2.0184128299009823 [Eh]
	 Total Energy              =    -456.7638409614463626 [Eh]

	 ================> DF-SCS-MP2 Energies <==================
	-----------------------------------------------------------
	 SCS Same-Spin Scale       =       0.3333333333333333 [-]
	 SCS Opposite-Spin Scale   =       1.2000000000000000 [-]
	 SCS Same-Spin Energy      =      -0.1636454714596968 [Eh]
	 SCS Opposite-Spin Energy  =      -1.8329716986262701 [Eh]
	 SCS Correlation Energy    =      -1.9966171700859670 [Eh]
	 SCS Total Energy          =    -456.7420453016313786 [Eh]
	-----------------------------------------------------------

  Dipole Moment: [D]
     X:     2.0354      Y:    -1.5554      Z:     1.3778     Total:     2.9087

*** Psi4 exiting successfully. Buy a developer a beer!
