                               Psi4 1.4a3.dev225

  ==> Input File <==

--------------------------------------------------------------------------
#psi4
#
memory 32 gb

molecule  {
0 1
  O       -1.3267430     1.3986080    -0.4043610
  N        1.4095890     0.5516460     0.0718950
  N       -2.0120760    -0.7164460     0.1311050
  C        0.3280180    -0.2917100    -0.0638180
  C        0.8200520    -1.5979270    -0.1446940
  C        2.5591820    -0.1927100     0.0828840
  C        2.2225030    -1.5310870    -0.0531270
  C       -1.0022652     0.2054926    -0.1200981
  C        1.3775260     2.0070720     0.1804590
  C       -3.4119730    -0.3353390     0.1671430
  H        0.2239390    -2.4879400    -0.3067250
  H        3.5227950     0.2883690     0.1888050
  H        2.9194420    -2.3581700    -0.0891670
  H        0.6999810     2.3106600     0.9777950
  H        2.3913760     2.3394710     0.4091260
  H        1.0337950     2.4512300    -0.7527080
  H       -1.7260750    -1.5572290     0.6147920
  H       -4.0269330    -1.2262470     0.0275940
  H       -3.5972090     0.3657440    -0.6460440
  H       -3.6872220     0.1511560     1.1097960
units angstrom
no_reorient  #important for SAPT in psi4, default
symmetry c1  #important for SAPT in psi4, default
}

set PROPERTIES_ORIGIN ["COM"]
properties('MP2/aug-cc-pvtz', properties = ['dipole'])
--------------------------------------------------------------------------

    Molecular point group: c1
  Charge       = 0
  Multiplicity = 1
  Basis Set: AUG-CC-PVTZ
    Blend: AUG-CC-PVTZ
  Basis Set: (AUG-CC-PVTZ AUX)
    Blend: AUG-CC-PVTZ-JKFIT

    Orbital Energies [Eh]
    ---------------------

    Doubly Occupied:

       1A    -20.511049     2A    -15.624850     3A    -15.579611
       4A    -11.353967     5A    -11.272716     6A    -11.264568
       7A    -11.262738     8A    -11.254654     9A    -11.238722
      10A    -11.224594    11A     -1.355574    12A     -1.308825
      13A     -1.213608    14A     -1.086444    15A     -1.026197
      16A     -0.940875    17A     -0.938721    18A     -0.834836
      19A     -0.790949    20A     -0.754238    21A     -0.727643
      22A     -0.651634    23A     -0.642546    24A     -0.627834
      25A     -0.613356    26A     -0.595573    27A     -0.582876
      28A     -0.574220    29A     -0.553186    30A     -0.544587
      31A     -0.537859    32A     -0.531143    33A     -0.507406
      34A     -0.426630    35A     -0.386359    36A     -0.351293
      37A     -0.310976

  @DF-RHF Final Energy:  -454.81294245926370

   => Energetics <=

    Nuclear Repulsion Energy =            522.8677903327640024
    One-Electron Energy =               -1655.3557493940797940
    Two-Electron Energy =                 677.6750166020522101
    Total Energy =                       -454.8129424592636951
  Basis Set: (AUG-CC-PVTZ AUX)
    Blend: AUG-CC-PVTZ-RI
    Molecular point group: c1

    Geometry (in Angstrom), charge = 0, multiplicity = 1:

       Center              X                  Y                   Z               Mass
    ------------   -----------------  -----------------  -----------------  -----------------
         O           -1.346985102850     1.402173921360    -0.393534997354    15.994914619570
         N            1.389346897150     0.555211921360     0.082721002646    14.003074004430
         N           -2.032318102850    -0.712880078640     0.141931002646    14.003074004430
         C            0.307775897150    -0.288144078640    -0.052991997354    12.000000000000
         C            0.799809897150    -1.594361078640    -0.133867997354    12.000000000000
         C            2.538939897150    -0.189144078640     0.093710002646    12.000000000000
         C            2.202260897150    -1.527521078640    -0.042300997354    12.000000000000
         C           -1.022507302850     0.209058521360    -0.109272097354    12.000000000000
         C            1.357283897150     2.010637921360     0.191285002646    12.000000000000
         C           -3.432215102850    -0.331773078640     0.177969002646    12.000000000000
         H            0.203696897150    -2.484374078640    -0.295898997354     1.007825032230
         H            3.502552897150     0.291934921360     0.199631002646     1.007825032230
         H            2.899199897150    -2.354604078640    -0.078340997354     1.007825032230
         H            0.679738897150     2.314225921360     0.988621002646     1.007825032230
         H            2.371133897150     2.343036921360     0.419952002646     1.007825032230
         H            1.013552897150     2.454795921360    -0.741881997354     1.007825032230
         H           -1.746317102850    -1.553663078640     0.625618002646     1.007825032230
         H           -4.047175102850    -1.222681078640     0.038420002646     1.007825032230
         H           -3.617451102850     0.369309921360    -0.635217997354     1.007825032230
         H           -3.707464102850     0.154721921360     1.120622002646     1.007825032230

  Basis Set: AUG-CC-PVTZ
    Blend: AUG-CC-PVTZ
  Basis Set: (AUG-CC-PVTZ AUX)
    Blend: AUG-CC-PVTZ-JKFIT
	 Reference Energy          =    -454.8129424592636951 [Eh]
	 Singles Energy            =      -0.0000000000000000 [Eh]
	 Same-Spin Energy          =      -0.4864452579711319 [Eh]
	 Opposite-Spin Energy      =      -1.5190208478789640 [Eh]
	 Correlation Energy        =      -2.0054661058500960 [Eh]
	 Total Energy              =    -456.8184085651137707 [Eh]

	 ================> DF-SCS-MP2 Energies <==================
	-----------------------------------------------------------
	 SCS Same-Spin Scale       =       0.3333333333333333 [-]
	 SCS Opposite-Spin Scale   =       1.2000000000000000 [-]
	 SCS Same-Spin Energy      =      -0.1621484193237106 [Eh]
	 SCS Opposite-Spin Energy  =      -1.8228250174547567 [Eh]
	 SCS Correlation Energy    =      -1.9849734367784673 [Eh]
	 SCS Total Energy          =    -456.7979158960421842 [Eh]
	-----------------------------------------------------------

  Dipole Moment: [D]
     X:     0.7052      Y:    -1.2848      Z:     1.3641     Total:     2.0022

*** Psi4 exiting successfully. Buy a developer a beer!
