                               Psi4 1.3.2 release

  ==> Input File <==

--------------------------------------------------------------------------
#psi4
#
memory 32 gb

molecule  {
0 1
  O       -1.3267430     1.3986080    -0.4043610
  N        1.3147856     0.6603239     0.0754097
  N       -2.0120760    -0.7164460     0.1311050
  C        0.3280180    -0.2917100    -0.0638180
  C        0.8200520    -1.5979270    -0.1446940
  C        2.5591820    -0.1927100     0.0828840
  C        2.2225030    -1.5310870    -0.0531270
  C       -1.0490640     0.2229840    -0.1220780
  C        1.3775260     2.0070720     0.1804590
  C       -3.4119730    -0.3353390     0.1671430
  H        0.2239390    -2.4879400    -0.3067250
  H        3.5227950     0.2883690     0.1888050
  H        2.9194420    -2.3581700    -0.0891670
  H        0.6999810     2.3106600     0.9777950
  H        2.3913760     2.3394710     0.4091260
  H        1.0337950     2.4512300    -0.7527080
  H       -1.7260750    -1.5572290     0.6147920
  H       -4.0269330    -1.2262470     0.0275940
  H       -3.5972090     0.3657440    -0.6460440
  H       -3.6872220     0.1511560     1.1097960
units angstrom
no_reorient  #important for SAPT in psi4, default
symmetry c1  #important for SAPT in psi4, default
}

set PROPERTIES_ORIGIN ["COM"]
properties('MP2/aug-cc-pvtz', properties = ['dipole'])
--------------------------------------------------------------------------

    Molecular point group: c1
  Charge       = 0
  Multiplicity = 1
  Basis Set: AUG-CC-PVTZ
    Blend: AUG-CC-PVTZ
  Basis Set: (AUG-CC-PVTZ AUX)
    Blend: AUG-CC-PVTZ-JKFIT

    Orbital Energies [Eh]
    ---------------------

    Doubly Occupied:

       1A    -20.518933     2A    -15.616579     3A    -15.584034
       4A    -11.354193     5A    -11.276242     6A    -11.274628
       7A    -11.257692     8A    -11.251078     9A    -11.234906
      10A    -11.233088    11A     -1.374720    12A     -1.293301
      13A     -1.227001    14A     -1.103128    15A     -1.012360
      16A     -0.944566    17A     -0.928755    18A     -0.825651
      19A     -0.783307    20A     -0.764690    21A     -0.725482
      22A     -0.647874    23A     -0.641913    24A     -0.638281
      25A     -0.619422    26A     -0.610459    27A     -0.596254
      28A     -0.565951    29A     -0.552750    30A     -0.546006
      31A     -0.535416    32A     -0.513921    33A     -0.500568
      34A     -0.429468    35A     -0.394100    36A     -0.349379
      37A     -0.304039

  @DF-RHF Final Energy:  -454.78817631880719

   => Energetics <=

    Nuclear Repulsion Energy =            522.5620211489010671
    One-Electron Energy =               -1654.6401271754946265
    Two-Electron Energy =                 677.2899297077864276
    Total Energy =                       -454.7881763188071318
  Basis Set: (AUG-CC-PVTZ AUX)
    Blend: AUG-CC-PVTZ-RI
    Molecular point group: c1

    Geometry (in Angstrom), charge = 0, multiplicity = 1:

       Center              X                  Y                   Z               Mass
    ------------   -----------------  -----------------  -----------------  -----------------
         O           -1.333303657124     1.389632423004    -0.393719368232    15.994914619570
         N            1.308224942876     0.651348323004     0.086051331768    14.003074004430
         N           -2.018636657124    -0.725421576996     0.141746631768    14.003074004430
         C            0.321457342876    -0.300685576996    -0.053176368232    12.000000000000
         C            0.813491342876    -1.606902576996    -0.134052368232    12.000000000000
         C            2.552621342876    -0.201685576996     0.093525631768    12.000000000000
         C            2.215942342876    -1.540062576996    -0.042485368232    12.000000000000
         C           -1.055624657124     0.214008423004    -0.111436368232    12.000000000000
         C            1.370965342876     1.998096423004     0.191100631768    12.000000000000
         C           -3.418533657124    -0.344314576996     0.177784631768    12.000000000000
         H            0.217378342876    -2.496915576996    -0.296083368232     1.007825032230
         H            3.516234342876     0.279393423004     0.199446631768     1.007825032230
         H            2.912881342876    -2.367145576996    -0.078525368232     1.007825032230
         H            0.693420342876     2.301684423004     0.988436631768     1.007825032230
         H            2.384815342876     2.330495423004     0.419767631768     1.007825032230
         H            1.027234342876     2.442254423004    -0.742066368232     1.007825032230
         H           -1.732635657124    -1.566204576996     0.625433631768     1.007825032230
         H           -4.033493657124    -1.235222576996     0.038235631768     1.007825032230
         H           -3.603769657124     0.356768423004    -0.635402368232     1.007825032230
         H           -3.693782657124     0.142180423004     1.120437631768     1.007825032230

  Basis Set: AUG-CC-PVTZ
    Blend: AUG-CC-PVTZ
  Basis Set: (AUG-CC-PVTZ AUX)
    Blend: AUG-CC-PVTZ-JKFIT
	 Reference Energy          =    -454.7881763188071886 [Eh]
	 Singles Energy            =      -0.0000000000000000 [Eh]
	 Same-Spin Energy          =      -0.4868514969933278 [Eh]
	 Opposite-Spin Energy      =      -1.5213172122655456 [Eh]
	 Correlation Energy        =      -2.0081687092588734 [Eh]
	 Total Energy              =    -456.7963450280660709 [Eh]

	 ================> DF-SCS-MP2 Energies <==================
	-----------------------------------------------------------
	 SCS Same-Spin Scale       =       0.3333333333333333 [-]
	 SCS Opposite-Spin Scale   =       1.2000000000000000 [-]
	 SCS Same-Spin Energy      =      -0.1622838323311093 [Eh]
	 SCS Opposite-Spin Energy  =      -1.8255806547186546 [Eh]
	 SCS Correlation Energy    =      -1.9878644870497639 [Eh]
	 SCS Total Energy          =    -456.7760408058569510 [Eh]
	-----------------------------------------------------------

  Dipole Moment: [D]
     X:     0.3134      Y:    -1.5643      Z:     1.3255     Total:     2.0742

*** Psi4 exiting successfully. Buy a developer a beer!
