                               Psi4 1.3.2 release

  ==> Input File <==

--------------------------------------------------------------------------
#psi4
#
memory 32 gb

molecule  {
0 1
  O       -1.3267430     1.3986080    -0.4043610
  N        1.3946088     0.5704632     0.0722143
  N       -2.0120760    -0.7164460     0.1311050
  C        0.3280180    -0.2917100    -0.0638180
  C        0.8200520    -1.5979270    -0.1446940
  C        2.5591820    -0.1927100     0.0828840
  C        2.2225030    -1.5310870    -0.0531270
  C       -1.0490640     0.2229840    -0.1220780
  C        1.3775260     2.0070720     0.1804590
  C       -3.4119730    -0.3353390     0.1671430
  H        0.2239390    -2.4879400    -0.3067250
  H        3.5227950     0.2883690     0.1888050
  H        2.9194420    -2.3581700    -0.0891670
  H        0.6999810     2.3106600     0.9777950
  H        2.3913760     2.3394710     0.4091260
  H        1.0337950     2.4512300    -0.7527080
  H       -1.7260750    -1.5572290     0.6147920
  H       -4.0269330    -1.2262470     0.0275940
  H       -3.5972090     0.3657440    -0.6460440
  H       -3.6872220     0.1511560     1.1097960
units angstrom
no_reorient  #important for SAPT in psi4, default
symmetry c1  #important for SAPT in psi4, default
}

set PROPERTIES_ORIGIN ["COM"]
properties('MP2/aug-cc-pvtz', properties = ['dipole'])
--------------------------------------------------------------------------

    Molecular point group: c1
  Charge       = 0
  Multiplicity = 1
  Basis Set: AUG-CC-PVTZ
    Blend: AUG-CC-PVTZ
  Basis Set: (AUG-CC-PVTZ AUX)
    Blend: AUG-CC-PVTZ-JKFIT

    Orbital Energies [Eh]
    ---------------------

    Doubly Occupied:

       1A    -20.516690     2A    -15.620227     3A    -15.583163
       4A    -11.354815     5A    -11.268475     6A    -11.265057
       7A    -11.261109     8A    -11.257297     9A    -11.233130
      10A    -11.222761    11A     -1.372729    12A     -1.303260
      13A     -1.225913    14A     -1.085879    15A     -1.014850
      16A     -0.941526    17A     -0.937051    18A     -0.825560
      19A     -0.786104    20A     -0.762459    21A     -0.725239
      22A     -0.649347    23A     -0.642096    24A     -0.635405
      25A     -0.617201    26A     -0.594403    27A     -0.584622
      28A     -0.572015    29A     -0.551436    30A     -0.547141
      31A     -0.536785    32A     -0.531190    33A     -0.511428
      34A     -0.429791    35A     -0.393502    36A     -0.347844
      37A     -0.306696

  @DF-RHF Final Energy:  -454.81832059277042

   => Energetics <=

    Nuclear Repulsion Energy =            522.6909128946525698
    One-Electron Energy =               -1654.9900703767016239
    Two-Electron Energy =                 677.4808368892785211
    Total Energy =                       -454.8183205927704194
  Basis Set: (AUG-CC-PVTZ AUX)
    Blend: AUG-CC-PVTZ-RI
    Molecular point group: c1

    Geometry (in Angstrom), charge = 0, multiplicity = 1:

       Center              X                  Y                   Z               Mass
    ------------   -----------------  -----------------  -----------------  -----------------
         O           -1.341398788487     1.398745490019    -0.393395312284    15.994914619570
         N            1.379953011513     0.570600690019     0.083179987716    14.003074004430
         N           -2.026731788487    -0.716308509981     0.142070687716    14.003074004430
         C            0.313362211513    -0.291572509981    -0.052852312284    12.000000000000
         C            0.805396211513    -1.597789509981    -0.133728312284    12.000000000000
         C            2.544526211513    -0.192572509981     0.093849687716    12.000000000000
         C            2.207847211513    -1.530949509981    -0.042161312284    12.000000000000
         C           -1.063719788487     0.223121490019    -0.111112312284    12.000000000000
         C            1.362870211513     2.007209490019     0.191424687716    12.000000000000
         C           -3.426628788487    -0.335201509981     0.178108687716    12.000000000000
         H            0.209283211513    -2.487802509981    -0.295759312284     1.007825032230
         H            3.508139211513     0.288506490019     0.199770687716     1.007825032230
         H            2.904786211513    -2.358032509981    -0.078201312284     1.007825032230
         H            0.685325211513     2.310797490019     0.988760687716     1.007825032230
         H            2.376720211513     2.339608490019     0.420091687716     1.007825032230
         H            1.019139211513     2.451367490019    -0.741742312284     1.007825032230
         H           -1.740730788487    -1.557091509981     0.625757687716     1.007825032230
         H           -4.041588788487    -1.226109509981     0.038559687716     1.007825032230
         H           -3.611864788487     0.365881490019    -0.635078312284     1.007825032230
         H           -3.701877788487     0.151293490019     1.120761687716     1.007825032230

  Basis Set: AUG-CC-PVTZ
    Blend: AUG-CC-PVTZ
  Basis Set: (AUG-CC-PVTZ AUX)
    Blend: AUG-CC-PVTZ-JKFIT
	 Reference Energy          =    -454.8183205927704194 [Eh]
	 Singles Energy            =      -0.0000000000000000 [Eh]
	 Same-Spin Energy          =      -0.4854152660577523 [Eh]
	 Opposite-Spin Energy      =      -1.5173811340155867 [Eh]
	 Correlation Energy        =      -2.0027964000733389 [Eh]
	 Total Energy              =    -456.8211169928437698 [Eh]

	 ================> DF-SCS-MP2 Energies <==================
	-----------------------------------------------------------
	 SCS Same-Spin Scale       =       0.3333333333333333 [-]
	 SCS Opposite-Spin Scale   =       1.2000000000000000 [-]
	 SCS Same-Spin Energy      =      -0.1618050886859174 [Eh]
	 SCS Opposite-Spin Energy  =      -1.8208573608187040 [Eh]
	 SCS Correlation Energy    =      -1.9826624495046214 [Eh]
	 SCS Total Energy          =    -456.8009830422750497 [Eh]
	-----------------------------------------------------------

  Dipole Moment: [D]
     X:     0.2844      Y:    -1.2521      Z:     1.3520     Total:     1.8645

*** Psi4 exiting successfully. Buy a developer a beer!
