                               Psi4 1.3.2 release

  ==> Input File <==

--------------------------------------------------------------------------
#psi4
#
memory 32 gb

molecule  {
0 1
  O       -1.3267430     1.3986080    -0.4043610
  N        1.4095890     0.5516460     0.0718950
  N       -2.0120760    -0.7164460     0.1311050
  C        0.3280180    -0.2917100    -0.0638180
  C        0.8200520    -1.5979270    -0.1446940
  C        2.5591820    -0.1927100     0.0828840
  C        2.2225030    -1.5310870    -0.0531270
  C       -1.0490640     0.2229840    -0.1220780
  C        1.3819187     1.8076742     0.1655854
  C       -3.4119730    -0.3353390     0.1671430
  H        0.2239390    -2.4879400    -0.3067250
  H        3.5227950     0.2883690     0.1888050
  H        2.9194420    -2.3581700    -0.0891670
  H        0.6999810     2.3106600     0.9777950
  H        2.3913760     2.3394710     0.4091260
  H        1.0337950     2.4512300    -0.7527080
  H       -1.7260750    -1.5572290     0.6147920
  H       -4.0269330    -1.2262470     0.0275940
  H       -3.5972090     0.3657440    -0.6460440
  H       -3.6872220     0.1511560     1.1097960
units angstrom
no_reorient  #important for SAPT in psi4, default
symmetry c1  #important for SAPT in psi4, default
}

set PROPERTIES_ORIGIN ["COM"]
properties('MP2/aug-cc-pvtz', properties = ['dipole'])
--------------------------------------------------------------------------

    Molecular point group: c1
  Charge       = 0
  Multiplicity = 1
  Basis Set: AUG-CC-PVTZ
    Blend: AUG-CC-PVTZ
  Basis Set: (AUG-CC-PVTZ AUX)
    Blend: AUG-CC-PVTZ-JKFIT

    Orbital Energies [Eh]
    ---------------------

    Doubly Occupied:

       1A    -20.517584     2A    -15.622304     3A    -15.584855
       4A    -11.357385     5A    -11.273720     6A    -11.269794
       7A    -11.264095     8A    -11.258361     9A    -11.240652
      10A    -11.227836    11A     -1.377922    12A     -1.347223
      13A     -1.227651    14A     -1.116948    15A     -1.024271
      16A     -0.945597    17A     -0.930329    18A     -0.829063
      19A     -0.800826    20A     -0.767792    21A     -0.740304
      22A     -0.659897    23A     -0.655385    24A     -0.640384
      25A     -0.621339    26A     -0.614890    27A     -0.592686
      28A     -0.573667    29A     -0.557614    30A     -0.546721
      31A     -0.529741    32A     -0.494875    33A     -0.488717
      34A     -0.427015    35A     -0.394042    36A     -0.342174
      37A     -0.313680

  @DF-RHF Final Energy:  -454.77025559214297

   => Energetics <=

    Nuclear Repulsion Energy =            527.0093837481725814
    One-Electron Energy =               -1663.2045979913602878
    Two-Electron Energy =                 681.4249586510447898
    Total Energy =                       -454.7702555921430303
  Basis Set: (AUG-CC-PVTZ AUX)
    Blend: AUG-CC-PVTZ-RI
    Molecular point group: c1

    Geometry (in Angstrom), charge = 0, multiplicity = 1:

       Center              X                  Y                   Z               Mass
    ------------   -----------------  -----------------  -----------------  -----------------
         O           -1.343299733991     1.417982783335    -0.392070317413    15.994914619570
         N            1.393032266009     0.571020783335     0.084185682587    14.003074004430
         N           -2.028632733991    -0.697071216665     0.143395682587    14.003074004430
         C            0.311461266009    -0.272335216665    -0.051527317413    12.000000000000
         C            0.803495266009    -1.578552216665    -0.132403317413    12.000000000000
         C            2.542625266009    -0.173335216665     0.095174682587    12.000000000000
         C            2.205946266009    -1.511712216665    -0.040836317413    12.000000000000
         C           -1.065620733991     0.242358783335    -0.109787317413    12.000000000000
         C            1.365361966009     1.827048983335     0.177876082587    12.000000000000
         C           -3.428529733991    -0.315964216665     0.179433682587    12.000000000000
         H            0.207382266009    -2.468565216665    -0.294434317413     1.007825032230
         H            3.506238266009     0.307743783335     0.201095682587     1.007825032230
         H            2.902885266009    -2.338795216665    -0.076876317413     1.007825032230
         H            0.683424266009     2.330034783335     0.990085682587     1.007825032230
         H            2.374819266009     2.358845783335     0.421416682587     1.007825032230
         H            1.017238266009     2.470604783335    -0.740417317413     1.007825032230
         H           -1.742631733991    -1.537854216665     0.627082682587     1.007825032230
         H           -4.043489733991    -1.206872216665     0.039884682587     1.007825032230
         H           -3.613765733991     0.385118783335    -0.633753317413     1.007825032230
         H           -3.703778733991     0.170530783335     1.122086682587     1.007825032230

  Basis Set: AUG-CC-PVTZ
    Blend: AUG-CC-PVTZ
  Basis Set: (AUG-CC-PVTZ AUX)
    Blend: AUG-CC-PVTZ-JKFIT
	 Reference Energy          =    -454.7702555921429735 [Eh]
	 Singles Energy            =      -0.0000000000000000 [Eh]
	 Same-Spin Energy          =      -0.4879229304911758 [Eh]
	 Opposite-Spin Energy      =      -1.5197585465573664 [Eh]
	 Correlation Energy        =      -2.0076814770485423 [Eh]
	 Total Energy              =    -456.7779370691915233 [Eh]

	 ================> DF-SCS-MP2 Energies <==================
	-----------------------------------------------------------
	 SCS Same-Spin Scale       =       0.3333333333333333 [-]
	 SCS Opposite-Spin Scale   =       1.2000000000000000 [-]
	 SCS Same-Spin Energy      =      -0.1626409768303919 [Eh]
	 SCS Opposite-Spin Energy  =      -1.8237102558688396 [Eh]
	 SCS Correlation Energy    =      -1.9863512326992314 [Eh]
	 SCS Total Energy          =    -456.7566068248422084 [Eh]
	-----------------------------------------------------------

  Dipole Moment: [D]
     X:     0.2431      Y:    -1.7875      Z:     1.3091     Total:     2.2289

*** Psi4 exiting successfully. Buy a developer a beer!
