                               Psi4 1.3.2 release

  ==> Input File <==

--------------------------------------------------------------------------
#psi4
#
memory 32 gb

molecule  {
0 1
  O       -1.3267430     1.3986080    -0.4043610
  N        1.4095890     0.5516460     0.0718950
  N       -2.0120760    -0.7164460     0.1311050
  C        0.3280180    -0.2917100    -0.0638180
  C        0.6810057    -1.6412069    -0.1592071
  C        2.5591820    -0.1927100     0.0828840
  C        2.2225030    -1.5310870    -0.0531270
  C       -1.0490640     0.2229840    -0.1220780
  C        1.3775260     2.0070720     0.1804590
  C       -3.4119730    -0.3353390     0.1671430
  H        0.2239390    -2.4879400    -0.3067250
  H        3.5227950     0.2883690     0.1888050
  H        2.9194420    -2.3581700    -0.0891670
  H        0.6999810     2.3106600     0.9777950
  H        2.3913760     2.3394710     0.4091260
  H        1.0337950     2.4512300    -0.7527080
  H       -1.7260750    -1.5572290     0.6147920
  H       -4.0269330    -1.2262470     0.0275940
  H       -3.5972090     0.3657440    -0.6460440
  H       -3.6872220     0.1511560     1.1097960
units angstrom
no_reorient  #important for SAPT in psi4, default
symmetry c1  #important for SAPT in psi4, default
}

set PROPERTIES_ORIGIN ["COM"]
properties('MP2/aug-cc-pvtz', properties = ['dipole'])
--------------------------------------------------------------------------

    Molecular point group: c1
  Charge       = 0
  Multiplicity = 1
  Basis Set: AUG-CC-PVTZ
    Blend: AUG-CC-PVTZ
  Basis Set: (AUG-CC-PVTZ AUX)
    Blend: AUG-CC-PVTZ-JKFIT

    Orbital Energies [Eh]
    ---------------------

    Doubly Occupied:

       1A    -20.517334     2A    -15.617495     3A    -15.583554
       4A    -11.353758     5A    -11.274462     6A    -11.268407
       7A    -11.264280     8A    -11.257777     9A    -11.237187
      10A    -11.230998    11A     -1.373221    12A     -1.302421
      13A     -1.226752    14A     -1.069087    15A     -1.018038
      16A     -0.941923    17A     -0.934581    18A     -0.829938
      19A     -0.796038    20A     -0.760047    21A     -0.730337
      22A     -0.649093    23A     -0.641228    24A     -0.637722
      25A     -0.622123    26A     -0.612824    27A     -0.580322
      28A     -0.573451    29A     -0.550065    30A     -0.542779
      31A     -0.537953    32A     -0.515919    33A     -0.510253
      34A     -0.427174    35A     -0.393655    36A     -0.334948
      37A     -0.314668

  @DF-RHF Final Energy:  -454.79431925461404

   => Energetics <=

    Nuclear Repulsion Energy =            521.5742600198757373
    One-Electron Energy =               -1652.6735374844083708
    Two-Electron Energy =                 676.3049582099185955
    Total Energy =                       -454.7943192546140381
  Basis Set: (AUG-CC-PVTZ AUX)
    Blend: AUG-CC-PVTZ-RI
    Molecular point group: c1

    Geometry (in Angstrom), charge = 0, multiplicity = 1:

       Center              X                  Y                   Z               Mass
    ------------   -----------------  -----------------  -----------------  -----------------
         O           -1.330833941953     1.404415111538    -0.392101647232    15.994914619570
         N            1.405498058047     0.557453111538     0.084154352768    14.003074004430
         N           -2.016166941953    -0.710638888462     0.143364352768    14.003074004430
         C            0.323927058047    -0.285902888462    -0.051558647232    12.000000000000
         C            0.676914758047    -1.635399788462    -0.146947747232    12.000000000000
         C            2.555091058047    -0.186902888462     0.095143352768    12.000000000000
         C            2.218412058047    -1.525279888462    -0.040867647232    12.000000000000
         C           -1.053154941953     0.228791111538    -0.109818647232    12.000000000000
         C            1.373435058047     2.012879111538     0.192718352768    12.000000000000
         C           -3.416063941953    -0.329531888462     0.179402352768    12.000000000000
         H            0.219848058047    -2.482132888462    -0.294465647232     1.007825032230
         H            3.518704058047     0.294176111538     0.201064352768     1.007825032230
         H            2.915351058047    -2.352362888462    -0.076907647232     1.007825032230
         H            0.695890058047     2.316467111538     0.990054352768     1.007825032230
         H            2.387285058047     2.345278111538     0.421385352768     1.007825032230
         H            1.029704058047     2.457037111538    -0.740448647232     1.007825032230
         H           -1.730165941953    -1.551421888462     0.627051352768     1.007825032230
         H           -4.031023941953    -1.220439888462     0.039853352768     1.007825032230
         H           -3.601299941953     0.371551111538    -0.633784647232     1.007825032230
         H           -3.691312941953     0.156963111538     1.122055352768     1.007825032230

  Basis Set: AUG-CC-PVTZ
    Blend: AUG-CC-PVTZ
  Basis Set: (AUG-CC-PVTZ AUX)
    Blend: AUG-CC-PVTZ-JKFIT
	 Reference Energy          =    -454.7943192546140381 [Eh]
	 Singles Energy            =      -0.0000000000000000 [Eh]
	 Same-Spin Energy          =      -0.4842427614205108 [Eh]
	 Opposite-Spin Energy      =      -1.5175982226549054 [Eh]
	 Correlation Energy        =      -2.0018409840754163 [Eh]
	 Total Energy              =    -456.7961602386894810 [Eh]

	 ================> DF-SCS-MP2 Energies <==================
	-----------------------------------------------------------
	 SCS Same-Spin Scale       =       0.3333333333333333 [-]
	 SCS Opposite-Spin Scale   =       1.2000000000000000 [-]
	 SCS Same-Spin Energy      =      -0.1614142538068369 [Eh]
	 SCS Opposite-Spin Energy  =      -1.8211178671858863 [Eh]
	 SCS Correlation Energy    =      -1.9825321209927234 [Eh]
	 SCS Total Energy          =    -456.7768513756067819 [Eh]
	-----------------------------------------------------------

  Dipole Moment: [D]
     X:     0.2512      Y:    -1.0911      Z:     1.3550     Total:     1.7578

*** Psi4 exiting successfully. Buy a developer a beer!
