                               Psi4 1.3.2 release

  ==> Input File <==

--------------------------------------------------------------------------
#psi4
#
memory 32 gb

molecule  {
0 1
  O       -1.3267430     1.3986080    -0.4043610
  N        1.4095890     0.5516460     0.0718950
  N       -1.9949775    -0.7328636     0.1340965
  C        0.3280180    -0.2917100    -0.0638180
  C        0.8200520    -1.5979270    -0.1446940
  C        2.5591820    -0.1927100     0.0828840
  C        2.2225030    -1.5310870    -0.0531270
  C       -1.0490640     0.2229840    -0.1220780
  C        1.3775260     2.0070720     0.1804590
  C       -3.4119730    -0.3353390     0.1671430
  H        0.2239390    -2.4879400    -0.3067250
  H        3.5227950     0.2883690     0.1888050
  H        2.9194420    -2.3581700    -0.0891670
  H        0.6999810     2.3106600     0.9777950
  H        2.3913760     2.3394710     0.4091260
  H        1.0337950     2.4512300    -0.7527080
  H       -1.7260750    -1.5572290     0.6147920
  H       -4.0269330    -1.2262470     0.0275940
  H       -3.5972090     0.3657440    -0.6460440
  H       -3.6872220     0.1511560     1.1097960
units angstrom
no_reorient  #important for SAPT in psi4, default
symmetry c1  #important for SAPT in psi4, default
}

set PROPERTIES_ORIGIN ["COM"]
properties('MP2/aug-cc-pvtz', properties = ['dipole'])
--------------------------------------------------------------------------

    Molecular point group: c1
  Charge       = 0
  Multiplicity = 1
  Basis Set: AUG-CC-PVTZ
    Blend: AUG-CC-PVTZ
  Basis Set: (AUG-CC-PVTZ AUX)
    Blend: AUG-CC-PVTZ-JKFIT

    Orbital Energies [Eh]
    ---------------------

    Doubly Occupied:

       1A    -20.517273     2A    -15.620260     3A    -15.582252
       4A    -11.355262     5A    -11.266441     6A    -11.263134
       7A    -11.261916     8A    -11.259034     9A    -11.232080
      10A    -11.220100    11A     -1.372247    12A     -1.306250
      13A     -1.225222    14A     -1.081814    15A     -1.014871
      16A     -0.940612    17A     -0.937721    18A     -0.828131
      19A     -0.787123    20A     -0.764272    21A     -0.724462
      22A     -0.649382    23A     -0.641470    24A     -0.634192
      25A     -0.615441    26A     -0.592557    27A     -0.579130
      28A     -0.571930    29A     -0.550972    30A     -0.548859
      31A     -0.537541    32A     -0.532564    33A     -0.513905
      34A     -0.430008    35A     -0.395595    36A     -0.347328
      37A     -0.306105

  @DF-RHF Final Energy:  -454.81936384765845

   => Energetics <=

    Nuclear Repulsion Energy =            522.6937992798127652
    One-Electron Energy =               -1655.0114198616936392
    Two-Electron Energy =                 677.4982567342224229
    Total Energy =                       -454.8193638476584510
  Basis Set: (AUG-CC-PVTZ AUX)
    Blend: AUG-CC-PVTZ-RI
    Molecular point group: c1

    Geometry (in Angstrom), charge = 0, multiplicity = 1:

       Center              X                  Y                   Z               Mass
    ------------   -----------------  -----------------  -----------------  -----------------
         O           -1.344651994202     1.402318766141    -0.393666308812    15.994914619570
         N            1.391680005798     0.555356766141     0.082589691188    14.003074004430
         N           -2.012886494202    -0.729152833859     0.144791191188    14.003074004430
         C            0.310109005798    -0.287999233859    -0.053123308812    12.000000000000
         C            0.802143005798    -1.594216233859    -0.133999308812    12.000000000000
         C            2.541273005798    -0.188999233859     0.093578691188    12.000000000000
         C            2.204594005798    -1.527376233859    -0.042432308812    12.000000000000
         C           -1.066972994202     0.226694766141    -0.111383308812    12.000000000000
         C            1.359617005798     2.010782766141     0.191153691188    12.000000000000
         C           -3.429881994202    -0.331628233859     0.177837691188    12.000000000000
         H            0.206030005798    -2.484229233859    -0.296030308812     1.007825032230
         H            3.504886005798     0.292079766141     0.199499691188     1.007825032230
         H            2.901533005798    -2.354459233859    -0.078472308812     1.007825032230
         H            0.682072005798     2.314370766141     0.988489691188     1.007825032230
         H            2.373467005798     2.343181766141     0.419820691188     1.007825032230
         H            1.015886005798     2.454940766141    -0.742013308812     1.007825032230
         H           -1.743983994202    -1.553518233859     0.625486691188     1.007825032230
         H           -4.044841994202    -1.222536233859     0.038288691188     1.007825032230
         H           -3.615117994202     0.369454766141    -0.635349308812     1.007825032230
         H           -3.705130994202     0.154866766141     1.120490691188     1.007825032230

  Basis Set: AUG-CC-PVTZ
    Blend: AUG-CC-PVTZ
  Basis Set: (AUG-CC-PVTZ AUX)
    Blend: AUG-CC-PVTZ-JKFIT
	 Reference Energy          =    -454.8193638476584510 [Eh]
	 Singles Energy            =      -0.0000000000000000 [Eh]
	 Same-Spin Energy          =      -0.4851022617300125 [Eh]
	 Opposite-Spin Energy      =      -1.5167889184204963 [Eh]
	 Correlation Energy        =      -2.0018911801505088 [Eh]
	 Total Energy              =    -456.8212550278089452 [Eh]

	 ================> DF-SCS-MP2 Energies <==================
	-----------------------------------------------------------
	 SCS Same-Spin Scale       =       0.3333333333333333 [-]
	 SCS Opposite-Spin Scale   =       1.2000000000000000 [-]
	 SCS Same-Spin Energy      =      -0.1617007539100042 [Eh]
	 SCS Opposite-Spin Energy  =      -1.8201467021045956 [Eh]
	 SCS Correlation Energy    =      -1.9818474560145998 [Eh]
	 SCS Total Energy          =    -456.8012113036730284 [Eh]
	-----------------------------------------------------------

  Dipole Moment: [D]
     X:     0.2281      Y:    -1.1515      Z:     1.3620     Total:     1.7980

*** Psi4 exiting successfully. Buy a developer a beer!
