                               Psi4 1.4a3.dev225

  ==> Input File <==

--------------------------------------------------------------------------
#psi4
#
memory 32 gb

molecule  {
0 1
  O       -1.3267430     1.3986080    -0.4043610
  N        1.4095890     0.5516460     0.0718950
  N       -2.0120760    -0.7164460     0.1311050
  C        0.3280180    -0.2917100    -0.0638180
  C        0.8200520    -1.5979270    -0.1446940
  C        2.5591820    -0.1927100     0.0828840
  C        2.2225030    -1.5310870    -0.0531270
  C       -1.0490640     0.2229840    -0.1220780
  C        1.3775260     2.0070720     0.1804590
  C       -3.4119730    -0.3353390     0.1671430
  H        0.2129344    -2.5043702    -0.3097162
  H        3.5227950     0.2883690     0.1888050
  H        2.9194420    -2.3581700    -0.0891670
  H        0.6999810     2.3106600     0.9777950
  H        2.3913760     2.3394710     0.4091260
  H        1.0337950     2.4512300    -0.7527080
  H       -1.7260750    -1.5572290     0.6147920
  H       -4.0269330    -1.2262470     0.0275940
  H       -3.5972090     0.3657440    -0.6460440
  H       -3.6872220     0.1511560     1.1097960
units angstrom
no_reorient  #important for SAPT in psi4, default
symmetry c1  #important for SAPT in psi4, default
}

set PROPERTIES_ORIGIN ["COM"]
properties('MP2/aug-cc-pvtz', properties = ['dipole'])
--------------------------------------------------------------------------

    Molecular point group: c1
  Charge       = 0
  Multiplicity = 1
  Basis Set: AUG-CC-PVTZ
    Blend: AUG-CC-PVTZ
  Basis Set: (AUG-CC-PVTZ AUX)
    Blend: AUG-CC-PVTZ-JKFIT

    Orbital Energies [Eh]
    ---------------------

    Doubly Occupied:

       1A    -20.516194     2A    -15.621019     3A    -15.582885
       4A    -11.354930     5A    -11.267164     6A    -11.263416
       7A    -11.263116     8A    -11.257158     9A    -11.235029
      10A    -11.220773    11A     -1.372367    12A     -1.306931
      13A     -1.225622    14A     -1.082218    15A     -1.016099
      16A     -0.941490    17A     -0.937635    18A     -0.825099
      19A     -0.785998    20A     -0.762011    21A     -0.723579
      22A     -0.650861    23A     -0.642192    24A     -0.634850
      25A     -0.616889    26A     -0.593077    27A     -0.578812
      28A     -0.574055    29A     -0.550121    30A     -0.547167
      31A     -0.537429    32A     -0.531722    33A     -0.513710
      34A     -0.429715    35A     -0.393314    36A     -0.347928
      37A     -0.306799

  @DF-RHF Final Energy:  -454.81922489049276

   => Energetics <=

    Nuclear Repulsion Energy =            522.6602088397154375
    One-Electron Energy =               -1654.9401238505056426
    Two-Electron Energy =                 677.4606901202976132
    Total Energy =                       -454.8192248904927055
  Basis Set: (AUG-CC-PVTZ AUX)
    Blend: AUG-CC-PVTZ-RI
    Molecular point group: c1

    Geometry (in Angstrom), charge = 0, multiplicity = 1:

       Center              X                  Y                   Z               Mass
    ------------   -----------------  -----------------  -----------------  -----------------
         O           -1.342837658174     1.400773725856    -0.393341098604    15.994914619570
         N            1.393494341826     0.553811725856     0.082914901396    14.003074004430
         N           -2.028170658174    -0.714280274144     0.142124901396    14.003074004430
         C            0.311923341826    -0.289544274144    -0.052798098604    12.000000000000
         C            0.803957341826    -1.595761274144    -0.133674098604    12.000000000000
         C            2.543087341826    -0.190544274144     0.093903901396    12.000000000000
         C            2.206408341826    -1.528921274144    -0.042107098604    12.000000000000
         C           -1.065158658174     0.225149725856    -0.111058098604    12.000000000000
         C            1.361431341826     2.009237725856     0.191478901396    12.000000000000
         C           -3.428067658174    -0.333173274144     0.178162901396    12.000000000000
         H            0.196839741826    -2.502204474144    -0.298696298604     1.007825032230
         H            3.506700341826     0.290534725856     0.199824901396     1.007825032230
         H            2.903347341826    -2.356004274144    -0.078147098604     1.007825032230
         H            0.683886341826     2.312825725856     0.988814901396     1.007825032230
         H            2.375281341826     2.341636725856     0.420145901396     1.007825032230
         H            1.017700341826     2.453395725856    -0.741688098604     1.007825032230
         H           -1.742169658174    -1.555063274144     0.625811901396     1.007825032230
         H           -4.043027658174    -1.224081274144     0.038613901396     1.007825032230
         H           -3.613303658174     0.367909725856    -0.635024098604     1.007825032230
         H           -3.703316658174     0.153321725856     1.120815901396     1.007825032230

  Basis Set: AUG-CC-PVTZ
    Blend: AUG-CC-PVTZ
  Basis Set: (AUG-CC-PVTZ AUX)
    Blend: AUG-CC-PVTZ-JKFIT
	 Reference Energy          =    -454.8192248904927624 [Eh]
	 Singles Energy            =      -0.0000000000000000 [Eh]
	 Same-Spin Energy          =      -0.4852937004809165 [Eh]
	 Opposite-Spin Energy      =      -1.5170199181889832 [Eh]
	 Correlation Energy        =      -2.0023136186698998 [Eh]
	 Total Energy              =    -456.8215385091626786 [Eh]

	 ================> DF-SCS-MP2 Energies <==================
	-----------------------------------------------------------
	 SCS Same-Spin Scale       =       0.3333333333333333 [-]
	 SCS Opposite-Spin Scale   =       1.2000000000000000 [-]
	 SCS Same-Spin Energy      =      -0.1617645668269722 [Eh]
	 SCS Opposite-Spin Energy  =      -1.8204239018267798 [Eh]
	 SCS Correlation Energy    =      -1.9821884686537519 [Eh]
	 SCS Total Energy          =    -456.8014133591465225 [Eh]
	-----------------------------------------------------------

  Dipole Moment: [D]
     X:     0.2886      Y:    -1.1802      Z:     1.3577     Total:     1.8220

*** Psi4 exiting successfully. Buy a developer a beer!
