                               Psi4 1.3.2 release

  ==> Input File <==

--------------------------------------------------------------------------
#psi4
#
memory 32 gb

molecule  {
0 1
  O       -1.3267430     1.3986080    -0.4043610
  N        1.3945848     0.5704341     0.0725853
  N       -2.0120760    -0.7164460     0.1311050
  C        0.3280180    -0.2917100    -0.0638180
  C        0.8200520    -1.5979270    -0.1446940
  C        2.5591820    -0.1927100     0.0828840
  C        2.2225030    -1.5310870    -0.0531270
  C       -1.0490640     0.2229840    -0.1220780
  C        1.3775260     2.0070720     0.1804590
  C       -3.4119730    -0.3353390     0.1671430
  H        0.2239390    -2.4879400    -0.3067250
  H        3.5227950     0.2883690     0.1888050
  H        2.9194420    -2.3581700    -0.0891670
  H        0.6999810     2.3106600     0.9777950
  H        2.3913760     2.3394710     0.4091260
  H        1.0337950     2.4512300    -0.7527080
  H       -1.7260750    -1.5572290     0.6147920
  H       -4.0269330    -1.2262470     0.0275940
  H       -3.5972090     0.3657440    -0.6460440
  H       -3.6872220     0.1511560     1.1097960
units angstrom
no_reorient  #important for SAPT in psi4, default
symmetry c1  #important for SAPT in psi4, default
}

set PROPERTIES_ORIGIN ["COM"]
properties('MP2/aug-cc-pvtz', properties = ['dipole'])
--------------------------------------------------------------------------

    Molecular point group: c1
  Charge       = 0
  Multiplicity = 1
  Basis Set: AUG-CC-PVTZ
    Blend: AUG-CC-PVTZ
  Basis Set: (AUG-CC-PVTZ AUX)
    Blend: AUG-CC-PVTZ-JKFIT

    Orbital Energies [Eh]
    ---------------------

    Doubly Occupied:

       1A    -20.516692     2A    -15.620226     3A    -15.583165
       4A    -11.354817     5A    -11.268474     6A    -11.265058
       7A    -11.261109     8A    -11.257298     9A    -11.233129
      10A    -11.222761    11A     -1.372731    12A     -1.303260
      13A     -1.225914    14A     -1.085879    15A     -1.014851
      16A     -0.941526    17A     -0.937051    18A     -0.825560
      19A     -0.786104    20A     -0.762460    21A     -0.725238
      22A     -0.649345    23A     -0.642102    24A     -0.635399
      25A     -0.617203    26A     -0.594403    27A     -0.584622
      28A     -0.572015    29A     -0.551437    30A     -0.547141
      31A     -0.536782    32A     -0.531189    33A     -0.511430
      34A     -0.429792    35A     -0.393503    36A     -0.347845
      37A     -0.306696

  @DF-RHF Final Energy:  -454.81832005898951

   => Energetics <=

    Nuclear Repulsion Energy =            522.6908419047945245
    One-Electron Energy =               -1654.9899112198165767
    Two-Electron Energy =                 677.4807492560324818
    Total Energy =                       -454.8183200589895705
  Basis Set: (AUG-CC-PVTZ AUX)
    Blend: AUG-CC-PVTZ-RI
    Molecular point group: c1

    Geometry (in Angstrom), charge = 0, multiplicity = 1:

       Center              X                  Y                   Z               Mass
    ------------   -----------------  -----------------  -----------------  -----------------
         O           -1.341396354568     1.398748441145    -0.393432936606    15.994914619570
         N            1.379931445432     0.570574541145     0.083513363394    14.003074004430
         N           -2.026729354568    -0.716305558855     0.142033063394    14.003074004430
         C            0.313364645432    -0.291569558855    -0.052889936606    12.000000000000
         C            0.805398645432    -1.597786558855    -0.133765936606    12.000000000000
         C            2.544528645432    -0.192569558855     0.093812063394    12.000000000000
         C            2.207849645432    -1.530946558855    -0.042198936606    12.000000000000
         C           -1.063717354568     0.223124441145    -0.111149936606    12.000000000000
         C            1.362872645432     2.007212441145     0.191387063394    12.000000000000
         C           -3.426626354568    -0.335198558855     0.178071063394    12.000000000000
         H            0.209285645432    -2.487799558855    -0.295796936606     1.007825032230
         H            3.508141645432     0.288509441145     0.199733063394     1.007825032230
         H            2.904788645432    -2.358029558855    -0.078238936606     1.007825032230
         H            0.685327645432     2.310800441145     0.988723063394     1.007825032230
         H            2.376722645432     2.339611441145     0.420054063394     1.007825032230
         H            1.019141645432     2.451370441145    -0.741779936606     1.007825032230
         H           -1.740728354568    -1.557088558855     0.625720063394     1.007825032230
         H           -4.041586354568    -1.226106558855     0.038522063394     1.007825032230
         H           -3.611862354568     0.365884441145    -0.635115936606     1.007825032230
         H           -3.701875354568     0.151296441145     1.120724063394     1.007825032230

  Basis Set: AUG-CC-PVTZ
    Blend: AUG-CC-PVTZ
  Basis Set: (AUG-CC-PVTZ AUX)
    Blend: AUG-CC-PVTZ-JKFIT
	 Reference Energy          =    -454.8183200589895137 [Eh]
	 Singles Energy            =      -0.0000000000000000 [Eh]
	 Same-Spin Energy          =      -0.4854151131336032 [Eh]
	 Opposite-Spin Energy      =      -1.5173810037347364 [Eh]
	 Correlation Energy        =      -2.0027961168683395 [Eh]
	 Total Energy              =    -456.8211161758578669 [Eh]

	 ================> DF-SCS-MP2 Energies <==================
	-----------------------------------------------------------
	 SCS Same-Spin Scale       =       0.3333333333333333 [-]
	 SCS Opposite-Spin Scale   =       1.2000000000000000 [-]
	 SCS Same-Spin Energy      =      -0.1618050377112011 [Eh]
	 SCS Opposite-Spin Energy  =      -1.8208572044816835 [Eh]
	 SCS Correlation Energy    =      -1.9826622421928846 [Eh]
	 SCS Total Energy          =    -456.8009823011823869 [Eh]
	-----------------------------------------------------------

  Dipole Moment: [D]
     X:     0.2843      Y:    -1.2521      Z:     1.3518     Total:     1.8644

*** Psi4 exiting successfully. Buy a developer a beer!
