                               Psi4 1.3.2 release

  ==> Input File <==

--------------------------------------------------------------------------
#psi4
#
memory 32 gb

molecule  {
0 1
  O       -1.3267430     1.3986080    -0.4043610
  N        1.3846031     0.5516904     0.0669102
  N       -2.0120760    -0.7164460     0.1311050
  C        0.3280180    -0.2917100    -0.0638180
  C        0.8200520    -1.5979270    -0.1446940
  C        2.5591820    -0.1927100     0.0828840
  C        2.2225030    -1.5310870    -0.0531270
  C       -1.0490640     0.2229840    -0.1220780
  C        1.3775260     2.0070720     0.1804590
  C       -3.4119730    -0.3353390     0.1671430
  H        0.2239390    -2.4879400    -0.3067250
  H        3.5227950     0.2883690     0.1888050
  H        2.9194420    -2.3581700    -0.0891670
  H        0.6999810     2.3106600     0.9777950
  H        2.3913760     2.3394710     0.4091260
  H        1.0337950     2.4512300    -0.7527080
  H       -1.7260750    -1.5572290     0.6147920
  H       -4.0269330    -1.2262470     0.0275940
  H       -3.5972090     0.3657440    -0.6460440
  H       -3.6872220     0.1511560     1.1097960
units angstrom
no_reorient  #important for SAPT in psi4, default
symmetry c1  #important for SAPT in psi4, default
}

set PROPERTIES_ORIGIN ["COM"]
properties('MP2/aug-cc-pvtz', properties = ['dipole'])
--------------------------------------------------------------------------

    Molecular point group: c1
  Charge       = 0
  Multiplicity = 1
  Basis Set: AUG-CC-PVTZ
    Blend: AUG-CC-PVTZ
  Basis Set: (AUG-CC-PVTZ AUX)
    Blend: AUG-CC-PVTZ-JKFIT

    Orbital Energies [Eh]
    ---------------------

    Doubly Occupied:

       1A    -20.517197     2A    -15.620524     3A    -15.583463
       4A    -11.355258     5A    -11.266364     6A    -11.263584
       7A    -11.263283     8A    -11.257479     9A    -11.230594
      10A    -11.222104    11A     -1.373410    12A     -1.306297
      13A     -1.226170    14A     -1.081989    15A     -1.016352
      16A     -0.943412    17A     -0.936026    18A     -0.825816
      19A     -0.786784    20A     -0.762254    21A     -0.724700
      22A     -0.650533    23A     -0.642477    24A     -0.635464
      25A     -0.617040    26A     -0.593600    27A     -0.581449
      28A     -0.572131    29A     -0.550866    30A     -0.547546
      31A     -0.537854    32A     -0.532380    33A     -0.513094
      34A     -0.430313    35A     -0.393744    36A     -0.347576
      37A     -0.306309

  @DF-RHF Final Energy:  -454.81869431938406

   => Energetics <=

    Nuclear Repulsion Energy =            522.9807994763946226
    One-Electron Energy =               -1655.5681214767130314
    Two-Electron Energy =                 677.7686276809342871
    Total Energy =                       -454.8186943193841216
  Basis Set: (AUG-CC-PVTZ AUX)
    Blend: AUG-CC-PVTZ-RI
    Molecular point group: c1

    Geometry (in Angstrom), charge = 0, multiplicity = 1:

       Center              X                  Y                   Z               Mass
    ------------   -----------------  -----------------  -----------------  -----------------
         O           -1.340384077778     1.400649300966    -0.392857406183    15.994914619570
         N            1.370962022222     0.553731700966     0.078413793817    14.003074004430
         N           -2.025717077778    -0.714404699034     0.142608593817    14.003074004430
         C            0.314376922222    -0.289668699034    -0.052314406183    12.000000000000
         C            0.806410922222    -1.595885699034    -0.133190406183    12.000000000000
         C            2.545540922222    -0.190668699034     0.094387593817    12.000000000000
         C            2.208861922222    -1.529045699034    -0.041623406183    12.000000000000
         C           -1.062705077778     0.225025300966    -0.110574406183    12.000000000000
         C            1.363884922222     2.009113300966     0.191962593817    12.000000000000
         C           -3.425614077778    -0.333297699034     0.178646593817    12.000000000000
         H            0.210297922222    -2.485898699034    -0.295221406183     1.007825032230
         H            3.509153922222     0.290410300966     0.200308593817     1.007825032230
         H            2.905800922222    -2.356128699034    -0.077663406183     1.007825032230
         H            0.686339922222     2.312701300966     0.989298593817     1.007825032230
         H            2.377734922222     2.341512300966     0.420629593817     1.007825032230
         H            1.020153922222     2.453271300966    -0.741204406183     1.007825032230
         H           -1.739716077778    -1.555187699034     0.626295593817     1.007825032230
         H           -4.040574077778    -1.224205699034     0.039097593817     1.007825032230
         H           -3.610850077778     0.367785300966    -0.634540406183     1.007825032230
         H           -3.700863077778     0.153197300966     1.121299593817     1.007825032230

  Basis Set: AUG-CC-PVTZ
    Blend: AUG-CC-PVTZ
  Basis Set: (AUG-CC-PVTZ AUX)
    Blend: AUG-CC-PVTZ-JKFIT
	 Reference Energy          =    -454.8186943193840648 [Eh]
	 Singles Energy            =      -0.0000000000000000 [Eh]
	 Same-Spin Energy          =      -0.4853979196030809 [Eh]
	 Opposite-Spin Energy      =      -1.5172340365407866 [Eh]
	 Correlation Energy        =      -2.0026319561438677 [Eh]
	 Total Energy              =    -456.8213262755279516 [Eh]

	 ================> DF-SCS-MP2 Energies <==================
	-----------------------------------------------------------
	 SCS Same-Spin Scale       =       0.3333333333333333 [-]
	 SCS Opposite-Spin Scale   =       1.2000000000000000 [-]
	 SCS Same-Spin Energy      =      -0.1617993065343603 [Eh]
	 SCS Opposite-Spin Energy  =      -1.8206808438489439 [Eh]
	 SCS Correlation Energy    =      -1.9824801503833043 [Eh]
	 SCS Total Energy          =    -456.8011744697673748 [Eh]
	-----------------------------------------------------------

  Dipole Moment: [D]
     X:     0.2796      Y:    -1.1854      Z:     1.3594     Total:     1.8251

*** Psi4 exiting successfully. Buy a developer a beer!
