                               Psi4 1.3.2 release

  ==> Input File <==

--------------------------------------------------------------------------
#psi4
#
memory 32 gb

molecule  {
0 1
  O       -1.3267430     1.3986080    -0.4043610
  N        1.4095890     0.5516460     0.0718950
  N       -2.0120760    -0.7164460     0.1311050
  C        0.3280180    -0.2917100    -0.0638180
  C        0.8200520    -1.5979270    -0.1446940
  C        2.5591820    -0.1927100     0.0828840
  C        2.2225030    -1.5310870    -0.0531270
  C       -1.0490640     0.2229840    -0.1220780
  C        1.3797224     1.9073731     0.1730222
  C       -3.4119730    -0.3353390     0.1671430
  H        0.2239390    -2.4879400    -0.3067250
  H        3.5227950     0.2883690     0.1888050
  H        2.9194420    -2.3581700    -0.0891670
  H        0.6999810     2.3106600     0.9777950
  H        2.3913760     2.3394710     0.4091260
  H        1.0337950     2.4512300    -0.7527080
  H       -1.7260750    -1.5572290     0.6147920
  H       -4.0269330    -1.2262470     0.0275940
  H       -3.5972090     0.3657440    -0.6460440
  H       -3.6872220     0.1511560     1.1097960
units angstrom
no_reorient  #important for SAPT in psi4, default
symmetry c1  #important for SAPT in psi4, default
}

set PROPERTIES_ORIGIN ["COM"]
properties('MP2/aug-cc-pvtz', properties = ['dipole'])
--------------------------------------------------------------------------

    Molecular point group: c1
  Charge       = 0
  Multiplicity = 1
  Basis Set: AUG-CC-PVTZ
    Blend: AUG-CC-PVTZ
  Basis Set: (AUG-CC-PVTZ AUX)
    Blend: AUG-CC-PVTZ-JKFIT

    Orbital Energies [Eh]
    ---------------------

    Doubly Occupied:

       1A    -20.516876     2A    -15.622477     3A    -15.583893
       4A    -11.356142     5A    -11.270268     6A    -11.266275
       7A    -11.262122     8A    -11.257772     9A    -11.236400
      10A    -11.223924    11A     -1.374059    12A     -1.324439
      13A     -1.226646    14A     -1.098195    15A     -1.019819
      16A     -0.943407    17A     -0.932714    18A     -0.827244
      19A     -0.793210    20A     -0.764781    21A     -0.733838
      22A     -0.654863    23A     -0.646329    24A     -0.637109
      25A     -0.618295    26A     -0.599874    27A     -0.590809
      28A     -0.573430    29A     -0.553937    30A     -0.546526
      31A     -0.530935    32A     -0.517120    33A     -0.503902
      34A     -0.429030    35A     -0.393713    36A     -0.347034
      37A     -0.309967

  @DF-RHF Final Energy:  -454.80901709632246

   => Energetics <=

    Nuclear Repulsion Energy =            524.7913231404922954
    One-Electron Energy =               -1659.0259349652051242
    Two-Electron Energy =                 679.4255947283903652
    Total Energy =                       -454.8090170963224637
  Basis Set: (AUG-CC-PVTZ AUX)
    Blend: AUG-CC-PVTZ-RI
    Molecular point group: c1

    Geometry (in Angstrom), charge = 0, multiplicity = 1:

       Center              X                  Y                   Z               Mass
    ------------   -----------------  -----------------  -----------------  -----------------
         O           -1.343108861083     1.409318293525    -0.392716624221    15.994914619570
         N            1.393223138917     0.562356293525     0.083539375779    14.003074004430
         N           -2.028441861083    -0.705735706475     0.142749375779    14.003074004430
         C            0.311652138917    -0.280999706475    -0.052173624221    12.000000000000
         C            0.803686138917    -1.587216706475    -0.133049624221    12.000000000000
         C            2.542816138917    -0.181999706475     0.094528375779    12.000000000000
         C            2.206137138917    -1.520376706475    -0.041482624221    12.000000000000
         C           -1.065429861083     0.233694293525    -0.110433624221    12.000000000000
         C            1.363356538917     1.918083393525     0.184666575779    12.000000000000
         C           -3.428338861083    -0.324628706475     0.178787375779    12.000000000000
         H            0.207573138917    -2.477229706475    -0.295080624221     1.007825032230
         H            3.506429138917     0.299079293525     0.200449375779     1.007825032230
         H            2.903076138917    -2.347459706475    -0.077522624221     1.007825032230
         H            0.683615138917     2.321370293525     0.989439375779     1.007825032230
         H            2.375010138917     2.350181293525     0.420770375779     1.007825032230
         H            1.017429138917     2.461940293525    -0.741063624221     1.007825032230
         H           -1.742440861083    -1.546518706475     0.626436375779     1.007825032230
         H           -4.043298861083    -1.215536706475     0.039238375779     1.007825032230
         H           -3.613574861083     0.376454293525    -0.634399624221     1.007825032230
         H           -3.703587861083     0.161866293525     1.121440375779     1.007825032230

  Basis Set: AUG-CC-PVTZ
    Blend: AUG-CC-PVTZ
  Basis Set: (AUG-CC-PVTZ AUX)
    Blend: AUG-CC-PVTZ-JKFIT
	 Reference Energy          =    -454.8090170963224637 [Eh]
	 Singles Energy            =      -0.0000000000000000 [Eh]
	 Same-Spin Energy          =      -0.4861757187981425 [Eh]
	 Opposite-Spin Energy      =      -1.5176040098938979 [Eh]
	 Correlation Energy        =      -2.0037797286920402 [Eh]
	 Total Energy              =    -456.8127968250145159 [Eh]

	 ================> DF-SCS-MP2 Energies <==================
	-----------------------------------------------------------
	 SCS Same-Spin Scale       =       0.3333333333333333 [-]
	 SCS Opposite-Spin Scale   =       1.2000000000000000 [-]
	 SCS Same-Spin Energy      =      -0.1620585729327141 [Eh]
	 SCS Opposite-Spin Energy  =      -1.8211248118726773 [Eh]
	 SCS Correlation Energy    =      -1.9831833848053915 [Eh]
	 SCS Total Energy          =    -456.7922004811278498 [Eh]
	-----------------------------------------------------------

  Dipole Moment: [D]
     X:     0.2622      Y:    -1.4677      Z:     1.3342     Total:     2.0008

*** Psi4 exiting successfully. Buy a developer a beer!
