                               Psi4 1.3.2 release

  ==> Input File <==

--------------------------------------------------------------------------
#psi4
#
memory 32 gb

molecule  {
0 1
  O       -1.3267430     1.3986080    -0.4043610
  N        1.4095890     0.5516460     0.0718950
  N       -2.0120760    -0.7164460     0.1311050
  C        0.3280180    -0.2917100    -0.0638180
  C        0.8200520    -1.5979270    -0.1446940
  C        2.5591820    -0.1927100     0.0828840
  C        2.2225030    -1.5310870    -0.0531270
  C       -0.9554663     0.1880012    -0.1181182
  C        1.3775260     2.0070720     0.1804590
  C       -3.4119730    -0.3353390     0.1671430
  H        0.2239390    -2.4879400    -0.3067250
  H        3.5227950     0.2883690     0.1888050
  H        2.9194420    -2.3581700    -0.0891670
  H        0.6999810     2.3106600     0.9777950
  H        2.3913760     2.3394710     0.4091260
  H        1.0337950     2.4512300    -0.7527080
  H       -1.7260750    -1.5572290     0.6147920
  H       -4.0269330    -1.2262470     0.0275940
  H       -3.5972090     0.3657440    -0.6460440
  H       -3.6872220     0.1511560     1.1097960
units angstrom
no_reorient  #important for SAPT in psi4, default
symmetry c1  #important for SAPT in psi4, default
}

set PROPERTIES_ORIGIN ["COM"]
properties('MP2/aug-cc-pvtz', properties = ['dipole'])
--------------------------------------------------------------------------

    Molecular point group: c1
  Charge       = 0
  Multiplicity = 1
  Basis Set: AUG-CC-PVTZ
    Blend: AUG-CC-PVTZ
  Basis Set: (AUG-CC-PVTZ AUX)
    Blend: AUG-CC-PVTZ-JKFIT

    Orbital Energies [Eh]
    ---------------------

    Doubly Occupied:

       1A    -20.505338     2A    -15.628987     3A    -15.575875
       4A    -11.352311     5A    -11.279065     6A    -11.265839
       7A    -11.261485     8A    -11.251849     9A    -11.245188
      10A    -11.228995    11A     -1.342384    12A     -1.307458
      13A     -1.201305    14A     -1.090846    15A     -1.037621
      16A     -0.943733    17A     -0.935595    18A     -0.845166
      19A     -0.795533    20A     -0.745800    21A     -0.729720
      22A     -0.652733    23A     -0.644633    24A     -0.621346
      25A     -0.610105    26A     -0.596237    27A     -0.586297
      28A     -0.574228    29A     -0.555987    30A     -0.544361
      31A     -0.539642    32A     -0.525683    33A     -0.499756
      34A     -0.421061    35A     -0.379110    36A     -0.354997
      37A     -0.315216

  @DF-RHF Final Energy:  -454.79864522075979

   => Energetics <=

    Nuclear Repulsion Energy =            523.0164741030440609
    One-Electron Energy =               -1655.6472687734653846
    Two-Electron Energy =                 677.8321494496616424
    Total Energy =                       -454.7986452207597949
  Basis Set: (AUG-CC-PVTZ AUX)
    Blend: AUG-CC-PVTZ-RI
    Molecular point group: c1

    Geometry (in Angstrom), charge = 0, multiplicity = 1:

       Center              X                  Y                   Z               Mass
    ------------   -----------------  -----------------  -----------------  -----------------
         O           -1.351052234906     1.403694039005    -0.393707063679    15.994914619570
         N            1.385279765094     0.556732039005     0.082548936321    14.003074004430
         N           -2.036385234906    -0.711359960995     0.141758936321    14.003074004430
         C            0.303708765094    -0.286623960995    -0.053164063679    12.000000000000
         C            0.795742765094    -1.592840960995    -0.134040063679    12.000000000000
         C            2.534872765094    -0.187623960995     0.093537936321    12.000000000000
         C            2.198193765094    -1.526000960995    -0.042473063679    12.000000000000
         C           -0.979775534906     0.193087239005    -0.107464263679    12.000000000000
         C            1.353216765094     2.012158039005     0.191112936321    12.000000000000
         C           -3.436282234906    -0.330252960995     0.177796936321    12.000000000000
         H            0.199629765094    -2.482853960995    -0.296071063679     1.007825032230
         H            3.498485765094     0.293455039005     0.199458936321     1.007825032230
         H            2.895132765094    -2.353083960995    -0.078513063679     1.007825032230
         H            0.675671765094     2.315746039005     0.988448936321     1.007825032230
         H            2.367066765094     2.344557039005     0.419779936321     1.007825032230
         H            1.009485765094     2.456316039005    -0.742054063679     1.007825032230
         H           -1.750384234906    -1.552142960995     0.625445936321     1.007825032230
         H           -4.051242234906    -1.221160960995     0.038247936321     1.007825032230
         H           -3.621518234906     0.370830039005    -0.635390063679     1.007825032230
         H           -3.711531234906     0.156242039005     1.120449936321     1.007825032230

  Basis Set: AUG-CC-PVTZ
    Blend: AUG-CC-PVTZ
  Basis Set: (AUG-CC-PVTZ AUX)
    Blend: AUG-CC-PVTZ-JKFIT
	 Reference Energy          =    -454.7986452207597949 [Eh]
	 Singles Energy            =      -0.0000000000000000 [Eh]
	 Same-Spin Energy          =      -0.4878497737206817 [Eh]
	 Opposite-Spin Energy      =      -1.5215956673972877 [Eh]
	 Correlation Energy        =      -2.0094454411179692 [Eh]
	 Total Energy              =    -456.8080906618777703 [Eh]

	 ================> DF-SCS-MP2 Energies <==================
	-----------------------------------------------------------
	 SCS Same-Spin Scale       =       0.3333333333333333 [-]
	 SCS Opposite-Spin Scale   =       1.2000000000000000 [-]
	 SCS Same-Spin Energy      =      -0.1626165912402272 [Eh]
	 SCS Opposite-Spin Energy  =      -1.8259148008767452 [Eh]
	 SCS Correlation Energy    =      -1.9885313921169725 [Eh]
	 SCS Total Energy          =    -456.7871766128767490 [Eh]
	-----------------------------------------------------------

  Dipole Moment: [D]
     X:     1.1367      Y:    -1.3803      Z:     1.3691     Total:     2.2521

*** Psi4 exiting successfully. Buy a developer a beer!
