                               Psi4 1.4a3.dev225

  ==> Input File <==

--------------------------------------------------------------------------
#psi4
#
memory 32 gb

molecule  {
0 1
  O       -1.3267430     1.3986080    -0.4043610
  N        1.4095890     0.5516460     0.0718950
  N       -2.0120760    -0.7164460     0.1311050
  C        0.3280180    -0.2917100    -0.0638180
  C        0.8200520    -1.5979270    -0.1446940
  C        2.5591820    -0.1927100     0.0828840
  C        2.2225030    -1.5310870    -0.0531270
  C       -1.0490640     0.2229840    -0.1220780
  C        1.3775260     2.0070720     0.1804590
  C       -3.4119730    -0.3353390     0.1671430
  H        0.2349436    -2.4715098    -0.3037338
  H        3.5227950     0.2883690     0.1888050
  H        2.9194420    -2.3581700    -0.0891670
  H        0.6999810     2.3106600     0.9777950
  H        2.3913760     2.3394710     0.4091260
  H        1.0337950     2.4512300    -0.7527080
  H       -1.7260750    -1.5572290     0.6147920
  H       -4.0269330    -1.2262470     0.0275940
  H       -3.5972090     0.3657440    -0.6460440
  H       -3.6872220     0.1511560     1.1097960
units angstrom
no_reorient  #important for SAPT in psi4, default
symmetry c1  #important for SAPT in psi4, default
}

set PROPERTIES_ORIGIN ["COM"]
properties('MP2/aug-cc-pvtz', properties = ['dipole'])
--------------------------------------------------------------------------

    Molecular point group: c1
  Charge       = 0
  Multiplicity = 1
  Basis Set: AUG-CC-PVTZ
    Blend: AUG-CC-PVTZ
  Basis Set: (AUG-CC-PVTZ AUX)
    Blend: AUG-CC-PVTZ-JKFIT

    Orbital Energies [Eh]
    ---------------------

    Doubly Occupied:

       1A    -20.516196     2A    -15.620798     3A    -15.583027
       4A    -11.354920     5A    -11.266895     6A    -11.263274
       7A    -11.262791     8A    -11.257233     9A    -11.230413
      10A    -11.220387    11A     -1.372368    12A     -1.306689
      13A     -1.225728    14A     -1.082587    15A     -1.016094
      16A     -0.941563    17A     -0.938609    18A     -0.825745
      19A     -0.788028    20A     -0.762017    21A     -0.726193
      22A     -0.651238    23A     -0.642102    24A     -0.634968
      25A     -0.617070    26A     -0.594770    27A     -0.580319
      28A     -0.574077    29A     -0.550975    30A     -0.547181
      31A     -0.537523    32A     -0.533069    33A     -0.513596
      34A     -0.429685    35A     -0.393423    36A     -0.347716
      37A     -0.306588

  @DF-RHF Final Energy:  -454.82002033910715

   => Energetics <=

    Nuclear Repulsion Energy =            522.8618125617193755
    One-Electron Energy =               -1655.3319501570247212
    Two-Electron Energy =                 677.6501172561983140
    Total Energy =                       -454.8200203391071454
  Basis Set: (AUG-CC-PVTZ AUX)
    Blend: AUG-CC-PVTZ-RI
    Molecular point group: c1

    Geometry (in Angstrom), charge = 0, multiplicity = 1:

       Center              X                  Y                   Z               Mass
    ------------   -----------------  -----------------  -----------------  -----------------
         O           -1.342998300795     1.400533881574    -0.393384763453    15.994914619570
         N            1.393333699205     0.553571881574     0.082871236547    14.003074004430
         N           -2.028331300795    -0.714520118426     0.142081236547    14.003074004430
         C            0.311762699205    -0.289784118426    -0.052841763453    12.000000000000
         C            0.803796699205    -1.596001118426    -0.133717763453    12.000000000000
         C            2.542926699205    -0.190784118426     0.093860236547    12.000000000000
         C            2.206247699205    -1.529161118426    -0.042150763453    12.000000000000
         C           -1.065319300795     0.224909881574    -0.111101763453    12.000000000000
         C            1.361270699205     2.008997881574     0.191435236547    12.000000000000
         C           -3.428228300795    -0.333413118426     0.178119236547    12.000000000000
         H            0.218688299205    -2.469583918426    -0.292757563453     1.007825032230
         H            3.506539699205     0.290294881574     0.199781236547     1.007825032230
         H            2.903186699205    -2.356244118426    -0.078190763453     1.007825032230
         H            0.683725699205     2.312585881574     0.988771236547     1.007825032230
         H            2.375120699205     2.341396881574     0.420102236547     1.007825032230
         H            1.017539699205     2.453155881574    -0.741731763453     1.007825032230
         H           -1.742330300795    -1.555303118426     0.625768236547     1.007825032230
         H           -4.043188300795    -1.224321118426     0.038570236547     1.007825032230
         H           -3.613464300795     0.367669881574    -0.635067763453     1.007825032230
         H           -3.703477300795     0.153081881574     1.120772236547     1.007825032230

  Basis Set: AUG-CC-PVTZ
    Blend: AUG-CC-PVTZ
  Basis Set: (AUG-CC-PVTZ AUX)
    Blend: AUG-CC-PVTZ-JKFIT
	 Reference Energy          =    -454.8200203391071454 [Eh]
	 Singles Energy            =      -0.0000000000000000 [Eh]
	 Same-Spin Energy          =      -0.4852116375011839 [Eh]
	 Opposite-Spin Energy      =      -1.5167098540042026 [Eh]
	 Correlation Energy        =      -2.0019214915053865 [Eh]
	 Total Energy              =    -456.8219418306125590 [Eh]

	 ================> DF-SCS-MP2 Energies <==================
	-----------------------------------------------------------
	 SCS Same-Spin Scale       =       0.3333333333333333 [-]
	 SCS Opposite-Spin Scale   =       1.2000000000000000 [-]
	 SCS Same-Spin Energy      =      -0.1617372125003946 [Eh]
	 SCS Opposite-Spin Energy  =      -1.8200518248050430 [Eh]
	 SCS Correlation Energy    =      -1.9817890373054377 [Eh]
	 SCS Total Energy          =    -456.8018093764125638 [Eh]
	-----------------------------------------------------------

  Dipole Moment: [D]
     X:     0.2799      Y:    -1.1855      Z:     1.3581     Total:     1.8243

*** Psi4 exiting successfully. Buy a developer a beer!
