                               Psi4 1.4a3.dev225

  ==> Input File <==

--------------------------------------------------------------------------
#psi4
#
memory 32 gb

molecule  {
0 1
  O       -1.3267430     1.3986080    -0.4043610
  N        1.4095890     0.5516460     0.0718950
  N       -2.0120760    -0.7164460     0.1311050
  C        0.3280180    -0.2917100    -0.0638180
  C        0.8200520    -1.5979270    -0.1446940
  C        2.5591820    -0.1927100     0.0828840
  C        2.2225030    -1.5310870    -0.0531270
  C       -1.0490640     0.2229840    -0.1220780
  C        1.3775260     2.0070720     0.1804590
  C       -3.4119730    -0.3353390     0.1671430
  H        0.2514505    -2.4468645    -0.2992470
  H        3.5227950     0.2883690     0.1888050
  H        2.9194420    -2.3581700    -0.0891670
  H        0.6999810     2.3106600     0.9777950
  H        2.3913760     2.3394710     0.4091260
  H        1.0337950     2.4512300    -0.7527080
  H       -1.7260750    -1.5572290     0.6147920
  H       -4.0269330    -1.2262470     0.0275940
  H       -3.5972090     0.3657440    -0.6460440
  H       -3.6872220     0.1511560     1.1097960
units angstrom
no_reorient  #important for SAPT in psi4, default
symmetry c1  #important for SAPT in psi4, default
}

set PROPERTIES_ORIGIN ["COM"]
properties('MP2/aug-cc-pvtz', properties = ['dipole'])
--------------------------------------------------------------------------

    Molecular point group: c1
  Charge       = 0
  Multiplicity = 1
  Basis Set: AUG-CC-PVTZ
    Blend: AUG-CC-PVTZ
  Basis Set: (AUG-CC-PVTZ AUX)
    Blend: AUG-CC-PVTZ-JKFIT

    Orbital Energies [Eh]
    ---------------------

    Doubly Occupied:

       1A    -20.516205     2A    -15.620652     3A    -15.583133
       4A    -11.354921     5A    -11.266707     6A    -11.263180
       7A    -11.262579     8A    -11.257289     9A    -11.226890
      10A    -11.220116    11A     -1.372376    12A     -1.306526
      13A     -1.225809    14A     -1.082955    15A     -1.016119
      16A     -0.941716    17A     -0.939398    18A     -0.826370
      19A     -0.789793    20A     -0.762026    21A     -0.728211
      22A     -0.651568    23A     -0.642046    24A     -0.635074
      25A     -0.617238    26A     -0.596335    27A     -0.581250
      28A     -0.574073    29A     -0.551566    30A     -0.547197
      31A     -0.537635    32A     -0.533753    33A     -0.513521
      34A     -0.429671    35A     -0.393503    36A     -0.347582
      37A     -0.306448

  @DF-RHF Final Energy:  -454.81908361250993

   => Energetics <=

    Nuclear Repulsion Energy =            523.0194487198460820
    One-Electron Energy =               -1655.6342076192740933
    Two-Electron Energy =                 677.7956752869181400
    Total Energy =                       -454.8190836125099850
  Basis Set: (AUG-CC-PVTZ AUX)
    Blend: AUG-CC-PVTZ-RI
    Molecular point group: c1

    Geometry (in Angstrom), charge = 0, multiplicity = 1:

       Center              X                  Y                   Z               Mass
    ------------   -----------------  -----------------  -----------------  -----------------
         O           -1.343118782760     1.400353998363    -0.393417512091    15.994914619570
         N            1.393213217240     0.553391998363     0.082838487909    14.003074004430
         N           -2.028451782760    -0.714700001637     0.142048487909    14.003074004430
         C            0.311642217240    -0.289964001637    -0.052874512091    12.000000000000
         C            0.803676217240    -1.596181001637    -0.133750512091    12.000000000000
         C            2.542806217240    -0.190964001637     0.093827487909    12.000000000000
         C            2.206127217240    -1.529341001637    -0.042183512091    12.000000000000
         C           -1.065439782760     0.224729998363    -0.111134512091    12.000000000000
         C            1.361150217240     2.008817998363     0.191402487909    12.000000000000
         C           -3.428348782760    -0.333593001637     0.178086487909    12.000000000000
         H            0.235074717240    -2.445118501637    -0.288303512091     1.007825032230
         H            3.506419217240     0.290114998363     0.199748487909     1.007825032230
         H            2.903066217240    -2.356424001637    -0.078223512091     1.007825032230
         H            0.683605217240     2.312405998363     0.988738487909     1.007825032230
         H            2.375000217240     2.341216998363     0.420069487909     1.007825032230
         H            1.017419217240     2.452975998363    -0.741764512091     1.007825032230
         H           -1.742450782760    -1.555483001637     0.625735487909     1.007825032230
         H           -4.043308782760    -1.224501001637     0.038537487909     1.007825032230
         H           -3.613584782760     0.367489998363    -0.635100512091     1.007825032230
         H           -3.703597782760     0.152901998363     1.120739487909     1.007825032230

  Basis Set: AUG-CC-PVTZ
    Blend: AUG-CC-PVTZ
  Basis Set: (AUG-CC-PVTZ AUX)
    Blend: AUG-CC-PVTZ-JKFIT
	 Reference Energy          =    -454.8190836125099281 [Eh]
	 Singles Energy            =      -0.0000000000000000 [Eh]
	 Same-Spin Energy          =      -0.4851582582662037 [Eh]
	 Opposite-Spin Energy      =      -1.5165237271098788 [Eh]
	 Correlation Energy        =      -2.0016819853760826 [Eh]
	 Total Energy              =    -456.8207655978860089 [Eh]

	 ================> DF-SCS-MP2 Energies <==================
	-----------------------------------------------------------
	 SCS Same-Spin Scale       =       0.3333333333333333 [-]
	 SCS Opposite-Spin Scale   =       1.2000000000000000 [-]
	 SCS Same-Spin Energy      =      -0.1617194194220679 [Eh]
	 SCS Opposite-Spin Energy  =      -1.8198284725318545 [Eh]
	 SCS Correlation Energy    =      -1.9815478919539224 [Eh]
	 SCS Total Energy          =    -456.8006315044638654 [Eh]
	-----------------------------------------------------------

  Dipole Moment: [D]
     X:     0.2740      Y:    -1.1883      Z:     1.3585     Total:     1.8255

*** Psi4 exiting successfully. Buy a developer a beer!
