                               Psi4 1.3.2 release

  ==> Input File <==

--------------------------------------------------------------------------
#psi4
#
memory 32 gb

molecule  {
0 1
  O       -1.3267430     1.3986080    -0.4043610
  N        1.4095890     0.5516460     0.0718950
  N       -2.0120760    -0.7164460     0.1311050
  C        0.4064945    -0.2305179    -0.0539710
  C        0.8200520    -1.5979270    -0.1446940
  C        2.5591820    -0.1927100     0.0828840
  C        2.2225030    -1.5310870    -0.0531270
  C       -1.0490640     0.2229840    -0.1220780
  C        1.3775260     2.0070720     0.1804590
  C       -3.4119730    -0.3353390     0.1671430
  H        0.2239390    -2.4879400    -0.3067250
  H        3.5227950     0.2883690     0.1888050
  H        2.9194420    -2.3581700    -0.0891670
  H        0.6999810     2.3106600     0.9777950
  H        2.3913760     2.3394710     0.4091260
  H        1.0337950     2.4512300    -0.7527080
  H       -1.7260750    -1.5572290     0.6147920
  H       -4.0269330    -1.2262470     0.0275940
  H       -3.5972090     0.3657440    -0.6460440
  H       -3.6872220     0.1511560     1.1097960
units angstrom
no_reorient  #important for SAPT in psi4, default
symmetry c1  #important for SAPT in psi4, default
}

set PROPERTIES_ORIGIN ["COM"]
properties('MP2/aug-cc-pvtz', properties = ['dipole'])
--------------------------------------------------------------------------

    Molecular point group: c1
  Charge       = 0
  Multiplicity = 1
  Basis Set: AUG-CC-PVTZ
    Blend: AUG-CC-PVTZ
  Basis Set: (AUG-CC-PVTZ AUX)
    Blend: AUG-CC-PVTZ-JKFIT

    Orbital Energies [Eh]
    ---------------------

    Doubly Occupied:

       1A    -20.517494     2A    -15.624835     3A    -15.586517
       4A    -11.359269     5A    -11.268239     6A    -11.265001
       7A    -11.259471     8A    -11.255856     9A    -11.224451
      10A    -11.220802    11A     -1.375229    12A     -1.334870
      13A     -1.226537    14A     -1.081978    15A     -1.010647
      16A     -0.952899    17A     -0.938409    18A     -0.816533
      19A     -0.793408    20A     -0.760766    21A     -0.728946
      22A     -0.652596    23A     -0.649205    24A     -0.637287
      25A     -0.619992    26A     -0.597049    27A     -0.590676
      28A     -0.569435    29A     -0.549556    30A     -0.543016
      31A     -0.538291    32A     -0.533326    33A     -0.518749
      34A     -0.425316    35A     -0.394437    36A     -0.351409
      37A     -0.297827

  @DF-RHF Final Energy:  -454.80904328513901

   => Energetics <=

    Nuclear Repulsion Energy =            523.4354144249904266
    One-Electron Energy =               -1656.3482654684041790
    Two-Electron Energy =                 678.1038077582747974
    Total Energy =                       -454.8090432851390688
  Basis Set: (AUG-CC-PVTZ AUX)
    Blend: AUG-CC-PVTZ-RI
    Molecular point group: c1

    Geometry (in Angstrom), charge = 0, multiplicity = 1:

       Center              X                  Y                   Z               Mass
    ------------   -----------------  -----------------  -----------------  -----------------
         O           -1.349738103223     1.395335807961    -0.394218700061    15.994914619570
         N            1.386593896777     0.548373807961     0.082037299939    14.003074004430
         N           -2.035071103223    -0.719718192039     0.141247299939    14.003074004430
         C            0.383499396777    -0.233790092039    -0.043828700061    12.000000000000
         C            0.797056896777    -1.601199192039    -0.134551700061    12.000000000000
         C            2.536186896777    -0.195982192039     0.093026299939    12.000000000000
         C            2.199507896777    -1.534359192039    -0.042984700061    12.000000000000
         C           -1.072059103223     0.219711807961    -0.111935700061    12.000000000000
         C            1.354530896777     2.003799807961     0.190601299939    12.000000000000
         C           -3.434968103223    -0.338611192039     0.177285299939    12.000000000000
         H            0.200943896777    -2.491212192039    -0.296582700061     1.007825032230
         H            3.499799896777     0.285096807961     0.198947299939     1.007825032230
         H            2.896446896777    -2.361442192039    -0.079024700061     1.007825032230
         H            0.676985896777     2.307387807961     0.987937299939     1.007825032230
         H            2.368380896777     2.336198807961     0.419268299939     1.007825032230
         H            1.010799896777     2.447957807961    -0.742565700061     1.007825032230
         H           -1.749070103223    -1.560501192039     0.624934299939     1.007825032230
         H           -4.049928103223    -1.229519192039     0.037736299939     1.007825032230
         H           -3.620204103223     0.362471807961    -0.635901700061     1.007825032230
         H           -3.710217103223     0.147883807961     1.119938299939     1.007825032230

  Basis Set: AUG-CC-PVTZ
    Blend: AUG-CC-PVTZ
  Basis Set: (AUG-CC-PVTZ AUX)
    Blend: AUG-CC-PVTZ-JKFIT
	 Reference Energy          =    -454.8090432851390119 [Eh]
	 Singles Energy            =      -0.0000000000000000 [Eh]
	 Same-Spin Energy          =      -0.4850858215483151 [Eh]
	 Opposite-Spin Energy      =      -1.5158577556835093 [Eh]
	 Correlation Energy        =      -2.0009435772318245 [Eh]
	 Total Energy              =    -456.8099868623708630 [Eh]

	 ================> DF-SCS-MP2 Energies <==================
	-----------------------------------------------------------
	 SCS Same-Spin Scale       =       0.3333333333333333 [-]
	 SCS Opposite-Spin Scale   =       1.2000000000000000 [-]
	 SCS Same-Spin Energy      =      -0.1616952738494384 [Eh]
	 SCS Opposite-Spin Energy  =      -1.8190293068202110 [Eh]
	 SCS Correlation Energy    =      -1.9807245806696494 [Eh]
	 SCS Total Energy          =    -456.7897678658086420 [Eh]
	-----------------------------------------------------------

  Dipole Moment: [D]
     X:     0.1313      Y:    -1.0101      Z:     1.3756     Total:     1.7117

*** Psi4 exiting successfully. Buy a developer a beer!
