                               Psi4 1.3.2 release

  ==> Input File <==

--------------------------------------------------------------------------
#psi4
#
memory 32 gb

molecule  {
0 1
  O       -1.3267430     1.3986080    -0.4043610
  N        1.4095890     0.5516460     0.0718950
  N       -2.0120760    -0.7164460     0.1311050
  C        0.3280180    -0.2917100    -0.0638180
  C        0.8200520    -1.5979270    -0.1446940
  C        2.5591820    -0.1927100     0.0828840
  C        2.2225030    -1.5310870    -0.0531270
  C       -1.2362593     0.2929496    -0.1299976
  C        1.3775260     2.0070720     0.1804590
  C       -3.4119730    -0.3353390     0.1671430
  H        0.2239390    -2.4879400    -0.3067250
  H        3.5227950     0.2883690     0.1888050
  H        2.9194420    -2.3581700    -0.0891670
  H        0.6999810     2.3106600     0.9777950
  H        2.3913760     2.3394710     0.4091260
  H        1.0337950     2.4512300    -0.7527080
  H       -1.7260750    -1.5572290     0.6147920
  H       -4.0269330    -1.2262470     0.0275940
  H       -3.5972090     0.3657440    -0.6460440
  H       -3.6872220     0.1511560     1.1097960
units angstrom
no_reorient  #important for SAPT in psi4, default
symmetry c1  #important for SAPT in psi4, default
}

set PROPERTIES_ORIGIN ["COM"]
properties('MP2/aug-cc-pvtz', properties = ['dipole'])
--------------------------------------------------------------------------

    Molecular point group: c1
  Charge       = 0
  Multiplicity = 1
  Basis Set: AUG-CC-PVTZ
    Blend: AUG-CC-PVTZ
  Basis Set: (AUG-CC-PVTZ AUX)
    Blend: AUG-CC-PVTZ-JKFIT

    Orbital Energies [Eh]
    ---------------------

    Doubly Occupied:

       1A    -20.538118     2A    -15.604831     3A    -15.596738
       4A    -11.361954     5A    -11.267388     6A    -11.258183
       7A    -11.250442     8A    -11.247418     9A    -11.210411
      10A    -11.205736    11A     -1.446956    12A     -1.292169
      13A     -1.273016    14A     -1.067177    15A     -0.989444
      16A     -0.945904    17A     -0.927582    18A     -0.825005
      19A     -0.773450    20A     -0.760737    21A     -0.714527
      22A     -0.676405    23A     -0.657960    24A     -0.643771
      25A     -0.620786    26A     -0.587428    27A     -0.583761
      28A     -0.566566    29A     -0.565608    30A     -0.559763
      31A     -0.534680    32A     -0.522470    33A     -0.513745
      34A     -0.422492    35A     -0.408939    36A     -0.334119
      37A     -0.288138

  @DF-RHF Final Energy:  -454.78434264040851

   => Energetics <=

    Nuclear Repulsion Energy =            522.5598198653444797
    One-Electron Energy =               -1654.6006962503372506
    Two-Electron Energy =                 677.2565337445843170
    Total Energy =                       -454.7843426404084539
  Basis Set: (AUG-CC-PVTZ AUX)
    Blend: AUG-CC-PVTZ-RI
    Molecular point group: c1

    Geometry (in Angstrom), charge = 0, multiplicity = 1:

       Center              X                  Y                   Z               Mass
    ------------   -----------------  -----------------  -----------------  -----------------
         O           -1.326649477332     1.394573333136    -0.392674665727    15.994914619570
         N            1.409682522668     0.547611333136     0.083581334273    14.003074004430
         N           -2.011982477332    -0.720480666864     0.142791334273    14.003074004430
         C            0.328111522668    -0.295744666864    -0.052131665727    12.000000000000
         C            0.820145522668    -1.601961666864    -0.133007665727    12.000000000000
         C            2.559275522668    -0.196744666864     0.094570334273    12.000000000000
         C            2.222596522668    -1.535121666864    -0.041440665727    12.000000000000
         C           -1.236165777332     0.288914933136    -0.118311265727    12.000000000000
         C            1.377619522668     2.003037333136     0.192145334273    12.000000000000
         C           -3.411879477332    -0.339373666864     0.178829334273    12.000000000000
         H            0.224032522668    -2.491974666864    -0.295038665727     1.007825032230
         H            3.522888522668     0.284334333136     0.200491334273     1.007825032230
         H            2.919535522668    -2.362204666864    -0.077480665727     1.007825032230
         H            0.700074522668     2.306625333136     0.989481334273     1.007825032230
         H            2.391469522668     2.335436333136     0.420812334273     1.007825032230
         H            1.033888522668     2.447195333136    -0.741021665727     1.007825032230
         H           -1.725981477332    -1.561263666864     0.626478334273     1.007825032230
         H           -4.026839477332    -1.230281666864     0.039280334273     1.007825032230
         H           -3.597115477332     0.361709333136    -0.634357665727     1.007825032230
         H           -3.687128477332     0.147121333136     1.121482334273     1.007825032230

  Basis Set: AUG-CC-PVTZ
    Blend: AUG-CC-PVTZ
  Basis Set: (AUG-CC-PVTZ AUX)
    Blend: AUG-CC-PVTZ-JKFIT
	 Reference Energy          =    -454.7843426404085108 [Eh]
	 Singles Energy            =      -0.0000000000000000 [Eh]
	 Same-Spin Energy          =      -0.4832749555302128 [Eh]
	 Opposite-Spin Energy      =      -1.5132258900596893 [Eh]
	 Correlation Energy        =      -1.9965008455899020 [Eh]
	 Total Energy              =    -456.7808434859983890 [Eh]

	 ================> DF-SCS-MP2 Energies <==================
	-----------------------------------------------------------
	 SCS Same-Spin Scale       =       0.3333333333333333 [-]
	 SCS Opposite-Spin Scale   =       1.2000000000000000 [-]
	 SCS Same-Spin Energy      =      -0.1610916518434042 [Eh]
	 SCS Opposite-Spin Energy  =      -1.8158710680716270 [Eh]
	 SCS Correlation Energy    =      -1.9769627199150313 [Eh]
	 SCS Total Energy          =    -456.7613053603235471 [Eh]
	-----------------------------------------------------------

  Dipole Moment: [D]
     X:    -1.4261      Y:    -0.6871      Z:     1.3131     Total:     2.0567

*** Psi4 exiting successfully. Buy a developer a beer!
