                               Psi4 1.4a3.dev225

  ==> Input File <==

--------------------------------------------------------------------------
#psi4
#
memory 32 gb

molecule  {
0 1
  O       -1.3267430     1.3986080    -0.4043610
  N        1.4095890     0.5516460     0.0718950
  N       -2.0120760    -0.7164460     0.1311050
  C        0.3280180    -0.2917100    -0.0638180
  C        0.8200520    -1.5979270    -0.1446940
  C        2.5591820    -0.1927100     0.0828840
  C        2.2225030    -1.5310870    -0.0531270
  C       -1.0958628     0.2404754    -0.1240579
  C        1.3775260     2.0070720     0.1804590
  C       -3.4119730    -0.3353390     0.1671430
  H        0.2239390    -2.4879400    -0.3067250
  H        3.5227950     0.2883690     0.1888050
  H        2.9194420    -2.3581700    -0.0891670
  H        0.6999810     2.3106600     0.9777950
  H        2.3913760     2.3394710     0.4091260
  H        1.0337950     2.4512300    -0.7527080
  H       -1.7260750    -1.5572290     0.6147920
  H       -4.0269330    -1.2262470     0.0275940
  H       -3.5972090     0.3657440    -0.6460440
  H       -3.6872220     0.1511560     1.1097960
units angstrom
no_reorient  #important for SAPT in psi4, default
symmetry c1  #important for SAPT in psi4, default
}

set PROPERTIES_ORIGIN ["COM"]
properties('MP2/aug-cc-pvtz', properties = ['dipole'])
--------------------------------------------------------------------------

    Molecular point group: c1
  Charge       = 0
  Multiplicity = 1
  Basis Set: AUG-CC-PVTZ
    Blend: AUG-CC-PVTZ
  Basis Set: (AUG-CC-PVTZ AUX)
    Blend: AUG-CC-PVTZ-JKFIT

    Orbital Energies [Eh]
    ---------------------

    Doubly Occupied:

       1A    -20.521107     2A    -15.617049     3A    -15.586118
       4A    -11.355716     5A    -11.262131     6A    -11.261971
       7A    -11.261823     8A    -11.259597     9A    -11.227077
      10A    -11.216814    11A     -1.390380    12A     -1.303688
      13A     -1.237584    14A     -1.078554    15A     -1.007360
      16A     -0.943693    17A     -0.935526    18A     -0.818323
      19A     -0.783854    20A     -0.767091    21A     -0.722053
      22A     -0.651190    23A     -0.647169    24A     -0.638310
      25A     -0.620063    26A     -0.591681    27A     -0.576469
      28A     -0.574488    29A     -0.552439    30A     -0.546795
      31A     -0.539814    32A     -0.530966    33A     -0.517115
      34A     -0.429865    35A     -0.400187    36A     -0.344471
      37A     -0.302338

  @DF-RHF Final Energy:  -454.81998561601176

   => Energetics <=

    Nuclear Repulsion Energy =            522.6839344222318005
    One-Electron Energy =               -1654.9661024434340106
    Two-Electron Energy =                 677.4621824051905605
    Total Energy =                       -454.8199856160117633
  Basis Set: (AUG-CC-PVTZ AUX)
    Blend: AUG-CC-PVTZ-RI
    Molecular point group: c1

    Geometry (in Angstrom), charge = 0, multiplicity = 1:

       Center              X                  Y                   Z               Mass
    ------------   -----------------  -----------------  -----------------  -----------------
         O           -1.338850856119     1.399133686071    -0.393190864703    15.994914619570
         N            1.397481143881     0.552171686071     0.083065135297    14.003074004430
         N           -2.024183856119    -0.715920313929     0.142275135297    14.003074004430
         C            0.315910143881    -0.291184313929    -0.052647864703    12.000000000000
         C            0.807944143881    -1.597401313929    -0.133523864703    12.000000000000
         C            2.547074143881    -0.192184313929     0.094054135297    12.000000000000
         C            2.210395143881    -1.530561313929    -0.041956864703    12.000000000000
         C           -1.107970656119     0.241001086071    -0.112887764703    12.000000000000
         C            1.365418143881     2.007597686071     0.191629135297    12.000000000000
         C           -3.424080856119    -0.334813313929     0.178313135297    12.000000000000
         H            0.211831143881    -2.487414313929    -0.295554864703     1.007825032230
         H            3.510687143881     0.288894686071     0.199975135297     1.007825032230
         H            2.907334143881    -2.357644313929    -0.077996864703     1.007825032230
         H            0.687873143881     2.311185686071     0.988965135297     1.007825032230
         H            2.379268143881     2.339996686071     0.420296135297     1.007825032230
         H            1.021687143881     2.451755686071    -0.741537864703     1.007825032230
         H           -1.738182856119    -1.556703313929     0.625962135297     1.007825032230
         H           -4.039040856119    -1.225721313929     0.038764135297     1.007825032230
         H           -3.609316856119     0.366269686071    -0.634873864703     1.007825032230
         H           -3.699329856119     0.151681686071     1.120966135297     1.007825032230

  Basis Set: AUG-CC-PVTZ
    Blend: AUG-CC-PVTZ
  Basis Set: (AUG-CC-PVTZ AUX)
    Blend: AUG-CC-PVTZ-JKFIT
	 Reference Energy          =    -454.8199856160117633 [Eh]
	 Singles Energy            =      -0.0000000000000000 [Eh]
	 Same-Spin Energy          =      -0.4843203226264064 [Eh]
	 Opposite-Spin Energy      =      -1.5151756702499206 [Eh]
	 Correlation Energy        =      -1.9994959928763270 [Eh]
	 Total Energy              =    -456.8194816088881112 [Eh]

	 ================> DF-SCS-MP2 Energies <==================
	-----------------------------------------------------------
	 SCS Same-Spin Scale       =       0.3333333333333333 [-]
	 SCS Opposite-Spin Scale   =       1.2000000000000000 [-]
	 SCS Same-Spin Energy      =      -0.1614401075421354 [Eh]
	 SCS Opposite-Spin Energy  =      -1.8182108042999046 [Eh]
	 SCS Correlation Energy    =      -1.9796509118420400 [Eh]
	 SCS Total Energy          =    -456.7996365278538065 [Eh]
	-----------------------------------------------------------

  Dipole Moment: [D]
     X:    -0.1313      Y:    -1.0740      Z:     1.3500     Total:     1.7300

*** Psi4 exiting successfully. Buy a developer a beer!
