                               Psi4 1.3.2 release

  ==> Input File <==

--------------------------------------------------------------------------
#psi4
#
memory 32 gb

molecule  {
0 1
  O       -1.3267430     1.3986080    -0.4043610
  N        1.4095890     0.5516460     0.0718950
  N       -2.0120760    -0.7164460     0.1311050
  C        0.3280180    -0.2917100    -0.0638180
  C        0.7972115    -1.6061489    -0.1471788
  C        2.5591820    -0.1927100     0.0828840
  C        2.2225030    -1.5310870    -0.0531270
  C       -1.0490640     0.2229840    -0.1220780
  C        1.3775260     2.0070720     0.1804590
  C       -3.4119730    -0.3353390     0.1671430
  H        0.2239390    -2.4879400    -0.3067250
  H        3.5227950     0.2883690     0.1888050
  H        2.9194420    -2.3581700    -0.0891670
  H        0.6999810     2.3106600     0.9777950
  H        2.3913760     2.3394710     0.4091260
  H        1.0337950     2.4512300    -0.7527080
  H       -1.7260750    -1.5572290     0.6147920
  H       -4.0269330    -1.2262470     0.0275940
  H       -3.5972090     0.3657440    -0.6460440
  H       -3.6872220     0.1511560     1.1097960
units angstrom
no_reorient  #important for SAPT in psi4, default
symmetry c1  #important for SAPT in psi4, default
}

set PROPERTIES_ORIGIN ["COM"]
properties('MP2/aug-cc-pvtz', properties = ['dipole'])
--------------------------------------------------------------------------

    Molecular point group: c1
  Charge       = 0
  Multiplicity = 1
  Basis Set: AUG-CC-PVTZ
    Blend: AUG-CC-PVTZ
  Basis Set: (AUG-CC-PVTZ AUX)
    Blend: AUG-CC-PVTZ-JKFIT

    Orbital Energies [Eh]
    ---------------------

    Doubly Occupied:

       1A    -20.516417     2A    -15.620207     3A    -15.583106
       4A    -11.354739     5A    -11.267146     6A    -11.264705
       7A    -11.263458     8A    -11.257321     9A    -11.233406
      10A    -11.222513    11A     -1.372522    12A     -1.305828
      13A     -1.225879    14A     -1.079524    15A     -1.016394
      16A     -0.941572    17A     -0.937236    18A     -0.825805
      19A     -0.788604    20A     -0.761619    21A     -0.725410
      22A     -0.650416    23A     -0.641956    24A     -0.635114
      25A     -0.617246    26A     -0.596845    27A     -0.580016
      28A     -0.573807    29A     -0.549155    30A     -0.545475
      31A     -0.537308    32A     -0.534345    33A     -0.513028
      34A     -0.429439    35A     -0.393458    36A     -0.345149
      37A     -0.308113

  @DF-RHF Final Energy:  -454.81936323346366

   => Energetics <=

    Nuclear Repulsion Energy =            522.5284369822869621
    One-Electron Energy =               -1654.6670401048975236
    Two-Electron Energy =                 677.3192398891470702
    Total Energy =                       -454.8193632334636050
  Basis Set: (AUG-CC-PVTZ AUX)
    Blend: AUG-CC-PVTZ-RI
    Molecular point group: c1

    Geometry (in Angstrom), charge = 0, multiplicity = 1:

       Center              X                  Y                   Z               Mass
    ------------   -----------------  -----------------  -----------------  -----------------
         O           -1.340932989886     1.401368340874    -0.393146985574    15.994914619570
         N            1.395399010114     0.554406340874     0.083109014426    14.003074004430
         N           -2.026265989886    -0.713685659126     0.142319014426    14.003074004430
         C            0.313828010114    -0.288949659126    -0.052603985574    12.000000000000
         C            0.783021510114    -1.603388559126    -0.135964785574    12.000000000000
         C            2.544992010114    -0.189949659126     0.094098014426    12.000000000000
         C            2.208313010114    -1.528326659126    -0.041912985574    12.000000000000
         C           -1.063253989886     0.225744340874    -0.110863985574    12.000000000000
         C            1.363336010114     2.009832340874     0.191673014426    12.000000000000
         C           -3.426162989886    -0.332578659126     0.178357014426    12.000000000000
         H            0.209749010114    -2.485179659126    -0.295510985574     1.007825032230
         H            3.508605010114     0.291129340874     0.200019014426     1.007825032230
         H            2.905252010114    -2.355409659126    -0.077952985574     1.007825032230
         H            0.685791010114     2.313420340874     0.989009014426     1.007825032230
         H            2.377186010114     2.342231340874     0.420340014426     1.007825032230
         H            1.019605010114     2.453990340874    -0.741493985574     1.007825032230
         H           -1.740264989886    -1.554468659126     0.626006014426     1.007825032230
         H           -4.041122989886    -1.223486659126     0.038808014426     1.007825032230
         H           -3.611398989886     0.368504340874    -0.634829985574     1.007825032230
         H           -3.701411989886     0.153916340874     1.121010014426     1.007825032230

  Basis Set: AUG-CC-PVTZ
    Blend: AUG-CC-PVTZ
  Basis Set: (AUG-CC-PVTZ AUX)
    Blend: AUG-CC-PVTZ-JKFIT
	 Reference Energy          =    -454.8193632334636618 [Eh]
	 Singles Energy            =      -0.0000000000000000 [Eh]
	 Same-Spin Energy          =      -0.4850145136393207 [Eh]
	 Opposite-Spin Energy      =      -1.5167665358445555 [Eh]
	 Correlation Energy        =      -2.0017810494838759 [Eh]
	 Total Energy              =    -456.8211442829475573 [Eh]

	 ================> DF-SCS-MP2 Energies <==================
	-----------------------------------------------------------
	 SCS Same-Spin Scale       =       0.3333333333333333 [-]
	 SCS Opposite-Spin Scale   =       1.2000000000000000 [-]
	 SCS Same-Spin Energy      =      -0.1616715045464402 [Eh]
	 SCS Opposite-Spin Energy  =      -1.8201198430134664 [Eh]
	 SCS Correlation Energy    =      -1.9817913475599067 [Eh]
	 SCS Total Energy          =    -456.8011545810235816 [Eh]
	-----------------------------------------------------------

  Dipole Moment: [D]
     X:     0.2741      Y:    -1.1707      Z:     1.3568     Total:     1.8130

*** Psi4 exiting successfully. Buy a developer a beer!
