                               Psi4 1.4a3.dev225

  ==> Input File <==

--------------------------------------------------------------------------
#psi4
#
memory 32 gb

molecule  {
0 1
  O       -1.3267430     1.3986080    -0.4043610
  N        1.4095890     0.5516460     0.0718950
  N       -2.0120760    -0.7164460     0.1311050
  C        0.3280180    -0.2917100    -0.0638180
  C        0.8270903    -1.6166118    -0.1458509
  C        2.5591820    -0.1927100     0.0828840
  C        2.2225030    -1.5310870    -0.0531270
  C       -1.0490640     0.2229840    -0.1220780
  C        1.3775260     2.0070720     0.1804590
  C       -3.4119730    -0.3353390     0.1671430
  H        0.2239390    -2.4879400    -0.3067250
  H        3.5227950     0.2883690     0.1888050
  H        2.9194420    -2.3581700    -0.0891670
  H        0.6999810     2.3106600     0.9777950
  H        2.3913760     2.3394710     0.4091260
  H        1.0337950     2.4512300    -0.7527080
  H       -1.7260750    -1.5572290     0.6147920
  H       -4.0269330    -1.2262470     0.0275940
  H       -3.5972090     0.3657440    -0.6460440
  H       -3.6872220     0.1511560     1.1097960
units angstrom
no_reorient  #important for SAPT in psi4, default
symmetry c1  #important for SAPT in psi4, default
}

set PROPERTIES_ORIGIN ["COM"]
properties('MP2/aug-cc-pvtz', properties = ['dipole'])
--------------------------------------------------------------------------

    Molecular point group: c1
  Charge       = 0
  Multiplicity = 1
  Basis Set: AUG-CC-PVTZ
    Blend: AUG-CC-PVTZ
  Basis Set: (AUG-CC-PVTZ AUX)
    Blend: AUG-CC-PVTZ-JKFIT

    Orbital Energies [Eh]
    ---------------------

    Doubly Occupied:

       1A    -20.515772     2A    -15.622906     3A    -15.582684
       4A    -11.354594     5A    -11.266882     6A    -11.264529
       7A    -11.263937     8A    -11.257020     9A    -11.233498
      10A    -11.220949    11A     -1.372002    12A     -1.306584
      13A     -1.225364    14A     -1.082084    15A     -1.014870
      16A     -0.940946    17A     -0.939654    18A     -0.825504
      19A     -0.786883    20A     -0.761834    21A     -0.725247
      22A     -0.651302    23A     -0.641954    24A     -0.634730
      25A     -0.617010    26A     -0.593801    27A     -0.581120
      28A     -0.573429    29A     -0.552922    30A     -0.546746
      31A     -0.537420    32A     -0.531236    33A     -0.513461
      34A     -0.429215    35A     -0.393181    36A     -0.348857
      37A     -0.304324

  @DF-RHF Final Energy:  -454.81861408792548

   => Energetics <=

    Nuclear Repulsion Energy =            522.3971313162242041
    One-Electron Energy =               -1654.4025956109028357
    Two-Electron Energy =                 677.1868502067530926
    Total Energy =                       -454.8186140879255390
  Basis Set: (AUG-CC-PVTZ AUX)
    Blend: AUG-CC-PVTZ-RI
    Molecular point group: c1

    Geometry (in Angstrom), charge = 0, multiplicity = 1:

       Center              X                  Y                   Z               Mass
    ------------   -----------------  -----------------  -----------------  -----------------
         O           -1.343529654023     1.402277635665    -0.393262388813    15.994914619570
         N            1.392802345977     0.555315635665     0.082993611187    14.003074004430
         N           -2.028862654023    -0.712776364335     0.142203611187    14.003074004430
         C            0.311231345977    -0.288040364335    -0.052719388813    12.000000000000
         C            0.810303645977    -1.612942164335    -0.134752288813    12.000000000000
         C            2.542395345977    -0.189040364335     0.093982611187    12.000000000000
         C            2.205716345977    -1.527417364335    -0.042028388813    12.000000000000
         C           -1.065850654023     0.226653635665    -0.110979388813    12.000000000000
         C            1.360739345977     2.010741635665     0.191557611187    12.000000000000
         C           -3.428759654023    -0.331669364335     0.178241611187    12.000000000000
         H            0.207152345977    -2.484270364335    -0.295626388813     1.007825032230
         H            3.506008345977     0.292038635665     0.199903611187     1.007825032230
         H            2.902655345977    -2.354500364335    -0.078068388813     1.007825032230
         H            0.683194345977     2.314329635665     0.988893611187     1.007825032230
         H            2.374589345977     2.343140635665     0.420224611187     1.007825032230
         H            1.017008345977     2.454899635665    -0.741609388813     1.007825032230
         H           -1.742861654023    -1.553559364335     0.625890611187     1.007825032230
         H           -4.043719654023    -1.222577364335     0.038692611187     1.007825032230
         H           -3.613995654023     0.369413635665    -0.634945388813     1.007825032230
         H           -3.704008654023     0.154825635665     1.120894611187     1.007825032230

  Basis Set: AUG-CC-PVTZ
    Blend: AUG-CC-PVTZ
  Basis Set: (AUG-CC-PVTZ AUX)
    Blend: AUG-CC-PVTZ-JKFIT
	 Reference Energy          =    -454.8186140879254822 [Eh]
	 Singles Energy            =      -0.0000000000000000 [Eh]
	 Same-Spin Energy          =      -0.4855548115237182 [Eh]
	 Opposite-Spin Energy      =      -1.5172969118240713 [Eh]
	 Correlation Energy        =      -2.0028517233477894 [Eh]
	 Total Energy              =    -456.8214658112732991 [Eh]

	 ================> DF-SCS-MP2 Energies <==================
	-----------------------------------------------------------
	 SCS Same-Spin Scale       =       0.3333333333333333 [-]
	 SCS Opposite-Spin Scale   =       1.2000000000000000 [-]
	 SCS Same-Spin Energy      =      -0.1618516038412394 [Eh]
	 SCS Opposite-Spin Energy  =      -1.8207562941888855 [Eh]
	 SCS Correlation Energy    =      -1.9826078980301249 [Eh]
	 SCS Total Energy          =    -456.8012219859556353 [Eh]
	-----------------------------------------------------------

  Dipole Moment: [D]
     X:     0.3052      Y:    -1.1724      Z:     1.3584     Total:     1.8202

*** Psi4 exiting successfully. Buy a developer a beer!
