                               Psi4 1.3.2 release

  ==> Input File <==

--------------------------------------------------------------------------
#psi4
#
memory 32 gb

molecule  {
0 1
  O       -1.3056283     1.4028736    -0.4065362
  N        1.4095890     0.5516460     0.0718950
  N       -2.0120760    -0.7164460     0.1311050
  C        0.3280180    -0.2917100    -0.0638180
  C        0.8200520    -1.5979270    -0.1446940
  C        2.5591820    -0.1927100     0.0828840
  C        2.2225030    -1.5310870    -0.0531270
  C       -1.0490640     0.2229840    -0.1220780
  C        1.3775260     2.0070720     0.1804590
  C       -3.4119730    -0.3353390     0.1671430
  H        0.2239390    -2.4879400    -0.3067250
  H        3.5227950     0.2883690     0.1888050
  H        2.9194420    -2.3581700    -0.0891670
  H        0.6999810     2.3106600     0.9777950
  H        2.3913760     2.3394710     0.4091260
  H        1.0337950     2.4512300    -0.7527080
  H       -1.7260750    -1.5572290     0.6147920
  H       -4.0269330    -1.2262470     0.0275940
  H       -3.5972090     0.3657440    -0.6460440
  H       -3.6872220     0.1511560     1.1097960
units angstrom
no_reorient  #important for SAPT in psi4, default
symmetry c1  #important for SAPT in psi4, default
}

set PROPERTIES_ORIGIN ["COM"]
properties('MP2/aug-cc-pvtz', properties = ['dipole'])
--------------------------------------------------------------------------

    Molecular point group: c1
  Charge       = 0
  Multiplicity = 1
  Basis Set: AUG-CC-PVTZ
    Blend: AUG-CC-PVTZ
  Basis Set: (AUG-CC-PVTZ AUX)
    Blend: AUG-CC-PVTZ-JKFIT

    Orbital Energies [Eh]
    ---------------------

    Doubly Occupied:

       1A    -20.516633     2A    -15.620300     3A    -15.584115
       4A    -11.355206     5A    -11.266439     6A    -11.262650
       7A    -11.262130     8A    -11.258061     9A    -11.232018
      10A    -11.220048    11A     -1.372490    12A     -1.306076
      13A     -1.227183    14A     -1.081794    15A     -1.015563
      16A     -0.941990    17A     -0.937507    18A     -0.825324
      19A     -0.786578    20A     -0.762500    21A     -0.724409
      22A     -0.651026    23A     -0.642095    24A     -0.635202
      25A     -0.617140    26A     -0.593423    27A     -0.579034
      28A     -0.574333    29A     -0.550400    30A     -0.547855
      31A     -0.537333    32A     -0.532006    33A     -0.513619
      34A     -0.429551    35A     -0.394340    36A     -0.347281
      37A     -0.306065

  @DF-RHF Final Energy:  -454.81978057250740

   => Energetics <=

    Nuclear Repulsion Energy =            522.8779234519356578
    One-Electron Energy =               -1655.3759753116189586
    Two-Electron Energy =                 677.6782712871759031
    Total Energy =                       -454.8197805725073977
  Basis Set: (AUG-CC-PVTZ AUX)
    Blend: AUG-CC-PVTZ-RI
    Molecular point group: c1

    Geometry (in Angstrom), charge = 0, multiplicity = 1:

       Center              X                  Y                   Z               Mass
    ------------   -----------------  -----------------  -----------------  -----------------
         O           -1.324249176821     1.404425282573    -0.395286158901    15.994914619570
         N            1.390968123179     0.553197682573     0.083145041099    14.003074004430
         N           -2.030696876821    -0.714894317427     0.142355041099    14.003074004430
         C            0.309397123179    -0.290158317427    -0.052567958901    12.000000000000
         C            0.801431123179    -1.596375317427    -0.133443958901    12.000000000000
         C            2.540561123179    -0.191158317427     0.094134041099    12.000000000000
         C            2.203882123179    -1.529535317427    -0.041876958901    12.000000000000
         C           -1.067684876821     0.224535682573    -0.110827958901    12.000000000000
         C            1.358905123179     2.008623682573     0.191709041099    12.000000000000
         C           -3.430593876821    -0.333787317427     0.178393041099    12.000000000000
         H            0.205318123179    -2.486388317427    -0.295474958901     1.007825032230
         H            3.504174123179     0.289920682573     0.200055041099     1.007825032230
         H            2.900821123179    -2.356618317427    -0.077916958901     1.007825032230
         H            0.681360123179     2.312211682573     0.989045041099     1.007825032230
         H            2.372755123179     2.341022682573     0.420376041099     1.007825032230
         H            1.015174123179     2.452781682573    -0.741457958901     1.007825032230
         H           -1.744695876821    -1.555677317427     0.626042041099     1.007825032230
         H           -4.045553876821    -1.224695317427     0.038844041099     1.007825032230
         H           -3.615829876821     0.367295682573    -0.634793958901     1.007825032230
         H           -3.705842876821     0.152707682573     1.121046041099     1.007825032230

  Basis Set: AUG-CC-PVTZ
    Blend: AUG-CC-PVTZ
  Basis Set: (AUG-CC-PVTZ AUX)
    Blend: AUG-CC-PVTZ-JKFIT
	 Reference Energy          =    -454.8197805725073977 [Eh]
	 Singles Energy            =      -0.0000000000000000 [Eh]
	 Same-Spin Energy          =      -0.4852556109052213 [Eh]
	 Opposite-Spin Energy      =      -1.5168765259999797 [Eh]
	 Correlation Energy        =      -2.0021321369052010 [Eh]
	 Total Energy              =    -456.8219127094125724 [Eh]

	 ================> DF-SCS-MP2 Energies <==================
	-----------------------------------------------------------
	 SCS Same-Spin Scale       =       0.3333333333333333 [-]
	 SCS Opposite-Spin Scale   =       1.2000000000000000 [-]
	 SCS Same-Spin Energy      =      -0.1617518703017404 [Eh]
	 SCS Opposite-Spin Energy  =      -1.8202518311999756 [Eh]
	 SCS Correlation Energy    =      -1.9820037015017160 [Eh]
	 SCS Total Energy          =    -456.8017842740090941 [Eh]
	-----------------------------------------------------------

  Dipole Moment: [D]
     X:     0.2016      Y:    -1.1901      Z:     1.3618     Total:     1.8197

*** Psi4 exiting successfully. Buy a developer a beer!
