                               Psi4 1.3.2 release

  ==> Input File <==

--------------------------------------------------------------------------
#psi4
#
memory 32 gb

molecule  {
0 1
  O       -1.3477731     1.3939843    -0.4020998
  N        1.4095890     0.5516460     0.0718950
  N       -2.0120760    -0.7164460     0.1311050
  C        0.3280180    -0.2917100    -0.0638180
  C        0.8200520    -1.5979270    -0.1446940
  C        2.5591820    -0.1927100     0.0828840
  C        2.2225030    -1.5310870    -0.0531270
  C       -1.0490640     0.2229840    -0.1220780
  C        1.3775260     2.0070720     0.1804590
  C       -3.4119730    -0.3353390     0.1671430
  H        0.2239390    -2.4879400    -0.3067250
  H        3.5227950     0.2883690     0.1888050
  H        2.9194420    -2.3581700    -0.0891670
  H        0.6999810     2.3106600     0.9777950
  H        2.3913760     2.3394710     0.4091260
  H        1.0337950     2.4512300    -0.7527080
  H       -1.7260750    -1.5572290     0.6147920
  H       -4.0269330    -1.2262470     0.0275940
  H       -3.5972090     0.3657440    -0.6460440
  H       -3.6872220     0.1511560     1.1097960
units angstrom
no_reorient  #important for SAPT in psi4, default
symmetry c1  #important for SAPT in psi4, default
}

set PROPERTIES_ORIGIN ["COM"]
properties('MP2/aug-cc-pvtz', properties = ['dipole'])
--------------------------------------------------------------------------

    Molecular point group: c1
  Charge       = 0
  Multiplicity = 1
  Basis Set: AUG-CC-PVTZ
    Blend: AUG-CC-PVTZ
  Basis Set: (AUG-CC-PVTZ AUX)
    Blend: AUG-CC-PVTZ-JKFIT

    Orbital Energies [Eh]
    ---------------------

    Doubly Occupied:

       1A    -20.515739     2A    -15.621502     3A    -15.581792
       4A    -11.354650     5A    -11.267608     6A    -11.264034
       7A    -11.263765     8A    -11.256320     9A    -11.233442
      10A    -11.221098    11A     -1.372288    12A     -1.307529
      13A     -1.224143    14A     -1.082975    15A     -1.016618
      16A     -0.941043    17A     -0.938693    18A     -0.825476
      19A     -0.787358    20A     -0.761505    21A     -0.725335
      22A     -0.651076    23A     -0.642249    24A     -0.634598
      25A     -0.616799    26A     -0.594281    27A     -0.580156
      28A     -0.573806    29A     -0.550828    30A     -0.546415
      31A     -0.537621    32A     -0.532845    33A     -0.513652
      34A     -0.429783    35A     -0.392391    36A     -0.348348
      37A     -0.307306

  @DF-RHF Final Energy:  -454.81980365725815

   => Energetics <=

    Nuclear Repulsion Energy =            522.6506436564409341
    One-Electron Energy =               -1654.9107557764630201
    Two-Electron Energy =                 677.4403084627639373
    Total Energy =                       -454.8198036572581486
  Basis Set: (AUG-CC-PVTZ AUX)
    Blend: AUG-CC-PVTZ-RI
    Molecular point group: c1

    Geometry (in Angstrom), charge = 0, multiplicity = 1:

       Center              X                  Y                   Z               Mass
    ------------   -----------------  -----------------  -----------------  -----------------
         O           -1.361511982094     1.396565706661    -0.391363665276    15.994914619570
         N            1.395850117906     0.554227406661     0.082631134724    14.003074004430
         N           -2.025814882094    -0.713864593339     0.141841134724    14.003074004430
         C            0.314279117906    -0.289128593339    -0.053081865276    12.000000000000
         C            0.806313117906    -1.595345593339    -0.133957865276    12.000000000000
         C            2.545443117906    -0.190128593339     0.093620134724    12.000000000000
         C            2.208764117906    -1.528505593339    -0.042390865276    12.000000000000
         C           -1.062802882094     0.225565406661    -0.111341865276    12.000000000000
         C            1.363787117906     2.009653406661     0.191195134724    12.000000000000
         C           -3.425711882094    -0.332757593339     0.177879134724    12.000000000000
         H            0.210200117906    -2.485358593339    -0.295988865276     1.007825032230
         H            3.509056117906     0.290950406661     0.199541134724     1.007825032230
         H            2.905703117906    -2.355588593339    -0.078430865276     1.007825032230
         H            0.686242117906     2.313241406661     0.988531134724     1.007825032230
         H            2.377637117906     2.342052406661     0.419862134724     1.007825032230
         H            1.020056117906     2.453811406661    -0.741971865276     1.007825032230
         H           -1.739813882094    -1.554647593339     0.625528134724     1.007825032230
         H           -4.040671882094    -1.223665593339     0.038330134724     1.007825032230
         H           -3.610947882094     0.368325406661    -0.635307865276     1.007825032230
         H           -3.700960882094     0.153737406661     1.120532134724     1.007825032230

  Basis Set: AUG-CC-PVTZ
    Blend: AUG-CC-PVTZ
  Basis Set: (AUG-CC-PVTZ AUX)
    Blend: AUG-CC-PVTZ-JKFIT
	 Reference Energy          =    -454.8198036572581486 [Eh]
	 Singles Energy            =      -0.0000000000000000 [Eh]
	 Same-Spin Energy          =      -0.4852565972237196 [Eh]
	 Opposite-Spin Energy      =      -1.5168525803076705 [Eh]
	 Correlation Energy        =      -2.0021091775313899 [Eh]
	 Total Energy              =    -456.8219128347895435 [Eh]

	 ================> DF-SCS-MP2 Energies <==================
	-----------------------------------------------------------
	 SCS Same-Spin Scale       =       0.3333333333333333 [-]
	 SCS Opposite-Spin Scale   =       1.2000000000000000 [-]
	 SCS Same-Spin Energy      =      -0.1617521990745732 [Eh]
	 SCS Opposite-Spin Energy  =      -1.8202230963692045 [Eh]
	 SCS Correlation Energy    =      -1.9819752954437777 [Eh]
	 SCS Total Energy          =    -456.8017789527019090 [Eh]
	-----------------------------------------------------------

  Dipole Moment: [D]
     X:     0.3663      Y:    -1.1750      Z:     1.3536     Total:     1.8295

*** Psi4 exiting successfully. Buy a developer a beer!
