                               Psi4 1.3.2 release

  ==> Input File <==

--------------------------------------------------------------------------
#psi4
#
memory 32 gb

molecule  {
0 1
  O       -1.3267430     1.3986080    -0.4043610
  N        1.4095890     0.5516460     0.0718950
  N       -2.0120760    -0.7164460     0.1311050
  C        0.2714035    -0.2139662    -0.0616521
  C        0.8200520    -1.5979270    -0.1446940
  C        2.5591820    -0.1927100     0.0828840
  C        2.2225030    -1.5310870    -0.0531270
  C       -1.0490640     0.2229840    -0.1220780
  C        1.3775260     2.0070720     0.1804590
  C       -3.4119730    -0.3353390     0.1671430
  H        0.2239390    -2.4879400    -0.3067250
  H        3.5227950     0.2883690     0.1888050
  H        2.9194420    -2.3581700    -0.0891670
  H        0.6999810     2.3106600     0.9777950
  H        2.3913760     2.3394710     0.4091260
  H        1.0337950     2.4512300    -0.7527080
  H       -1.7260750    -1.5572290     0.6147920
  H       -4.0269330    -1.2262470     0.0275940
  H       -3.5972090     0.3657440    -0.6460440
  H       -3.6872220     0.1511560     1.1097960
units angstrom
no_reorient  #important for SAPT in psi4, default
symmetry c1  #important for SAPT in psi4, default
}

set PROPERTIES_ORIGIN ["COM"]
properties('MP2/aug-cc-pvtz', properties = ['dipole'])
--------------------------------------------------------------------------

    Molecular point group: c1
  Charge       = 0
  Multiplicity = 1
  Basis Set: AUG-CC-PVTZ
    Blend: AUG-CC-PVTZ
  Basis Set: (AUG-CC-PVTZ AUX)
    Blend: AUG-CC-PVTZ-JKFIT

    Orbital Energies [Eh]
    ---------------------

    Doubly Occupied:

       1A    -20.508523     2A    -15.630173     3A    -15.579324
       4A    -11.345258     5A    -11.273607     6A    -11.263605
       7A    -11.262926     8A    -11.255138     9A    -11.245261
      10A    -11.226624    11A     -1.370882    12A     -1.306337
      13A     -1.222694    14A     -1.076991    15A     -1.025822
      16A     -0.940476    17A     -0.936335    18A     -0.839852
      19A     -0.785506    20A     -0.761650    21A     -0.722730
      22A     -0.658031    23A     -0.644002    24A     -0.633551
      25A     -0.616150    26A     -0.593003    27A     -0.581790
      28A     -0.574203    29A     -0.551266    30A     -0.544729
      31A     -0.537784    32A     -0.521587    33A     -0.510162
      34A     -0.427461    35A     -0.390440    36A     -0.349271
      37A     -0.300933

  @DF-RHF Final Energy:  -454.80300452028609

   => Energetics <=

    Nuclear Repulsion Energy =            522.9327506090893394
    One-Electron Energy =               -1655.4433547586668283
    Two-Electron Energy =                 677.7075996292912805
    Total Energy =                       -454.8030045202860947
  Basis Set: (AUG-CC-PVTZ AUX)
    Blend: AUG-CC-PVTZ-RI
    Molecular point group: c1

    Geometry (in Angstrom), charge = 0, multiplicity = 1:

       Center              X                  Y                   Z               Mass
    ------------   -----------------  -----------------  -----------------  -----------------
         O           -1.337997807263     1.393897356424    -0.393551161977    15.994914619570
         N            1.398334192737     0.546935356424     0.082704838023    14.003074004430
         N           -2.023330807263    -0.721156643576     0.141914838023    14.003074004430
         C            0.260148692737    -0.218676843576    -0.050842261977    12.000000000000
         C            0.808797192737    -1.602637643576    -0.133884161977    12.000000000000
         C            2.547927192737    -0.197420643576     0.093693838023    12.000000000000
         C            2.211248192737    -1.535797643576    -0.042317161977    12.000000000000
         C           -1.060318807263     0.218273356424    -0.111268161977    12.000000000000
         C            1.366271192737     2.002361356424     0.191268838023    12.000000000000
         C           -3.423227807263    -0.340049643576     0.177952838023    12.000000000000
         H            0.212684192737    -2.492650643576    -0.295915161977     1.007825032230
         H            3.511540192737     0.283658356424     0.199614838023     1.007825032230
         H            2.908187192737    -2.362880643576    -0.078357161977     1.007825032230
         H            0.688726192737     2.305949356424     0.988604838023     1.007825032230
         H            2.380121192737     2.334760356424     0.419935838023     1.007825032230
         H            1.022540192737     2.446519356424    -0.741898161977     1.007825032230
         H           -1.737329807263    -1.561939643576     0.625601838023     1.007825032230
         H           -4.038187807263    -1.230957643576     0.038403838023     1.007825032230
         H           -3.608463807263     0.361033356424    -0.635234161977     1.007825032230
         H           -3.698476807263     0.146445356424     1.120605838023     1.007825032230

  Basis Set: AUG-CC-PVTZ
    Blend: AUG-CC-PVTZ
  Basis Set: (AUG-CC-PVTZ AUX)
    Blend: AUG-CC-PVTZ-JKFIT
	 Reference Energy          =    -454.8030045202860947 [Eh]
	 Singles Energy            =      -0.0000000000000000 [Eh]
	 Same-Spin Energy          =      -0.4874098334596906 [Eh]
	 Opposite-Spin Energy      =      -1.5202476012495763 [Eh]
	 Correlation Energy        =      -2.0076574347092668 [Eh]
	 Total Energy              =    -456.8106619549953393 [Eh]

	 ================> DF-SCS-MP2 Energies <==================
	-----------------------------------------------------------
	 SCS Same-Spin Scale       =       0.3333333333333333 [-]
	 SCS Opposite-Spin Scale   =       1.2000000000000000 [-]
	 SCS Same-Spin Energy      =      -0.1624699444865635 [Eh]
	 SCS Opposite-Spin Energy  =      -1.8242971214994914 [Eh]
	 SCS Correlation Energy    =      -1.9867670659860550 [Eh]
	 SCS Total Energy          =    -456.7897715862721384 [Eh]
	-----------------------------------------------------------

  Dipole Moment: [D]
     X:     0.6369      Y:    -1.2301      Z:     1.3767     Total:     1.9530

*** Psi4 exiting successfully. Buy a developer a beer!
