                               Psi4 1.3.2 release

  ==> Input File <==

--------------------------------------------------------------------------
#psi4
#
memory 32 gb

molecule  {
0 1
  O       -1.3267430     1.3986080    -0.4043610
  N        1.3792558     0.5889596     0.0732340
  N       -2.0120760    -0.7164460     0.1311050
  C        0.3280180    -0.2917100    -0.0638180
  C        0.8200520    -1.5979270    -0.1446940
  C        2.5591820    -0.1927100     0.0828840
  C        2.2225030    -1.5310870    -0.0531270
  C       -1.0490640     0.2229840    -0.1220780
  C        1.3775260     2.0070720     0.1804590
  C       -3.4119730    -0.3353390     0.1671430
  H        0.2239390    -2.4879400    -0.3067250
  H        3.5227950     0.2883690     0.1888050
  H        2.9194420    -2.3581700    -0.0891670
  H        0.6999810     2.3106600     0.9777950
  H        2.3913760     2.3394710     0.4091260
  H        1.0337950     2.4512300    -0.7527080
  H       -1.7260750    -1.5572290     0.6147920
  H       -4.0269330    -1.2262470     0.0275940
  H       -3.5972090     0.3657440    -0.6460440
  H       -3.6872220     0.1511560     1.1097960
units angstrom
no_reorient  #important for SAPT in psi4, default
symmetry c1  #important for SAPT in psi4, default
}

set PROPERTIES_ORIGIN ["COM"]
properties('MP2/aug-cc-pvtz', properties = ['dipole'])
--------------------------------------------------------------------------

    Molecular point group: c1
  Charge       = 0
  Multiplicity = 1
  Basis Set: AUG-CC-PVTZ
    Blend: AUG-CC-PVTZ
  Basis Set: (AUG-CC-PVTZ AUX)
    Blend: AUG-CC-PVTZ-JKFIT

    Orbital Energies [Eh]
    ---------------------

    Doubly Occupied:

       1A    -20.517175     2A    -15.619516     3A    -15.583362
       4A    -11.354703     5A    -11.269854     6A    -11.267213
       7A    -11.258931     8A    -11.257393     9A    -11.233504
      10A    -11.224924    11A     -1.373109    12A     -1.300241
      13A     -1.226146    14A     -1.089397    15A     -1.013855
      16A     -0.941968    17A     -0.935539    18A     -0.825682
      19A     -0.785334    20A     -0.762920    21A     -0.725487
      22A     -0.648123    23A     -0.642028    24A     -0.635961
      25A     -0.617501    26A     -0.595242    27A     -0.589607
      28A     -0.569972    29A     -0.552045    30A     -0.546994
      31A     -0.536273    32A     -0.529303    33A     -0.509164
      34A     -0.429842    35A     -0.393631    36A     -0.347988
      37A     -0.306505

  @DF-RHF Final Energy:  -454.81517781793764

   => Energetics <=

    Nuclear Repulsion Energy =            522.6370349396025858
    One-Electron Energy =               -1654.8715609590240092
    Two-Electron Energy =                 677.4193482014838992
    Total Energy =                       -454.8151778179376379
  Basis Set: (AUG-CC-PVTZ AUX)
    Blend: AUG-CC-PVTZ-RI
    Molecular point group: c1

    Geometry (in Angstrom), charge = 0, multiplicity = 1:

       Center              X                  Y                   Z               Mass
    ------------   -----------------  -----------------  -----------------  -----------------
         O           -1.339841790624     1.396869709697    -0.393498723391    15.994914619570
         N            1.366157009376     0.587221309697     0.084096276609    14.003074004430
         N           -2.025174790624    -0.718184290303     0.141967276609    14.003074004430
         C            0.314919209376    -0.293448290303    -0.052955723391    12.000000000000
         C            0.806953209376    -1.599665290303    -0.133831723391    12.000000000000
         C            2.546083209376    -0.194448290303     0.093746276609    12.000000000000
         C            2.209404209376    -1.532825290303    -0.042264723391    12.000000000000
         C           -1.062162790624     0.221245709697    -0.111215723391    12.000000000000
         C            1.364427209376     2.005333709697     0.191321276609    12.000000000000
         C           -3.425071790624    -0.337077290303     0.178005276609    12.000000000000
         H            0.210840209376    -2.489678290303    -0.295862723391     1.007825032230
         H            3.509696209376     0.286630709697     0.199667276609     1.007825032230
         H            2.906343209376    -2.359908290303    -0.078304723391     1.007825032230
         H            0.686882209376     2.308921709697     0.988657276609     1.007825032230
         H            2.378277209376     2.337732709697     0.419988276609     1.007825032230
         H            1.020696209376     2.449491709697    -0.741845723391     1.007825032230
         H           -1.739173790624    -1.558967290303     0.625654276609     1.007825032230
         H           -4.040031790624    -1.227985290303     0.038456276609     1.007825032230
         H           -3.610307790624     0.364005709697    -0.635181723391     1.007825032230
         H           -3.700320790624     0.149417709697     1.120658276609     1.007825032230

  Basis Set: AUG-CC-PVTZ
    Blend: AUG-CC-PVTZ
  Basis Set: (AUG-CC-PVTZ AUX)
    Blend: AUG-CC-PVTZ-JKFIT
	 Reference Energy          =    -454.8151778179376379 [Eh]
	 Singles Energy            =      -0.0000000000000000 [Eh]
	 Same-Spin Energy          =      -0.4856177611759954 [Eh]
	 Opposite-Spin Energy      =      -1.5179935086262533 [Eh]
	 Correlation Energy        =      -2.0036112698022488 [Eh]
	 Total Energy              =    -456.8187890877399013 [Eh]

	 ================> DF-SCS-MP2 Energies <==================
	-----------------------------------------------------------
	 SCS Same-Spin Scale       =       0.3333333333333333 [-]
	 SCS Opposite-Spin Scale   =       1.2000000000000000 [-]
	 SCS Same-Spin Energy      =      -0.1618725870586651 [Eh]
	 SCS Opposite-Spin Energy  =      -1.8215922103515039 [Eh]
	 SCS Correlation Energy    =      -1.9834647974101691 [Eh]
	 SCS Total Energy          =    -456.7986426153478305 [Eh]
	-----------------------------------------------------------

  Dipole Moment: [D]
     X:     0.2867      Y:    -1.3194      Z:     1.3459     Total:     1.9065

*** Psi4 exiting successfully. Buy a developer a beer!
