                               Psi4 1.3.2 release

  ==> Input File <==

--------------------------------------------------------------------------
#psi4
#
memory 32 gb

molecule  {
0 1
  O       -1.3267430     1.3986080    -0.4043610
  N        1.4095890     0.5516460     0.0718950
  N       -2.0120760    -0.7164460     0.1311050
  C        0.1710650    -0.4140942    -0.0835121
  C        0.8200520    -1.5979270    -0.1446940
  C        2.5591820    -0.1927100     0.0828840
  C        2.2225030    -1.5310870    -0.0531270
  C       -1.0490640     0.2229840    -0.1220780
  C        1.3775260     2.0070720     0.1804590
  C       -3.4119730    -0.3353390     0.1671430
  H        0.2239390    -2.4879400    -0.3067250
  H        3.5227950     0.2883690     0.1888050
  H        2.9194420    -2.3581700    -0.0891670
  H        0.6999810     2.3106600     0.9777950
  H        2.3913760     2.3394710     0.4091260
  H        1.0337950     2.4512300    -0.7527080
  H       -1.7260750    -1.5572290     0.6147920
  H       -4.0269330    -1.2262470     0.0275940
  H       -3.5972090     0.3657440    -0.6460440
  H       -3.6872220     0.1511560     1.1097960
units angstrom
no_reorient  #important for SAPT in psi4, default
symmetry c1  #important for SAPT in psi4, default
}

set PROPERTIES_ORIGIN ["COM"]
properties('MP2/aug-cc-pvtz', properties = ['dipole'])
--------------------------------------------------------------------------

    Molecular point group: c1
  Charge       = 0
  Multiplicity = 1
  Basis Set: AUG-CC-PVTZ
    Blend: AUG-CC-PVTZ
  Basis Set: (AUG-CC-PVTZ AUX)
    Blend: AUG-CC-PVTZ-JKFIT

    Orbital Energies [Eh]
    ---------------------

    Doubly Occupied:

       1A    -20.515220     2A    -15.609268     3A    -15.577608
       4A    -11.348765     5A    -11.284390     6A    -11.264984
       7A    -11.254826     8A    -11.253729     9A    -11.249912
      10A    -11.221101    11A     -1.371185    12A     -1.269583
      13A     -1.227752    14A     -1.086197    15A     -1.031117
      16A     -0.946538    17A     -0.919447    18A     -0.844587
      19A     -0.778322    20A     -0.763254    21A     -0.719103
      22A     -0.653151    23A     -0.639238    24A     -0.630611
      25A     -0.608998    26A     -0.591509    27A     -0.586512
      28A     -0.568157    29A     -0.552134    30A     -0.544607
      31A     -0.537778    32A     -0.507236    33A     -0.501114
      34A     -0.432533    35A     -0.393527    36A     -0.355518
      37A     -0.309117

  @DF-RHF Final Energy:  -454.77592746388052

   => Energetics <=

    Nuclear Repulsion Energy =            521.7907274195089258
    One-Electron Energy =               -1653.2360515745961038
    Two-Electron Energy =                 676.6693966912067708
    Total Energy =                       -454.7759274638805209
  Basis Set: (AUG-CC-PVTZ AUX)
    Blend: AUG-CC-PVTZ-RI
    Molecular point group: c1

    Geometry (in Angstrom), charge = 0, multiplicity = 1:

       Center              X                  Y                   Z               Mass
    ------------   -----------------  -----------------  -----------------  -----------------
         O           -1.329277732008     1.411289795224    -0.391651384274    15.994914619570
         N            1.407054267992     0.564327795224     0.084604615726    14.003074004430
         N           -2.014610732008    -0.703764204776     0.143814615726    14.003074004430
         C            0.168530267992    -0.401412404776    -0.070802484274    12.000000000000
         C            0.817517267992    -1.585245204776    -0.131984384274    12.000000000000
         C            2.556647267992    -0.180028204776     0.095593615726    12.000000000000
         C            2.219968267992    -1.518405204776    -0.040417384274    12.000000000000
         C           -1.051598732008     0.235665795224    -0.109368384274    12.000000000000
         C            1.374991267992     2.019753795224     0.193168615726    12.000000000000
         C           -3.414507732008    -0.322657204776     0.179852615726    12.000000000000
         H            0.221404267992    -2.475258204776    -0.294015384274     1.007825032230
         H            3.520260267992     0.301050795224     0.201514615726     1.007825032230
         H            2.916907267992    -2.345488204776    -0.076457384274     1.007825032230
         H            0.697446267992     2.323341795224     0.990504615726     1.007825032230
         H            2.388841267992     2.352152795224     0.421835615726     1.007825032230
         H            1.031260267992     2.463911795224    -0.739998384274     1.007825032230
         H           -1.728609732008    -1.544547204776     0.627501615726     1.007825032230
         H           -4.029467732008    -1.213565204776     0.040303615726     1.007825032230
         H           -3.599743732008     0.378425795224    -0.633334384274     1.007825032230
         H           -3.689756732008     0.163837795224     1.122505615726     1.007825032230

  Basis Set: AUG-CC-PVTZ
    Blend: AUG-CC-PVTZ
  Basis Set: (AUG-CC-PVTZ AUX)
    Blend: AUG-CC-PVTZ-JKFIT
	 Reference Energy          =    -454.7759274638805209 [Eh]
	 Singles Energy            =      -0.0000000000000000 [Eh]
	 Same-Spin Energy          =      -0.4868487689858954 [Eh]
	 Opposite-Spin Energy      =      -1.5211993437130915 [Eh]
	 Correlation Energy        =      -2.0080481126989871 [Eh]
	 Total Energy              =    -456.7839755765795076 [Eh]

	 ================> DF-SCS-MP2 Energies <==================
	-----------------------------------------------------------
	 SCS Same-Spin Scale       =       0.3333333333333333 [-]
	 SCS Opposite-Spin Scale   =       1.2000000000000000 [-]
	 SCS Same-Spin Energy      =      -0.1622829229952985 [Eh]
	 SCS Opposite-Spin Energy  =      -1.8254392124557097 [Eh]
	 SCS Correlation Energy    =      -1.9877221354510082 [Eh]
	 SCS Total Energy          =    -456.7636495993315293 [Eh]
	-----------------------------------------------------------

  Dipole Moment: [D]
     X:     0.4836      Y:    -1.4417      Z:     1.3247     Total:     2.0167

*** Psi4 exiting successfully. Buy a developer a beer!
