                               Psi4 1.3.2 release

  ==> Input File <==

--------------------------------------------------------------------------
#psi4
#
memory 32 gb

molecule  {
0 1
  O       -1.3267430     1.3986080    -0.4043610
  N        1.4923992     0.4335543     0.0691154
  N       -2.0120760    -0.7164460     0.1311050
  C        0.3280180    -0.2917100    -0.0638180
  C        0.8200520    -1.5979270    -0.1446940
  C        2.5591820    -0.1927100     0.0828840
  C        2.2225030    -1.5310870    -0.0531270
  C       -1.0490640     0.2229840    -0.1220780
  C        1.3775260     2.0070720     0.1804590
  C       -3.4119730    -0.3353390     0.1671430
  H        0.2239390    -2.4879400    -0.3067250
  H        3.5227950     0.2883690     0.1888050
  H        2.9194420    -2.3581700    -0.0891670
  H        0.6999810     2.3106600     0.9777950
  H        2.3913760     2.3394710     0.4091260
  H        1.0337950     2.4512300    -0.7527080
  H       -1.7260750    -1.5572290     0.6147920
  H       -4.0269330    -1.2262470     0.0275940
  H       -3.5972090     0.3657440    -0.6460440
  H       -3.6872220     0.1511560     1.1097960
units angstrom
no_reorient  #important for SAPT in psi4, default
symmetry c1  #important for SAPT in psi4, default
}

set PROPERTIES_ORIGIN ["COM"]
properties('MP2/aug-cc-pvtz', properties = ['dipole'])
--------------------------------------------------------------------------

    Molecular point group: c1
  Charge       = 0
  Multiplicity = 1
  Basis Set: AUG-CC-PVTZ
    Blend: AUG-CC-PVTZ
  Basis Set: (AUG-CC-PVTZ AUX)
    Blend: AUG-CC-PVTZ-JKFIT

    Orbital Energies [Eh]
    ---------------------

    Doubly Occupied:

       1A    -20.512987     2A    -15.623919     3A    -15.581540
       4A    -11.355474     5A    -11.276895     6A    -11.257314
       7A    -11.256454     8A    -11.251500     9A    -11.230103
      10A    -11.207694    11A     -1.371067    12A     -1.338577
      13A     -1.224141    14A     -1.064816    15A     -1.026616
      16A     -0.948611    17A     -0.935918    18A     -0.824105
      19A     -0.793409    20A     -0.760047    21A     -0.720266
      22A     -0.668829    23A     -0.644165    24A     -0.633210
      25A     -0.617008    26A     -0.593971    27A     -0.585064
      28A     -0.557311    29A     -0.549699    30A     -0.546608
      31A     -0.536713    32A     -0.526137    33A     -0.519708
      34A     -0.428477    35A     -0.392488    36A     -0.350561
      37A     -0.302641

  @DF-RHF Final Energy:  -454.79211139685248

   => Energetics <=

    Nuclear Repulsion Energy =            523.5151968599459451
    One-Electron Energy =               -1656.5865321887736172
    Two-Electron Energy =                 678.2792239319751388
    Total Energy =                       -454.7921113968525333
  Basis Set: (AUG-CC-PVTZ AUX)
    Blend: AUG-CC-PVTZ-RI
    Molecular point group: c1

    Geometry (in Angstrom), charge = 0, multiplicity = 1:

       Center              X                  Y                   Z               Mass
    ------------   -----------------  -----------------  -----------------  -----------------
         O           -1.351316032271     1.412629868624    -0.393081042716    15.994914619570
         N            1.467826167729     0.447576168624     0.080395357284    14.003074004430
         N           -2.036649032271    -0.702424131376     0.142384957284    14.003074004430
         C            0.303444967729    -0.277688131376    -0.052538042716    12.000000000000
         C            0.795478967729    -1.583905131376    -0.133414042716    12.000000000000
         C            2.534608967729    -0.178688131376     0.094163957284    12.000000000000
         C            2.197929967729    -1.517065131376    -0.041847042716    12.000000000000
         C           -1.073637032271     0.237005868624    -0.110798042716    12.000000000000
         C            1.352952967729     2.021093868624     0.191738957284    12.000000000000
         C           -3.436546032271    -0.321317131376     0.178422957284    12.000000000000
         H            0.199365967729    -2.473918131376    -0.295445042716     1.007825032230
         H            3.498221967729     0.302390868624     0.200084957284     1.007825032230
         H            2.894868967729    -2.344148131376    -0.077887042716     1.007825032230
         H            0.675407967729     2.324681868624     0.989074957284     1.007825032230
         H            2.366802967729     2.353492868624     0.420405957284     1.007825032230
         H            1.009221967729     2.465251868624    -0.741428042716     1.007825032230
         H           -1.750648032271    -1.543207131376     0.626071957284     1.007825032230
         H           -4.051506032271    -1.212225131376     0.038873957284     1.007825032230
         H           -3.621782032271     0.379765868624    -0.634764042716     1.007825032230
         H           -3.711795032271     0.165177868624     1.121075957284     1.007825032230

  Basis Set: AUG-CC-PVTZ
    Blend: AUG-CC-PVTZ
  Basis Set: (AUG-CC-PVTZ AUX)
    Blend: AUG-CC-PVTZ-JKFIT
	 Reference Energy          =    -454.7921113968524764 [Eh]
	 Singles Energy            =      -0.0000000000000000 [Eh]
	 Same-Spin Energy          =      -0.4850197982797972 [Eh]
	 Opposite-Spin Energy      =      -1.5155475195902666 [Eh]
	 Correlation Energy        =      -2.0005673178700638 [Eh]
	 Total Energy              =    -456.7926787147225127 [Eh]

	 ================> DF-SCS-MP2 Energies <==================
	-----------------------------------------------------------
	 SCS Same-Spin Scale       =       0.3333333333333333 [-]
	 SCS Opposite-Spin Scale   =       1.2000000000000000 [-]
	 SCS Same-Spin Energy      =      -0.1616732660932657 [Eh]
	 SCS Opposite-Spin Energy  =      -1.8186570235083197 [Eh]
	 SCS Correlation Energy    =      -1.9803302896015855 [Eh]
	 SCS Total Energy          =    -456.7724416864540444 [Eh]
	-----------------------------------------------------------

  Dipole Moment: [D]
     X:     0.3400      Y:    -0.7588      Z:     1.3974     Total:     1.6261

*** Psi4 exiting successfully. Buy a developer a beer!
