                               Psi4 1.3.2 release

  ==> Input File <==

--------------------------------------------------------------------------
#psi4
#
memory 32 gb

molecule  {
0 1
  O       -1.3267430     1.3986080    -0.4043610
  N        1.4095890     0.5516460     0.0718950
  N       -2.0120760    -0.7164460     0.1311050
  C        0.3430163    -0.3105061    -0.0644125
  C        0.8200520    -1.5979270    -0.1446940
  C        2.5591820    -0.1927100     0.0828840
  C        2.2225030    -1.5310870    -0.0531270
  C       -1.0490640     0.2229840    -0.1220780
  C        1.3775260     2.0070720     0.1804590
  C       -3.4119730    -0.3353390     0.1671430
  H        0.2239390    -2.4879400    -0.3067250
  H        3.5227950     0.2883690     0.1888050
  H        2.9194420    -2.3581700    -0.0891670
  H        0.6999810     2.3106600     0.9777950
  H        2.3913760     2.3394710     0.4091260
  H        1.0337950     2.4512300    -0.7527080
  H       -1.7260750    -1.5572290     0.6147920
  H       -4.0269330    -1.2262470     0.0275940
  H       -3.5972090     0.3657440    -0.6460440
  H       -3.6872220     0.1511560     1.1097960
units angstrom
no_reorient  #important for SAPT in psi4, default
symmetry c1  #important for SAPT in psi4, default
}

set PROPERTIES_ORIGIN ["COM"]
properties('MP2/aug-cc-pvtz', properties = ['dipole'])
--------------------------------------------------------------------------

    Molecular point group: c1
  Charge       = 0
  Multiplicity = 1
  Basis Set: AUG-CC-PVTZ
    Blend: AUG-CC-PVTZ
  Basis Set: (AUG-CC-PVTZ AUX)
    Blend: AUG-CC-PVTZ-JKFIT

    Orbital Energies [Eh]
    ---------------------

    Doubly Occupied:

       1A    -20.517797     2A    -15.618676     3A    -15.583677
       4A    -11.356853     5A    -11.265633     6A    -11.263490
       7A    -11.262608     8A    -11.257582     9A    -11.229436
      10A    -11.219213    11A     -1.372649    12A     -1.307130
      13A     -1.226192    14A     -1.084529    15A     -1.013714
      16A     -0.941997    17A     -0.938444    18A     -0.822011
      19A     -0.787576    20A     -0.761638    21A     -0.725434
      22A     -0.649842    23A     -0.641686    24A     -0.635117
      25A     -0.617058    26A     -0.594528    27A     -0.581030
      28A     -0.571816    29A     -0.550509    30A     -0.547538
      31A     -0.537616    32A     -0.533780    33A     -0.514554
      34A     -0.429469    35A     -0.393942    36A     -0.348206
      37A     -0.307796

  @DF-RHF Final Energy:  -454.82014571190138

   => Energetics <=

    Nuclear Repulsion Energy =            522.7447744245538388
    One-Electron Energy =               -1655.1083102013228654
    Two-Electron Energy =                 677.5433900648675944
    Total Energy =                       -454.8201457119013185
  Basis Set: (AUG-CC-PVTZ AUX)
    Blend: AUG-CC-PVTZ-RI
    Molecular point group: c1

    Geometry (in Angstrom), charge = 0, multiplicity = 1:

       Center              X                  Y                   Z               Mass
    ------------   -----------------  -----------------  -----------------  -----------------
         O           -1.344221430350     1.402287308367    -0.393311265070    15.994914619570
         N            1.392110569650     0.555325308367     0.082944734930    14.003074004430
         N           -2.029554430350    -0.712766691633     0.142154734930    14.003074004430
         C            0.325537869650    -0.306826791633    -0.053362765070    12.000000000000
         C            0.802573569650    -1.594247691633    -0.133644265070    12.000000000000
         C            2.541703569650    -0.189030691633     0.093933734930    12.000000000000
         C            2.205024569650    -1.527407691633    -0.042077265070    12.000000000000
         C           -1.066542430350     0.226663308367    -0.111028265070    12.000000000000
         C            1.360047569650     2.010751308367     0.191508734930    12.000000000000
         C           -3.429451430350    -0.331659691633     0.178192734930    12.000000000000
         H            0.206460569650    -2.484260691633    -0.295675265070     1.007825032230
         H            3.505316569650     0.292048308367     0.199854734930     1.007825032230
         H            2.901963569650    -2.354490691633    -0.078117265070     1.007825032230
         H            0.682502569650     2.314339308367     0.988844734930     1.007825032230
         H            2.373897569650     2.343150308367     0.420175734930     1.007825032230
         H            1.016316569650     2.454909308367    -0.741658265070     1.007825032230
         H           -1.743553430350    -1.553549691633     0.625841734930     1.007825032230
         H           -4.044411430350    -1.222567691633     0.038643734930     1.007825032230
         H           -3.614687430350     0.369423308367    -0.634994265070     1.007825032230
         H           -3.704700430350     0.154835308367     1.120845734930     1.007825032230

  Basis Set: AUG-CC-PVTZ
    Blend: AUG-CC-PVTZ
  Basis Set: (AUG-CC-PVTZ AUX)
    Blend: AUG-CC-PVTZ-JKFIT
	 Reference Energy          =    -454.8201457119013753 [Eh]
	 Singles Energy            =      -0.0000000000000000 [Eh]
	 Same-Spin Energy          =      -0.4848082249381338 [Eh]
	 Opposite-Spin Energy      =      -1.5162408005354842 [Eh]
	 Correlation Energy        =      -2.0010490254736180 [Eh]
	 Total Energy              =    -456.8211947373749808 [Eh]

	 ================> DF-SCS-MP2 Energies <==================
	-----------------------------------------------------------
	 SCS Same-Spin Scale       =       0.3333333333333333 [-]
	 SCS Opposite-Spin Scale   =       1.2000000000000000 [-]
	 SCS Same-Spin Energy      =      -0.1616027416460446 [Eh]
	 SCS Opposite-Spin Energy  =      -1.8194889606425808 [Eh]
	 SCS Correlation Energy    =      -1.9810917022886254 [Eh]
	 SCS Total Energy          =    -456.8012374141899841 [Eh]
	-----------------------------------------------------------

  Dipole Moment: [D]
     X:     0.1960      Y:    -1.1729      Z:     1.3526     Total:     1.8010

*** Psi4 exiting successfully. Buy a developer a beer!
