                               Psi4 1.3.2 release

  ==> Input File <==

--------------------------------------------------------------------------
#psi4
#
memory 32 gb

molecule  {
0 1
  O       -1.3267430     1.3986080    -0.4043610
  N        1.4095890     0.5516460     0.0718950
  N       -2.0120760    -0.7164460     0.1311050
  C        0.3280180    -0.2917100    -0.0638180
  C        0.9098464    -1.5610873    -0.1345161
  C        2.5591820    -0.1927100     0.0828840
  C        2.2225030    -1.5310870    -0.0531270
  C       -1.0490640     0.2229840    -0.1220780
  C        1.3775260     2.0070720     0.1804590
  C       -3.4119730    -0.3353390     0.1671430
  H        0.2239390    -2.4879400    -0.3067250
  H        3.5227950     0.2883690     0.1888050
  H        2.9194420    -2.3581700    -0.0891670
  H        0.6999810     2.3106600     0.9777950
  H        2.3913760     2.3394710     0.4091260
  H        1.0337950     2.4512300    -0.7527080
  H       -1.7260750    -1.5572290     0.6147920
  H       -4.0269330    -1.2262470     0.0275940
  H       -3.5972090     0.3657440    -0.6460440
  H       -3.6872220     0.1511560     1.1097960
units angstrom
no_reorient  #important for SAPT in psi4, default
symmetry c1  #important for SAPT in psi4, default
}

set PROPERTIES_ORIGIN ["COM"]
properties('MP2/aug-cc-pvtz', properties = ['dipole'])
--------------------------------------------------------------------------

    Molecular point group: c1
  Charge       = 0
  Multiplicity = 1
  Basis Set: AUG-CC-PVTZ
    Blend: AUG-CC-PVTZ
  Basis Set: (AUG-CC-PVTZ AUX)
    Blend: AUG-CC-PVTZ-JKFIT

    Orbital Energies [Eh]
    ---------------------

    Doubly Occupied:

       1A    -20.515191     2A    -15.624226     3A    -15.582133
       4A    -11.355620     5A    -11.267236     6A    -11.263082
       7A    -11.256675     8A    -11.256556     9A    -11.230265
      10A    -11.212383    11A     -1.371724    12A     -1.311971
      13A     -1.224729    14A     -1.096623    15A     -1.015122
      16A     -0.943425    17A     -0.940372    18A     -0.824581
      19A     -0.780848    20A     -0.763767    21A     -0.723942
      22A     -0.654995    23A     -0.643057    24A     -0.634421
      25A     -0.616284    26A     -0.593087    27A     -0.578440
      28A     -0.573075    29A     -0.558585    30A     -0.546534
      31A     -0.539464    32A     -0.516833    33A     -0.513376
      34A     -0.430335    35A     -0.392853    36A     -0.360215
      37A     -0.301215

  @DF-RHF Final Energy:  -454.80488726944702

   => Energetics <=

    Nuclear Repulsion Energy =            523.8283874280473356
    One-Electron Energy =               -1657.2400764420590349
    Two-Electron Energy =                 678.6068017445646774
    Total Energy =                       -454.8048872694470219
  Basis Set: (AUG-CC-PVTZ AUX)
    Blend: AUG-CC-PVTZ-RI
    Molecular point group: c1

    Geometry (in Angstrom), charge = 0, multiplicity = 1:

       Center              X                  Y                   Z               Mass
    ------------   -----------------  -----------------  -----------------  -----------------
         O           -1.350721703134     1.397452191609    -0.394247457446    15.994914619570
         N            1.385610296866     0.550490191609     0.082008542554    14.003074004430
         N           -2.036054703134    -0.717601808391     0.141218542554    14.003074004430
         C            0.304039296866    -0.292865808391    -0.053704457446    12.000000000000
         C            0.885867696866    -1.562243108391    -0.124402557446    12.000000000000
         C            2.535203296866    -0.193865808391     0.092997542554    12.000000000000
         C            2.198524296866    -1.532242808391    -0.043013457446    12.000000000000
         C           -1.073042703134     0.221828191609    -0.111964457446    12.000000000000
         C            1.353547296866     2.005916191609     0.190572542554    12.000000000000
         C           -3.435951703134    -0.336494808391     0.177256542554    12.000000000000
         H            0.199960296866    -2.489095808391    -0.296611457446     1.007825032230
         H            3.498816296866     0.287213191609     0.198918542554     1.007825032230
         H            2.895463296866    -2.359325808391    -0.079053457446     1.007825032230
         H            0.676002296866     2.309504191609     0.987908542554     1.007825032230
         H            2.367397296866     2.338315191609     0.419239542554     1.007825032230
         H            1.009816296866     2.450074191609    -0.742594457446     1.007825032230
         H           -1.750053703134    -1.558384808391     0.624905542554     1.007825032230
         H           -4.050911703134    -1.227402808391     0.037707542554     1.007825032230
         H           -3.621187703134     0.364588191609    -0.635930457446     1.007825032230
         H           -3.711200703134     0.150000191609     1.119909542554     1.007825032230

  Basis Set: AUG-CC-PVTZ
    Blend: AUG-CC-PVTZ
  Basis Set: (AUG-CC-PVTZ AUX)
    Blend: AUG-CC-PVTZ-JKFIT
	 Reference Energy          =    -454.8048872694470219 [Eh]
	 Singles Energy            =      -0.0000000000000000 [Eh]
	 Same-Spin Energy          =      -0.4864176702502369 [Eh]
	 Opposite-Spin Energy      =      -1.5179902917809782 [Eh]
	 Correlation Energy        =      -2.0044079620312152 [Eh]
	 Total Energy              =    -456.8092952314782451 [Eh]

	 ================> DF-SCS-MP2 Energies <==================
	-----------------------------------------------------------
	 SCS Same-Spin Scale       =       0.3333333333333333 [-]
	 SCS Opposite-Spin Scale   =       1.2000000000000000 [-]
	 SCS Same-Spin Energy      =      -0.1621392234167456 [Eh]
	 SCS Opposite-Spin Energy  =      -1.8215883501371737 [Eh]
	 SCS Correlation Energy    =      -1.9837275735539193 [Eh]
	 SCS Total Energy          =    -456.7886148430009143 [Eh]
	-----------------------------------------------------------

  Dipole Moment: [D]
     X:     0.3480      Y:    -1.2130      Z:     1.3652     Total:     1.8591

*** Psi4 exiting successfully. Buy a developer a beer!
