                               Psi4 1.3.2 release

  ==> Input File <==

--------------------------------------------------------------------------
#psi4
#
memory 32 gb

molecule  {
0 1
  O       -1.3267430     1.3986080    -0.4043610
  N        1.4095890     0.5516460     0.0718950
  N       -2.0120760    -0.7164460     0.1311050
  C        0.3280180    -0.2917100    -0.0638180
  C        0.8200520    -1.5979270    -0.1446940
  C        2.5591820    -0.1927100     0.0828840
  C        2.2225030    -1.5310870    -0.0531270
  C       -1.1426617     0.2579668    -0.1260378
  C        1.3775260     2.0070720     0.1804590
  C       -3.4119730    -0.3353390     0.1671430
  H        0.2239390    -2.4879400    -0.3067250
  H        3.5227950     0.2883690     0.1888050
  H        2.9194420    -2.3581700    -0.0891670
  H        0.6999810     2.3106600     0.9777950
  H        2.3913760     2.3394710     0.4091260
  H        1.0337950     2.4512300    -0.7527080
  H       -1.7260750    -1.5572290     0.6147920
  H       -4.0269330    -1.2262470     0.0275940
  H       -3.5972090     0.3657440    -0.6460440
  H       -3.6872220     0.1511560     1.1097960
units angstrom
no_reorient  #important for SAPT in psi4, default
symmetry c1  #important for SAPT in psi4, default
}

set PROPERTIES_ORIGIN ["COM"]
properties('MP2/aug-cc-pvtz', properties = ['dipole'])
--------------------------------------------------------------------------

    Molecular point group: c1
  Charge       = 0
  Multiplicity = 1
  Basis Set: AUG-CC-PVTZ
    Blend: AUG-CC-PVTZ
  Basis Set: (AUG-CC-PVTZ AUX)
    Blend: AUG-CC-PVTZ-JKFIT

    Orbital Energies [Eh]
    ---------------------

    Doubly Occupied:

       1A    -20.526154     2A    -15.613165     3A    -15.589322
       4A    -11.356856     5A    -11.261999     6A    -11.260894
       7A    -11.259654     8A    -11.256937     9A    -11.221581
      10A    -11.213174    11A     -1.408912    12A     -1.300120
      13A     -1.249413    14A     -1.074821    15A     -0.999994
      16A     -0.945255    17A     -0.932963    18A     -0.815684
      19A     -0.781385    20A     -0.767821    21A     -0.719321
      22A     -0.656995    23A     -0.650907    24A     -0.640055
      25A     -0.621811    26A     -0.589334    27A     -0.576738
      28A     -0.573016    29A     -0.556342    30A     -0.547935
      31A     -0.541215    32A     -0.528501    33A     -0.517573
      34A     -0.426904    35A     -0.406805    36A     -0.341144
      37A     -0.297854

  @DF-RHF Final Energy:  -454.81372315587095

   => Energetics <=

    Nuclear Repulsion Energy =            522.6312866580401533
    One-Electron Energy =               -1654.8329096505597136
    Two-Electron Energy =                 677.3878998366485575
    Total Energy =                       -454.8137231558710027
  Basis Set: (AUG-CC-PVTZ AUX)
    Blend: AUG-CC-PVTZ-RI
    Molecular point group: c1

    Geometry (in Angstrom), charge = 0, multiplicity = 1:

       Center              X                  Y                   Z               Mass
    ------------   -----------------  -----------------  -----------------  -----------------
         O           -1.334783724063     1.397613568426    -0.393018798378    15.994914619570
         N            1.401548275937     0.550651568426     0.083237201622    14.003074004430
         N           -2.020116724063    -0.717440431574     0.142447201622    14.003074004430
         C            0.319977275937    -0.292704431574    -0.052475798378    12.000000000000
         C            0.812011275937    -1.598921431574    -0.133351798378    12.000000000000
         C            2.551141275937    -0.193704431574     0.094226201622    12.000000000000
         C            2.214462275937    -1.532081431574    -0.041784798378    12.000000000000
         C           -1.150702424063     0.256972368426    -0.114695598378    12.000000000000
         C            1.369485275937     2.006077568426     0.191801201622    12.000000000000
         C           -3.420013724063    -0.336333431574     0.178485201622    12.000000000000
         H            0.215898275937    -2.488934431574    -0.295382798378     1.007825032230
         H            3.514754275937     0.287374568426     0.200147201622     1.007825032230
         H            2.911401275937    -2.359164431574    -0.077824798378     1.007825032230
         H            0.691940275937     2.309665568426     0.989137201622     1.007825032230
         H            2.383335275937     2.338476568426     0.420468201622     1.007825032230
         H            1.025754275937     2.450235568426    -0.741365798378     1.007825032230
         H           -1.734115724063    -1.558223431574     0.626134201622     1.007825032230
         H           -4.034973724063    -1.227241431574     0.038936201622     1.007825032230
         H           -3.605249724063     0.364749568426    -0.634701798378     1.007825032230
         H           -3.695262724063     0.150161568426     1.121138201622     1.007825032230

  Basis Set: AUG-CC-PVTZ
    Blend: AUG-CC-PVTZ
  Basis Set: (AUG-CC-PVTZ AUX)
    Blend: AUG-CC-PVTZ-JKFIT
	 Reference Energy          =    -454.8137231558709459 [Eh]
	 Singles Energy            =      -0.0000000000000000 [Eh]
	 Same-Spin Energy          =      -0.4836799413466401 [Eh]
	 Opposite-Spin Energy      =      -1.5140148663889654 [Eh]
	 Correlation Energy        =      -1.9976948077356056 [Eh]
	 Total Energy              =    -456.8114179636065728 [Eh]

	 ================> DF-SCS-MP2 Energies <==================
	-----------------------------------------------------------
	 SCS Same-Spin Scale       =       0.3333333333333333 [-]
	 SCS Opposite-Spin Scale   =       1.2000000000000000 [-]
	 SCS Same-Spin Energy      =      -0.1612266471155467 [Eh]
	 SCS Opposite-Spin Energy  =      -1.8168178396667585 [Eh]
	 SCS Correlation Energy    =      -1.9780444867823053 [Eh]
	 SCS Total Energy          =    -456.7917676426532694 [Eh]
	-----------------------------------------------------------

  Dipole Moment: [D]
     X:    -0.5489      Y:    -0.9561      Z:     1.3401     Total:     1.7353

*** Psi4 exiting successfully. Buy a developer a beer!
