                               Psi4 1.3.2 release

  ==> Input File <==

--------------------------------------------------------------------------
#psi4
#
memory 32 gb

molecule  {
0 1
  O       -1.3267430     1.3986080    -0.4043610
  N        1.4095890     0.5516460     0.0718950
  N       -1.9419746    -0.7803500     0.1425995
  C        0.3280180    -0.2917100    -0.0638180
  C        0.8200520    -1.5979270    -0.1446940
  C        2.5591820    -0.1927100     0.0828840
  C        2.2225030    -1.5310870    -0.0531270
  C       -1.0490640     0.2229840    -0.1220780
  C        1.3775260     2.0070720     0.1804590
  C       -3.4119730    -0.3353390     0.1671430
  H        0.2239390    -2.4879400    -0.3067250
  H        3.5227950     0.2883690     0.1888050
  H        2.9194420    -2.3581700    -0.0891670
  H        0.6999810     2.3106600     0.9777950
  H        2.3913760     2.3394710     0.4091260
  H        1.0337950     2.4512300    -0.7527080
  H       -1.7260750    -1.5572290     0.6147920
  H       -4.0269330    -1.2262470     0.0275940
  H       -3.5972090     0.3657440    -0.6460440
  H       -3.6872220     0.1511560     1.1097960
units angstrom
no_reorient  #important for SAPT in psi4, default
symmetry c1  #important for SAPT in psi4, default
}

set PROPERTIES_ORIGIN ["COM"]
properties('MP2/aug-cc-pvtz', properties = ['dipole'])
--------------------------------------------------------------------------

    Molecular point group: c1
  Charge       = 0
  Multiplicity = 1
  Basis Set: AUG-CC-PVTZ
    Blend: AUG-CC-PVTZ
  Basis Set: (AUG-CC-PVTZ AUX)
    Blend: AUG-CC-PVTZ-JKFIT

    Orbital Energies [Eh]
    ---------------------

    Doubly Occupied:

       1A    -20.520686     2A    -15.618355     3A    -15.580056
       4A    -11.356970     5A    -11.264733     6A    -11.264520
       7A    -11.262554     8A    -11.258922     9A    -11.230146
      10A    -11.218700    11A     -1.372355    12A     -1.304669
      13A     -1.225852    14A     -1.080170    15A     -1.011401
      16A     -0.938471    17A     -0.936514    18A     -0.839819
      19A     -0.788071    20A     -0.768470    21A     -0.723194
      22A     -0.646790    23A     -0.639212    24A     -0.631851
      25A     -0.611214    26A     -0.589644    27A     -0.577774
      28A     -0.567250    29A     -0.552774    30A     -0.548361
      31A     -0.537497    32A     -0.532053    33A     -0.514550
      34A     -0.430636    35A     -0.401920    36A     -0.345881
      37A     -0.304361

  @DF-RHF Final Energy:  -454.80795753983716

   => Energetics <=

    Nuclear Repulsion Energy =            522.5614190982821583
    One-Electron Energy =               -1654.7459534045410692
    Two-Electron Energy =                 677.3765767664217492
    Total Energy =                       -454.8079575398371617
  Basis Set: (AUG-CC-PVTZ AUX)
    Blend: AUG-CC-PVTZ-RI
    Molecular point group: c1

    Geometry (in Angstrom), charge = 0, multiplicity = 1:

       Center              X                  Y                   Z               Mass
    ------------   -----------------  -----------------  -----------------  -----------------
         O           -1.350027191365     1.407134517025    -0.394528625807    15.994914619570
         N            1.386304808635     0.560172517025     0.081727374193    14.003074004430
         N           -1.965258791365    -0.771823482975     0.152431874193    14.003074004430
         C            0.304733808635    -0.283183482975    -0.053985625807    12.000000000000
         C            0.796767808635    -1.589400482975    -0.134861625807    12.000000000000
         C            2.535897808635    -0.184183482975     0.092716374193    12.000000000000
         C            2.199218808635    -1.522560482975    -0.043294625807    12.000000000000
         C           -1.072348191365     0.231510517025    -0.112245625807    12.000000000000
         C            1.354241808635     2.015598517025     0.190291374193    12.000000000000
         C           -3.435257191365    -0.326812482975     0.176975374193    12.000000000000
         H            0.200654808635    -2.479413482975    -0.296892625807     1.007825032230
         H            3.499510808635     0.296895517025     0.198637374193     1.007825032230
         H            2.896157808635    -2.349643482975    -0.079334625807     1.007825032230
         H            0.676696808635     2.319186517025     0.987627374193     1.007825032230
         H            2.368091808635     2.347997517025     0.418958374193     1.007825032230
         H            1.010510808635     2.459756517025    -0.742875625807     1.007825032230
         H           -1.749359191365    -1.548702482975     0.624624374193     1.007825032230
         H           -4.050217191365    -1.217720482975     0.037426374193     1.007825032230
         H           -3.620493191365     0.374270517025    -0.636211625807     1.007825032230
         H           -3.710506191365     0.159682517025     1.119628374193     1.007825032230

  Basis Set: AUG-CC-PVTZ
    Blend: AUG-CC-PVTZ
  Basis Set: (AUG-CC-PVTZ AUX)
    Blend: AUG-CC-PVTZ-JKFIT
	 Reference Energy          =    -454.8079575398371617 [Eh]
	 Singles Energy            =      -0.0000000000000000 [Eh]
	 Same-Spin Energy          =      -0.4849179735639530 [Eh]
	 Opposite-Spin Energy      =      -1.5172076566691255 [Eh]
	 Correlation Energy        =      -2.0021256302330785 [Eh]
	 Total Energy              =    -456.8100831700702429 [Eh]

	 ================> DF-SCS-MP2 Energies <==================
	-----------------------------------------------------------
	 SCS Same-Spin Scale       =       0.3333333333333333 [-]
	 SCS Opposite-Spin Scale   =       1.2000000000000000 [-]
	 SCS Same-Spin Energy      =      -0.1616393245213177 [Eh]
	 SCS Opposite-Spin Energy  =      -1.8206491880029505 [Eh]
	 SCS Correlation Energy    =      -1.9822885125242682 [Eh]
	 SCS Total Energy          =    -456.7902460523614536 [Eh]
	-----------------------------------------------------------

  Dipole Moment: [D]
     X:     0.0661      Y:    -1.0515      Z:     1.3700     Total:     1.7283

*** Psi4 exiting successfully. Buy a developer a beer!
