                               Psi4 1.4a3.dev225

  ==> Input File <==

--------------------------------------------------------------------------
#psi4
#
memory 32 gb

molecule  {
0 1
  O       -1.3267430     1.3986080    -0.4043610
  N        1.4095890     0.5516460     0.0718950
  N       -2.0120760    -0.7164460     0.1311050
  C        0.3280180    -0.2917100    -0.0638180
  C        0.8200520    -1.5979270    -0.1446940
  C        2.5591820    -0.1927100     0.0828840
  C        2.2225030    -1.5310870    -0.0531270
  C       -1.0490640     0.2229840    -0.1220780
  C        1.3786242     1.9572226     0.1767406
  C       -3.4119730    -0.3353390     0.1671430
  H        0.2239390    -2.4879400    -0.3067250
  H        3.5227950     0.2883690     0.1888050
  H        2.9194420    -2.3581700    -0.0891670
  H        0.6999810     2.3106600     0.9777950
  H        2.3913760     2.3394710     0.4091260
  H        1.0337950     2.4512300    -0.7527080
  H       -1.7260750    -1.5572290     0.6147920
  H       -4.0269330    -1.2262470     0.0275940
  H       -3.5972090     0.3657440    -0.6460440
  H       -3.6872220     0.1511560     1.1097960
units angstrom
no_reorient  #important for SAPT in psi4, default
symmetry c1  #important for SAPT in psi4, default
}

set PROPERTIES_ORIGIN ["COM"]
properties('MP2/aug-cc-pvtz', properties = ['dipole'])
--------------------------------------------------------------------------

    Molecular point group: c1
  Charge       = 0
  Multiplicity = 1
  Basis Set: AUG-CC-PVTZ
    Blend: AUG-CC-PVTZ
  Basis Set: (AUG-CC-PVTZ AUX)
    Blend: AUG-CC-PVTZ-JKFIT

    Orbital Energies [Eh]
    ---------------------

    Doubly Occupied:

       1A    -20.516540     2A    -15.621949     3A    -15.583430
       4A    -11.355540     5A    -11.268649     6A    -11.264616
       7A    -11.262289     8A    -11.257488     9A    -11.234527
      10A    -11.222214    11A     -1.373118    12A     -1.314992
      13A     -1.226165    14A     -1.089894    15A     -1.017900
      16A     -0.942428    17A     -0.935138    18A     -0.826337
      19A     -0.789958    20A     -0.763337    21A     -0.729503
      22A     -0.652836    23A     -0.643792    24A     -0.635818
      25A     -0.617376    26A     -0.592169    27A     -0.589573
      28A     -0.573732    29A     -0.552226    30A     -0.546708
      31A     -0.533360    32A     -0.526063    33A     -0.509914
      34A     -0.429478    35A     -0.393553    36A     -0.347819
      37A     -0.308302

  @DF-RHF Final Energy:  -454.81730703692944

   => Energetics <=

    Nuclear Repulsion Energy =            523.7557583737268487
    One-Electron Energy =               -1657.0486607604805158
    Two-Electron Energy =                 678.4755953498242889
    Total Energy =                       -454.8173070369293782
  Basis Set: (AUG-CC-PVTZ AUX)
    Blend: AUG-CC-PVTZ-RI
    Molecular point group: c1

    Geometry (in Angstrom), charge = 0, multiplicity = 1:

       Center              X                  Y                   Z               Mass
    ------------   -----------------  -----------------  -----------------  -----------------
         O           -1.343013420284     1.404986044275    -0.393039777625    15.994914619570
         N            1.393318579716     0.558024044275     0.083216222375    14.003074004430
         N           -2.028346420284    -0.710067955725     0.142426222375    14.003074004430
         C            0.311747579716    -0.285331955725    -0.052496777625    12.000000000000
         C            0.803781579716    -1.591548955725    -0.133372777625    12.000000000000
         C            2.542911579716    -0.186331955725     0.094205222375    12.000000000000
         C            2.206232579716    -1.524708955725    -0.041805777625    12.000000000000
         C           -1.065334420284     0.229362044275    -0.110756777625    12.000000000000
         C            1.362353779716     1.963600644275     0.188061822375    12.000000000000
         C           -3.428243420284    -0.328960955725     0.178464222375    12.000000000000
         H            0.207668579716    -2.481561955725    -0.295403777625     1.007825032230
         H            3.506524579716     0.294747044275     0.200126222375     1.007825032230
         H            2.903171579716    -2.351791955725    -0.077845777625     1.007825032230
         H            0.683710579716     2.317038044275     0.989116222375     1.007825032230
         H            2.375105579716     2.345849044275     0.420447222375     1.007825032230
         H            1.017524579716     2.457608044275    -0.741386777625     1.007825032230
         H           -1.742345420284    -1.550850955725     0.626113222375     1.007825032230
         H           -4.043203420284    -1.219868955725     0.038915222375     1.007825032230
         H           -3.613479420284     0.372122044275    -0.634722777625     1.007825032230
         H           -3.703492420284     0.157534044275     1.121117222375     1.007825032230

  Basis Set: AUG-CC-PVTZ
    Blend: AUG-CC-PVTZ
  Basis Set: (AUG-CC-PVTZ AUX)
    Blend: AUG-CC-PVTZ-JKFIT
	 Reference Energy          =    -454.8173070369294351 [Eh]
	 Singles Energy            =      -0.0000000000000000 [Eh]
	 Same-Spin Energy          =      -0.4856182609442176 [Eh]
	 Opposite-Spin Energy      =      -1.5170710794723030 [Eh]
	 Correlation Energy        =      -2.0026893404165205 [Eh]
	 Total Energy              =    -456.8199963773459444 [Eh]

	 ================> DF-SCS-MP2 Energies <==================
	-----------------------------------------------------------
	 SCS Same-Spin Scale       =       0.3333333333333333 [-]
	 SCS Opposite-Spin Scale   =       1.2000000000000000 [-]
	 SCS Same-Spin Energy      =      -0.1618727536480725 [Eh]
	 SCS Opposite-Spin Energy  =      -1.8204852953667636 [Eh]
	 SCS Correlation Energy    =      -1.9823580490148363 [Eh]
	 SCS Total Energy          =    -456.7996650859442980 [Eh]
	-----------------------------------------------------------

  Dipole Moment: [D]
     X:     0.2728      Y:    -1.3229      Z:     1.3461     Total:     1.9070

*** Psi4 exiting successfully. Buy a developer a beer!
