                               Psi4 1.3.2 release

  ==> Input File <==

--------------------------------------------------------------------------
#psi4
#
memory 32 gb

molecule  {
0 1
  O       -1.3267430     1.3986080    -0.4043610
  N        1.4095890     0.5516460     0.0718950
  N       -2.0120760    -0.7164460     0.1311050
  C        0.3280180    -0.2917100    -0.0638180
  C        0.8200520    -1.5979270    -0.1446940
  C        2.5591820    -0.1927100     0.0828840
  C        2.3221779    -1.5263366    -0.0466192
  C       -1.0490640     0.2229840    -0.1220780
  C        1.3775260     2.0070720     0.1804590
  C       -3.4119730    -0.3353390     0.1671430
  H        0.2239390    -2.4879400    -0.3067250
  H        3.5227950     0.2883690     0.1888050
  H        2.9194420    -2.3581700    -0.0891670
  H        0.6999810     2.3106600     0.9777950
  H        2.3913760     2.3394710     0.4091260
  H        1.0337950     2.4512300    -0.7527080
  H       -1.7260750    -1.5572290     0.6147920
  H       -4.0269330    -1.2262470     0.0275940
  H       -3.5972090     0.3657440    -0.6460440
  H       -3.6872220     0.1511560     1.1097960
units angstrom
no_reorient  #important for SAPT in psi4, default
symmetry c1  #important for SAPT in psi4, default
}

set PROPERTIES_ORIGIN ["COM"]
properties('MP2/aug-cc-pvtz', properties = ['dipole'])
--------------------------------------------------------------------------

    Molecular point group: c1
  Charge       = 0
  Multiplicity = 1
  Basis Set: AUG-CC-PVTZ
    Blend: AUG-CC-PVTZ
  Basis Set: (AUG-CC-PVTZ AUX)
    Blend: AUG-CC-PVTZ-JKFIT

    Orbital Energies [Eh]
    ---------------------

    Doubly Occupied:

       1A    -20.518774     2A    -15.615084     3A    -15.584378
       4A    -11.357227     5A    -11.267302     6A    -11.267219
       7A    -11.262414     8A    -11.258088     9A    -11.240553
      10A    -11.222018    11A     -1.374318    12A     -1.303251
      13A     -1.227088    14A     -1.072028    15A     -1.020543
      16A     -0.944176    17A     -0.930579    18A     -0.828829
      19A     -0.792275    20A     -0.761547    21A     -0.725229
      22A     -0.649915    23A     -0.642202    24A     -0.636091
      25A     -0.618254    26A     -0.606611    27A     -0.581507
      28A     -0.575785    29A     -0.550179    30A     -0.539973
      31A     -0.537734    32A     -0.521089    33A     -0.512526
      34A     -0.431265    35A     -0.394436    36A     -0.337214
      37A     -0.315876

  @DF-RHF Final Energy:  -454.81070570214769

   => Energetics <=

    Nuclear Repulsion Energy =            521.3838883351151026
    One-Electron Energy =               -1652.3420362387630576
    Two-Electron Energy =                 676.1474422015002119
    Total Energy =                       -454.8107057021476294
  Basis Set: (AUG-CC-PVTZ AUX)
    Blend: AUG-CC-PVTZ-RI
    Molecular point group: c1

    Geometry (in Angstrom), charge = 0, multiplicity = 1:

       Center              X                  Y                   Z               Mass
    ------------   -----------------  -----------------  -----------------  -----------------
         O           -1.351580383536     1.400240962727    -0.393928501629    15.994914619570
         N            1.384751616464     0.553278962727     0.082327498371    14.003074004430
         N           -2.036913383536    -0.714813037273     0.141537498371    14.003074004430
         C            0.303180616464    -0.290077037273    -0.053385501629    12.000000000000
         C            0.795214616464    -1.596294037273    -0.134261501629    12.000000000000
         C            2.534344616463    -0.191077037273     0.093316498371    12.000000000000
         C            2.297340516464    -1.524703637273    -0.036186701629    12.000000000000
         C           -1.073901383536     0.224616962727    -0.111645501629    12.000000000000
         C            1.352688616464     2.008704962727     0.190891498371    12.000000000000
         C           -3.436810383536    -0.333706037273     0.177575498371    12.000000000000
         H            0.199101616464    -2.486307037273    -0.296292501629     1.007825032230
         H            3.497957616464     0.290001962727     0.199237498371     1.007825032230
         H            2.894604616463    -2.356537037273    -0.078734501629     1.007825032230
         H            0.675143616464     2.312292962727     0.988227498371     1.007825032230
         H            2.366538616464     2.341103962727     0.419558498371     1.007825032230
         H            1.008957616464     2.452862962727    -0.742275501629     1.007825032230
         H           -1.750912383536    -1.555596037273     0.625224498371     1.007825032230
         H           -4.051770383536    -1.224614037273     0.038026498371     1.007825032230
         H           -3.622046383536     0.367376962727    -0.635611501629     1.007825032230
         H           -3.712059383536     0.152788962727     1.120228498371     1.007825032230

  Basis Set: AUG-CC-PVTZ
    Blend: AUG-CC-PVTZ
  Basis Set: (AUG-CC-PVTZ AUX)
    Blend: AUG-CC-PVTZ-JKFIT
	 Reference Energy          =    -454.8107057021476862 [Eh]
	 Singles Energy            =      -0.0000000000000000 [Eh]
	 Same-Spin Energy          =      -0.4840263840054042 [Eh]
	 Opposite-Spin Energy      =      -1.5164089044532090 [Eh]
	 Correlation Energy        =      -2.0004352884586130 [Eh]
	 Total Energy              =    -456.8111409906063045 [Eh]

	 ================> DF-SCS-MP2 Energies <==================
	-----------------------------------------------------------
	 SCS Same-Spin Scale       =       0.3333333333333333 [-]
	 SCS Opposite-Spin Scale   =       1.2000000000000000 [-]
	 SCS Same-Spin Energy      =      -0.1613421280018014 [Eh]
	 SCS Opposite-Spin Energy  =      -1.8196906853438506 [Eh]
	 SCS Correlation Energy    =      -1.9810328133456521 [Eh]
	 SCS Total Energy          =    -456.7917385154933640 [Eh]
	-----------------------------------------------------------

  Dipole Moment: [D]
     X:     0.1892      Y:    -1.1778      Z:     1.3527     Total:     1.8036

*** Psi4 exiting successfully. Buy a developer a beer!
