                               Psi4 1.3.2 release

  ==> Input File <==

--------------------------------------------------------------------------
#psi4
#
memory 32 gb

molecule  {
0 1
  O       -1.3267430     1.3986080    -0.4043610
  N        1.4095890     0.5516460     0.0718950
  N       -2.0120760    -0.7164460     0.1311050
  C        0.3280180    -0.2917100    -0.0638180
  C        0.8200520    -1.5979270    -0.1446940
  C        2.5591820    -0.1927100     0.0828840
  C        2.4218528    -1.5215861    -0.0401113
  C       -1.0490640     0.2229840    -0.1220780
  C        1.3775260     2.0070720     0.1804590
  C       -3.4119730    -0.3353390     0.1671430
  H        0.2239390    -2.4879400    -0.3067250
  H        3.5227950     0.2883690     0.1888050
  H        2.9194420    -2.3581700    -0.0891670
  H        0.6999810     2.3106600     0.9777950
  H        2.3913760     2.3394710     0.4091260
  H        1.0337950     2.4512300    -0.7527080
  H       -1.7260750    -1.5572290     0.6147920
  H       -4.0269330    -1.2262470     0.0275940
  H       -3.5972090     0.3657440    -0.6460440
  H       -3.6872220     0.1511560     1.1097960
units angstrom
no_reorient  #important for SAPT in psi4, default
symmetry c1  #important for SAPT in psi4, default
}

set PROPERTIES_ORIGIN ["COM"]
properties('MP2/aug-cc-pvtz', properties = ['dipole'])
--------------------------------------------------------------------------

    Molecular point group: c1
  Charge       = 0
  Multiplicity = 1
  Basis Set: AUG-CC-PVTZ
    Blend: AUG-CC-PVTZ
  Basis Set: (AUG-CC-PVTZ AUX)
    Blend: AUG-CC-PVTZ-JKFIT

    Orbital Energies [Eh]
    ---------------------

    Doubly Occupied:

       1A    -20.520786     2A    -15.610925     3A    -15.585420
       4A    -11.359068     5A    -11.270846     6A    -11.269546
       7A    -11.261882     8A    -11.258746     9A    -11.246067
      10A    -11.224934    11A     -1.375877    12A     -1.300586
      13A     -1.228144    14A     -1.064987    15A     -1.024635
      16A     -0.946679    17A     -0.925620    18A     -0.831970
      19A     -0.797587    20A     -0.762338    21A     -0.727804
      22A     -0.649680    23A     -0.642298    24A     -0.638097
      25A     -0.625118    26A     -0.615420    27A     -0.581877
      28A     -0.576821    29A     -0.551525    30A     -0.541755
      31A     -0.537519    32A     -0.512040    33A     -0.490951
      34A     -0.431445    35A     -0.395181    36A     -0.333565
      37A     -0.320736

  @DF-RHF Final Energy:  -454.78324961851780

   => Energetics <=

    Nuclear Repulsion Energy =            520.0689120529673346
    One-Electron Energy =               -1649.6273688800449690
    Two-Electron Energy =                 674.7752072085597774
    Total Energy =                       -454.7832496185178570
  Basis Set: (AUG-CC-PVTZ AUX)
    Blend: AUG-CC-PVTZ-RI
    Molecular point group: c1

    Geometry (in Angstrom), charge = 0, multiplicity = 1:

       Center              X                  Y                   Z               Mass
    ------------   -----------------  -----------------  -----------------  -----------------
         O           -1.360242787588     1.399828113048    -0.394494080921    15.994914619570
         N            1.376089212412     0.552866113048     0.081761919079    14.003074004430
         N           -2.045575787588    -0.715225886952     0.140971919079    14.003074004430
         C            0.294518212412    -0.290489886952    -0.053951080921    12.000000000000
         C            0.786552212412    -1.596706886952    -0.134827080921    12.000000000000
         C            2.525682212412    -0.191489886952     0.092750919079    12.000000000000
         C            2.388353012412    -1.520365986952    -0.030244380921    12.000000000000
         C           -1.082563787588     0.224204113048    -0.112211080921    12.000000000000
         C            1.344026212412     2.008292113048     0.190325919079    12.000000000000
         C           -3.445472787588    -0.334118886952     0.177009919079    12.000000000000
         H            0.190439212412    -2.486719886952    -0.296858080921     1.007825032230
         H            3.489295212412     0.289589113048     0.198671919079     1.007825032230
         H            2.885942212412    -2.356949886952    -0.079300080921     1.007825032230
         H            0.666481212412     2.311880113048     0.987661919079     1.007825032230
         H            2.357876212412     2.340691113048     0.418992919079     1.007825032230
         H            1.000295212412     2.452450113048    -0.742841080921     1.007825032230
         H           -1.759574787588    -1.556008886952     0.624658919079     1.007825032230
         H           -4.060432787588    -1.225026886952     0.037460919079     1.007825032230
         H           -3.630708787588     0.366964113048    -0.636177080921     1.007825032230
         H           -3.720721787588     0.152376113048     1.119662919079     1.007825032230

  Basis Set: AUG-CC-PVTZ
    Blend: AUG-CC-PVTZ
  Basis Set: (AUG-CC-PVTZ AUX)
    Blend: AUG-CC-PVTZ-JKFIT
	 Reference Energy          =    -454.7832496185178002 [Eh]
	 Singles Energy            =      -0.0000000000000000 [Eh]
	 Same-Spin Energy          =      -0.4833009001436465 [Eh]
	 Opposite-Spin Energy      =      -1.5172434338464220 [Eh]
	 Correlation Energy        =      -2.0005443339900686 [Eh]
	 Total Energy              =    -456.7837939525078923 [Eh]

	 ================> DF-SCS-MP2 Energies <==================
	-----------------------------------------------------------
	 SCS Same-Spin Scale       =       0.3333333333333333 [-]
	 SCS Opposite-Spin Scale   =       1.2000000000000000 [-]
	 SCS Same-Spin Energy      =      -0.1611003000478821 [Eh]
	 SCS Opposite-Spin Energy  =      -1.8206921206157063 [Eh]
	 SCS Correlation Energy    =      -1.9817924206635884 [Eh]
	 SCS Total Energy          =    -456.7650420391813668 [Eh]
	-----------------------------------------------------------

  Dipole Moment: [D]
     X:     0.0807      Y:    -1.1763      Z:     1.3467     Total:     1.7899

*** Psi4 exiting successfully. Buy a developer a beer!
