                               Psi4 1.3.2 release

  ==> Input File <==

--------------------------------------------------------------------------
#psi4
#
memory 32 gb

molecule  {
0 1
  O       -1.3267430     1.3986080    -0.4043610
  N        1.4095890     0.5516460     0.0718950
  N       -2.0120760    -0.7164460     0.1311050
  C        0.2990142    -0.2533530    -0.0625052
  C        0.8200520    -1.5979270    -0.1446940
  C        2.5591820    -0.1927100     0.0828840
  C        2.2225030    -1.5310870    -0.0531270
  C       -1.0490640     0.2229840    -0.1220780
  C        1.3775260     2.0070720     0.1804590
  C       -3.4119730    -0.3353390     0.1671430
  H        0.2239390    -2.4879400    -0.3067250
  H        3.5227950     0.2883690     0.1888050
  H        2.9194420    -2.3581700    -0.0891670
  H        0.6999810     2.3106600     0.9777950
  H        2.3913760     2.3394710     0.4091260
  H        1.0337950     2.4512300    -0.7527080
  H       -1.7260750    -1.5572290     0.6147920
  H       -4.0269330    -1.2262470     0.0275940
  H       -3.5972090     0.3657440    -0.6460440
  H       -3.6872220     0.1511560     1.1097960
units angstrom
no_reorient  #important for SAPT in psi4, default
symmetry c1  #important for SAPT in psi4, default
}

set PROPERTIES_ORIGIN ["COM"]
properties('MP2/aug-cc-pvtz', properties = ['dipole'])
--------------------------------------------------------------------------

    Molecular point group: c1
  Charge       = 0
  Multiplicity = 1
  Basis Set: AUG-CC-PVTZ
    Blend: AUG-CC-PVTZ
  Basis Set: (AUG-CC-PVTZ AUX)
    Blend: AUG-CC-PVTZ-JKFIT

    Orbital Energies [Eh]
    ---------------------

    Doubly Occupied:

       1A    -20.512595     2A    -15.625486     3A    -15.581279
       4A    -11.350449     5A    -11.270120     6A    -11.263415
       7A    -11.263099     8A    -11.256263     9A    -11.239164
      10A    -11.223504    11A     -1.371671    12A     -1.306422
      13A     -1.224361    14A     -1.079073    15A     -1.020955
      16A     -0.940887    17A     -0.937219    18A     -0.832507
      19A     -0.786020    20A     -0.762163    21A     -0.723784
      22A     -0.654107    23A     -0.643077    24A     -0.634308
      25A     -0.616667    26A     -0.593238    27A     -0.579221
      28A     -0.575629    29A     -0.550768    30A     -0.546116
      31A     -0.537499    32A     -0.528166    33A     -0.511903
      34A     -0.429180    35A     -0.392019    36A     -0.348032
      37A     -0.304004

  @DF-RHF Final Energy:  -454.81450809037489

   => Energetics <=

    Nuclear Repulsion Energy =            522.8248024738227286
    One-Electron Energy =               -1655.2498756209326984
    Two-Electron Energy =                 677.6105650567351404
    Total Energy =                       -454.8145080903748294
  Basis Set: (AUG-CC-PVTZ AUX)
    Blend: AUG-CC-PVTZ-RI
    Molecular point group: c1

    Geometry (in Angstrom), charge = 0, multiplicity = 1:

       Center              X                  Y                   Z               Mass
    ------------   -----------------  -----------------  -----------------  -----------------
         O           -1.340397358600     1.397320328264    -0.393477021979    15.994914619570
         N            1.395934641400     0.550358328264     0.082778978021    14.003074004430
         N           -2.025730358600    -0.717733671736     0.141988978021    14.003074004430
         C            0.285359841400    -0.254640671736    -0.051621221979    12.000000000000
         C            0.806397641400    -1.599214671736    -0.133810021979    12.000000000000
         C            2.545527641400    -0.193997671736     0.093767978021    12.000000000000
         C            2.208848641400    -1.532374671736    -0.042243021979    12.000000000000
         C           -1.062718358600     0.221696328264    -0.111194021979    12.000000000000
         C            1.363871641400     2.005784328264     0.191342978021    12.000000000000
         C           -3.425627358600    -0.336626671736     0.178026978021    12.000000000000
         H            0.210284641400    -2.489227671736    -0.295841021979     1.007825032230
         H            3.509140641400     0.287081328264     0.199688978021     1.007825032230
         H            2.905787641400    -2.359457671736    -0.078283021979     1.007825032230
         H            0.686326641400     2.309372328264     0.988678978021     1.007825032230
         H            2.377721641400     2.338183328264     0.420009978021     1.007825032230
         H            1.020140641400     2.449942328264    -0.741824021979     1.007825032230
         H           -1.739729358600    -1.558516671736     0.625675978021     1.007825032230
         H           -4.040587358600    -1.227534671736     0.038477978021     1.007825032230
         H           -3.610863358600     0.364456328264    -0.635160021979     1.007825032230
         H           -3.700876358600     0.149868328264     1.120679978021     1.007825032230

  Basis Set: AUG-CC-PVTZ
    Blend: AUG-CC-PVTZ
  Basis Set: (AUG-CC-PVTZ AUX)
    Blend: AUG-CC-PVTZ-JKFIT
	 Reference Energy          =    -454.8145080903748863 [Eh]
	 Singles Energy            =      -0.0000000000000000 [Eh]
	 Same-Spin Energy          =      -0.4862586950541241 [Eh]
	 Opposite-Spin Energy      =      -1.5183724633152855 [Eh]
	 Correlation Energy        =      -2.0046311583694099 [Eh]
	 Total Energy              =    -456.8191392487443068 [Eh]

	 ================> DF-SCS-MP2 Energies <==================
	-----------------------------------------------------------
	 SCS Same-Spin Scale       =       0.3333333333333333 [-]
	 SCS Opposite-Spin Scale   =       1.2000000000000000 [-]
	 SCS Same-Spin Energy      =      -0.1620862316847080 [Eh]
	 SCS Opposite-Spin Energy  =      -1.8220469559783425 [Eh]
	 SCS Correlation Energy    =      -1.9841331876630506 [Eh]
	 SCS Total Energy          =    -456.7986412780379624 [Eh]
	-----------------------------------------------------------

  Dipole Moment: [D]
     X:     0.4627      Y:    -1.2064      Z:     1.3678     Total:     1.8816

*** Psi4 exiting successfully. Buy a developer a beer!
