                               Psi4 1.3.2 release

  ==> Input File <==

--------------------------------------------------------------------------
#psi4
#
memory 32 gb

molecule  {
0 1
  O       -1.3267430     1.3986080    -0.4043610
  N        1.4095890     0.5516460     0.0718950
  N       -2.0120760    -0.7164460     0.1311050
  C        0.2451594    -0.1736712    -0.0603244
  C        0.8200520    -1.5979270    -0.1446940
  C        2.5591820    -0.1927100     0.0828840
  C        2.2225030    -1.5310870    -0.0531270
  C       -1.0490640     0.2229840    -0.1220780
  C        1.3775260     2.0070720     0.1804590
  C       -3.4119730    -0.3353390     0.1671430
  H        0.2239390    -2.4879400    -0.3067250
  H        3.5227950     0.2883690     0.1888050
  H        2.9194420    -2.3581700    -0.0891670
  H        0.6999810     2.3106600     0.9777950
  H        2.3913760     2.3394710     0.4091260
  H        1.0337950     2.4512300    -0.7527080
  H       -1.7260750    -1.5572290     0.6147920
  H       -4.0269330    -1.2262470     0.0275940
  H       -3.5972090     0.3657440    -0.6460440
  H       -3.6872220     0.1511560     1.1097960
units angstrom
no_reorient  #important for SAPT in psi4, default
symmetry c1  #important for SAPT in psi4, default
}

set PROPERTIES_ORIGIN ["COM"]
properties('MP2/aug-cc-pvtz', properties = ['dipole'])
--------------------------------------------------------------------------

    Molecular point group: c1
  Charge       = 0
  Multiplicity = 1
  Basis Set: AUG-CC-PVTZ
    Blend: AUG-CC-PVTZ
  Basis Set: (AUG-CC-PVTZ AUX)
    Blend: AUG-CC-PVTZ-JKFIT

    Orbital Energies [Eh]
    ---------------------

    Doubly Occupied:

       1A    -20.504050     2A    -15.634892     3A    -15.577116
       4A    -11.339488     5A    -11.277485     6A    -11.263573
       7A    -11.262825     8A    -11.253838     9A    -11.250925
      10A    -11.229838    11A     -1.370090    12A     -1.306505
      13A     -1.220700    14A     -1.076049    15A     -1.030525
      16A     -0.940154    17A     -0.935601    18A     -0.847186
      19A     -0.785469    20A     -0.760645    21A     -0.721709
      22A     -0.662634    23A     -0.644963    24A     -0.632708
      25A     -0.615384    26A     -0.592862    27A     -0.583663
      28A     -0.573528    29A     -0.552097    30A     -0.543148
      31A     -0.538208    32A     -0.513893    33A     -0.507571
      34A     -0.424615    35A     -0.388675    36A     -0.351193
      37A     -0.297759

  @DF-RHF Final Energy:  -454.78578406510059

   => Energetics <=

    Nuclear Repulsion Energy =            523.0791293839756690
    One-Electron Energy =               -1655.7067003215736349
    Two-Electron Energy =                 677.8417868724974369
    Total Energy =                       -454.7857840651005290
  Basis Set: (AUG-CC-PVTZ AUX)
    Blend: AUG-CC-PVTZ-RI
    Molecular point group: c1

    Geometry (in Angstrom), charge = 0, multiplicity = 1:

       Center              X                  Y                   Z               Mass
    ------------   -----------------  -----------------  -----------------  -----------------
         O           -1.335717022449     1.390395456033    -0.393666547835    15.994914619570
         N            1.400614977551     0.543433456033     0.082589452165    14.003074004430
         N           -2.021050022449    -0.724658543967     0.141799452165    14.003074004430
         C            0.236185377551    -0.181883743967    -0.049629947835    12.000000000000
         C            0.811077977551    -1.606139543967    -0.133999547835    12.000000000000
         C            2.550207977551    -0.200922543967     0.093578452165    12.000000000000
         C            2.213528977551    -1.539299543967    -0.042432547835    12.000000000000
         C           -1.058038022449     0.214771456033    -0.111383547835    12.000000000000
         C            1.368551977551     1.998859456033     0.191153452165    12.000000000000
         C           -3.420947022449    -0.343551543967     0.177837452165    12.000000000000
         H            0.214964977551    -2.496152543967    -0.296030547835     1.007825032230
         H            3.513820977551     0.280156456033     0.199499452165     1.007825032230
         H            2.910467977551    -2.366382543967    -0.078472547835     1.007825032230
         H            0.691006977551     2.302447456033     0.988489452165     1.007825032230
         H            2.382401977551     2.331258456033     0.419820452165     1.007825032230
         H            1.024820977551     2.443017456033    -0.742013547835     1.007825032230
         H           -1.735049022449    -1.565441543967     0.625486452165     1.007825032230
         H           -4.035907022449    -1.234459543967     0.038288452165     1.007825032230
         H           -3.606183022449     0.357531456033    -0.635349547835     1.007825032230
         H           -3.696196022449     0.142943456033     1.120490452165     1.007825032230

  Basis Set: AUG-CC-PVTZ
    Blend: AUG-CC-PVTZ
  Basis Set: (AUG-CC-PVTZ AUX)
    Blend: AUG-CC-PVTZ-JKFIT
	 Reference Energy          =    -454.7857840651005858 [Eh]
	 Singles Energy            =      -0.0000000000000000 [Eh]
	 Same-Spin Energy          =      -0.4886829082479184 [Eh]
	 Opposite-Spin Energy      =      -1.5224464995881819 [Eh]
	 Correlation Energy        =      -2.0111294078361004 [Eh]
	 Total Energy              =    -456.7969134729366942 [Eh]

	 ================> DF-SCS-MP2 Energies <==================
	-----------------------------------------------------------
	 SCS Same-Spin Scale       =       0.3333333333333333 [-]
	 SCS Opposite-Spin Scale   =       1.2000000000000000 [-]
	 SCS Same-Spin Energy      =      -0.1628943027493061 [Eh]
	 SCS Opposite-Spin Energy  =      -1.8269357995058182 [Eh]
	 SCS Correlation Energy    =      -1.9898301022551244 [Eh]
	 SCS Total Energy          =    -456.7756141673556840 [Eh]
	-----------------------------------------------------------

  Dipole Moment: [D]
     X:     0.7977      Y:    -1.2491      Z:     1.3841     Total:     2.0279

*** Psi4 exiting successfully. Buy a developer a beer!
