                               Psi4 1.3.2 release

  ==> Input File <==

--------------------------------------------------------------------------
#psi4
#
memory 32 gb

molecule  {
0 1
  O        3.1477550    -1.4485350    -0.2143050
  N        0.9062980    -1.2504610    -0.5893500
  N        1.5545360     1.4658350     0.3351760
  C       -0.6961080     0.5074870     0.0337420
  C       -0.3911060    -0.8453020    -0.2363150
  C        0.2220138     1.6672062    -0.0516875
  C        1.9201190     0.2388570     1.0398190
  C       -2.0282860     0.8425430     0.3372020
  C       -1.4126000    -1.8085370    -0.2310830
  C        2.0871850    -0.8915250     0.0446260
  C       -0.0584500     2.8482670    -0.7690020
  C       -3.0319510    -0.1194250     0.3623450
  C       -2.7230760    -1.4503270     0.0616580
  H        0.9974690    -2.0891180    -1.1576180
  H        1.1650960    -0.0456930     1.7889680
  H        2.8821530     0.3846540     1.5322680
  H       -2.2754030     1.8777800     0.5574090
  H       -1.1609050    -2.8458310    -0.4446670
  H       -0.7945500     3.4046450    -0.1790500
  H       -0.5037450     2.6486950    -1.7485080
  H        0.8332190     3.4662990    -0.8854880
  H       -4.0517820     0.1644530     0.6082680
  H       -3.5008180    -2.2099170     0.0672390
units angstrom
no_reorient  #important for SAPT in psi4, default
symmetry c1  #important for SAPT in psi4, default
}

set PROPERTIES_ORIGIN ["COM"]
properties('MP2/aug-cc-pvtz', properties = ['dipole'])
--------------------------------------------------------------------------

    Molecular point group: c1
  Charge       = 0
  Multiplicity = 1
  Basis Set: AUG-CC-PVTZ
    Blend: AUG-CC-PVTZ
  Basis Set: (AUG-CC-PVTZ AUX)
    Blend: AUG-CC-PVTZ-JKFIT

    Orbital Energies [Eh]
    ---------------------

    Doubly Occupied:

       1A    -20.530109     2A    -15.606123     3A    -15.570690
       4A    -11.360176     5A    -11.317960     6A    -11.313263
       7A    -11.269090     8A    -11.266303     9A    -11.265245
      10A    -11.263889    11A    -11.259663    12A    -11.253408
      13A    -11.236065    14A     -1.385224    15A     -1.270589
      16A     -1.206110    17A     -1.164295    18A     -1.075638
      19A     -1.036209    20A     -1.021979    21A     -0.942886
      22A     -0.886091    23A     -0.858639    24A     -0.793372
      25A     -0.768966    26A     -0.729808    27A     -0.687007
      28A     -0.674796    29A     -0.655004    30A     -0.650961
      31A     -0.628826    32A     -0.620653    33A     -0.603238
      34A     -0.596053    35A     -0.571055    36A     -0.565367
      37A     -0.539527    38A     -0.535688    39A     -0.524988
      40A     -0.524021    41A     -0.447403    42A     -0.442819
      43A     -0.412301    44A     -0.390359    45A     -0.346914
      46A     -0.331748

  @DF-RHF Final Energy:  -568.43157810250784

   => Energetics <=

    Nuclear Repulsion Energy =            759.2749812801113194
    One-Electron Energy =               -2278.6120839851159872
    Two-Electron Energy =                 950.9055246024969392
    Total Energy =                       -568.4315781025078422
  Basis Set: (AUG-CC-PVTZ AUX)
    Blend: AUG-CC-PVTZ-RI
    Molecular point group: c1

    Geometry (in Angstrom), charge = 0, multiplicity = 1:

       Center              X                  Y                   Z               Mass
    ------------   -----------------  -----------------  -----------------  -----------------
         O            3.119027956647    -1.428491362800    -0.215732819107    15.994914619570
         N            0.877570956647    -1.230417362800    -0.590777819107    14.003074004430
         N            1.525808956647     1.485878637200     0.333748180893    14.003074004430
         C           -0.724835043353     0.527530637200     0.032314180893    12.000000000000
         C           -0.419833043353    -0.825258362800    -0.237742819107    12.000000000000
         C            0.193286756647     1.687249837200    -0.053115319107    12.000000000000
         C            1.891391956647     0.258900637200     1.038391180893    12.000000000000
         C           -2.057013043353     0.862586637200     0.335774180893    12.000000000000
         C           -1.441327043353    -1.788493362800    -0.232510819107    12.000000000000
         C            2.058457956647    -0.871481362800     0.043198180893    12.000000000000
         C           -0.087177043353     2.868310637200    -0.770429819107    12.000000000000
         C           -3.060678043353    -0.099381362800     0.360917180893    12.000000000000
         C           -2.751803043353    -1.430283362800     0.060230180893    12.000000000000
         H            0.968741956647    -2.069074362800    -1.159045819107     1.007825032230
         H            1.136368956647    -0.025649362800     1.787540180893     1.007825032230
         H            2.853425956647     0.404697637200     1.530840180893     1.007825032230
         H           -2.304130043353     1.897823637200     0.555981180893     1.007825032230
         H           -1.189632043353    -2.825787362800    -0.446094819107     1.007825032230
         H           -0.823277043353     3.424688637200    -0.180477819107     1.007825032230
         H           -0.532472043353     2.668738637200    -1.749935819107     1.007825032230
         H            0.804491956647     3.486342637200    -0.886915819107     1.007825032230
         H           -4.080509043353     0.184496637200     0.606840180893     1.007825032230
         H           -3.529545043353    -2.189873362800     0.065811180893     1.007825032230

  Basis Set: AUG-CC-PVTZ
    Blend: AUG-CC-PVTZ
  Basis Set: (AUG-CC-PVTZ AUX)
    Blend: AUG-CC-PVTZ-JKFIT
	 Reference Energy          =    -568.4315781025078422 [Eh]
	 Singles Energy            =      -0.0000000000000000 [Eh]
	 Same-Spin Energy          =      -0.6184853681195375 [Eh]
	 Opposite-Spin Energy      =      -1.8945030014899431 [Eh]
	 Correlation Energy        =      -2.5129883696094808 [Eh]
	 Total Energy              =    -570.9445664721173443 [Eh]

	 ================> DF-SCS-MP2 Energies <==================
	-----------------------------------------------------------
	 SCS Same-Spin Scale       =       0.3333333333333333 [-]
	 SCS Opposite-Spin Scale   =       1.2000000000000000 [-]
	 SCS Same-Spin Energy      =      -0.2061617893731791 [Eh]
	 SCS Opposite-Spin Energy  =      -2.2734036017879315 [Eh]
	 SCS Correlation Energy    =      -2.4795653911611106 [Eh]
	 SCS Total Energy          =    -570.9111434936689875 [Eh]
	-----------------------------------------------------------

  Dipole Moment: [D]
     X:    -5.2303      Y:    -0.1006      Z:     0.0811     Total:     5.2319

*** Psi4 exiting successfully. Buy a developer a beer!
