                               Psi4 1.4a3.dev225

  ==> Input File <==

--------------------------------------------------------------------------
#psi4
#
memory 32 gb

molecule  {
0 1
  O        3.1477550    -1.4485350    -0.2143050
  N        0.9062980    -1.2504610    -0.5893500
  N        1.5545360     1.4658350     0.3351760
  C       -0.6961080     0.5074870     0.0337420
  C       -0.3911060    -0.8453020    -0.2363150
  C        0.3345050     1.5654110    -0.0838510
  C        1.9201190     0.2388570     1.0398190
  C       -2.0282860     0.8425430     0.3372020
  C       -1.4126000    -1.8085370    -0.2310830
  C        2.0871850    -0.8915250     0.0446260
  C       -0.0636668     2.8652979    -0.7780979
  C       -3.0319510    -0.1194250     0.3623450
  C       -2.7230760    -1.4503270     0.0616580
  H        0.9974690    -2.0891180    -1.1576180
  H        1.1650960    -0.0456930     1.7889680
  H        2.8821530     0.3846540     1.5322680
  H       -2.2754030     1.8777800     0.5574090
  H       -1.1609050    -2.8458310    -0.4446670
  H       -0.7945500     3.4046450    -0.1790500
  H       -0.5037450     2.6486950    -1.7485080
  H        0.8332190     3.4662990    -0.8854880
  H       -4.0517820     0.1644530     0.6082680
  H       -3.5008180    -2.2099170     0.0672390
units angstrom
no_reorient  #important for SAPT in psi4, default
symmetry c1  #important for SAPT in psi4, default
}

set PROPERTIES_ORIGIN ["COM"]
properties('MP2/aug-cc-pvtz', properties = ['dipole'])
--------------------------------------------------------------------------

    Molecular point group: c1
  Charge       = 0
  Multiplicity = 1
  Basis Set: AUG-CC-PVTZ
    Blend: AUG-CC-PVTZ
  Basis Set: (AUG-CC-PVTZ AUX)
    Blend: AUG-CC-PVTZ-JKFIT

    Orbital Energies [Eh]
    ---------------------

    Doubly Occupied:

       1A    -20.532264     2A    -15.607059     3A    -15.567108
       4A    -11.362605     5A    -11.314413     6A    -11.303159
       7A    -11.267101     8A    -11.266872     9A    -11.265690
      10A    -11.265463    11A    -11.258284    12A    -11.253788
      13A    -11.233759    14A     -1.387501    15A     -1.275875
      16A     -1.232273    17A     -1.164527    18A     -1.064633
      19A     -1.035116    20A     -1.010141    21A     -0.951916
      22A     -0.885963    23A     -0.858123    24A     -0.795278
      25A     -0.767982    26A     -0.728612    27A     -0.690947
      28A     -0.677747    29A     -0.657363    30A     -0.648164
      31A     -0.626296    32A     -0.616336    33A     -0.604565
      34A     -0.588436    35A     -0.566990    36A     -0.560132
      37A     -0.545230    38A     -0.538270    39A     -0.528372
      40A     -0.514016    41A     -0.458012    42A     -0.444589
      43A     -0.417203    44A     -0.405508    45A     -0.354918
      46A     -0.332230

  @DF-RHF Final Energy:  -568.46543900532151

   => Energetics <=

    Nuclear Repulsion Energy =            760.3356518990144650
    One-Electron Energy =               -2280.7405224436893150
    Two-Electron Energy =                 951.9394315393533361
    Total Energy =                       -568.4654390053215138
  Basis Set: (AUG-CC-PVTZ AUX)
    Blend: AUG-CC-PVTZ-RI
    Molecular point group: c1

    Geometry (in Angstrom), charge = 0, multiplicity = 1:

       Center              X                  Y                   Z               Mass
    ------------   -----------------  -----------------  -----------------  -----------------
         O            3.111633092903    -1.422648212441    -0.212888639684    15.994914619570
         N            0.870176092903    -1.224574212441    -0.587933639684    14.003074004430
         N            1.518414092903     1.491721787559     0.336592360316    14.003074004430
         C           -0.732229907097     0.533373787559     0.035158360316    12.000000000000
         C           -0.427227907097    -0.819415212441    -0.234898639684    12.000000000000
         C            0.298383092903     1.591297787559    -0.082434639684    12.000000000000
         C            1.883997092903     0.264743787559     1.041235360316    12.000000000000
         C           -2.064407907097     0.868429787559     0.338618360316    12.000000000000
         C           -1.448721907097    -1.782650212441    -0.229666639684    12.000000000000
         C            2.051063092903    -0.865638212441     0.046042360316    12.000000000000
         C           -0.099788707097     2.891184687559    -0.776681539684    12.000000000000
         C           -3.068072907097    -0.093538212441     0.363761360316    12.000000000000
         C           -2.759197907097    -1.424440212441     0.063074360316    12.000000000000
         H            0.961347092903    -2.063231212441    -1.156201639684     1.007825032230
         H            1.128974092903    -0.019806212441     1.790384360316     1.007825032230
         H            2.846031092903     0.410540787559     1.533684360316     1.007825032230
         H           -2.311524907097     1.903666787559     0.558825360316     1.007825032230
         H           -1.197026907097    -2.819944212441    -0.443250639684     1.007825032230
         H           -0.830671907097     3.430531787559    -0.177633639684     1.007825032230
         H           -0.539866907097     2.674581787559    -1.747091639684     1.007825032230
         H            0.797097092903     3.492185787559    -0.884071639684     1.007825032230
         H           -4.087903907097     0.190339787559     0.609684360316     1.007825032230
         H           -3.536939907097    -2.184030212441     0.068655360316     1.007825032230

  Basis Set: AUG-CC-PVTZ
    Blend: AUG-CC-PVTZ
  Basis Set: (AUG-CC-PVTZ AUX)
    Blend: AUG-CC-PVTZ-JKFIT
	 Reference Energy          =    -568.4654390053215138 [Eh]
	 Singles Energy            =      -0.0000000000000000 [Eh]
	 Same-Spin Energy          =      -0.6143177376325418 [Eh]
	 Opposite-Spin Energy      =      -1.8870681173478445 [Eh]
	 Correlation Energy        =      -2.5013858549803865 [Eh]
	 Total Energy              =    -570.9668248603019265 [Eh]

	 ================> DF-SCS-MP2 Energies <==================
	-----------------------------------------------------------
	 SCS Same-Spin Scale       =       0.3333333333333333 [-]
	 SCS Opposite-Spin Scale   =       1.2000000000000000 [-]
	 SCS Same-Spin Energy      =      -0.2047725792108473 [Eh]
	 SCS Opposite-Spin Energy  =      -2.2644817408174132 [Eh]
	 SCS Correlation Energy    =      -2.4692543200282606 [Eh]
	 SCS Total Energy          =    -570.9346933253498264 [Eh]
	-----------------------------------------------------------

  Dipole Moment: [D]
     X:    -5.1090      Y:    -0.2575      Z:     0.2342     Total:     5.1208

*** Psi4 exiting successfully. Buy a developer a beer!
