                               Psi4 1.3.2 release

  ==> Input File <==

--------------------------------------------------------------------------
#psi4
#
memory 32 gb

molecule  {
0 1
  O        3.1477550    -1.4485350    -0.2143050
  N        0.9062980    -1.2504610    -0.5893500
  N        1.5545360     1.4658350     0.3351760
  C       -0.6961080     0.5074870     0.0337420
  C       -0.3911060    -0.8453020    -0.2363150
  C        0.3256162     1.5518894    -0.1045751
  C        1.9201190     0.2388570     1.0398190
  C       -2.0282860     0.8425430     0.3372020
  C       -1.4126000    -1.8085370    -0.2310830
  C        2.0871850    -0.8915250     0.0446260
  C       -0.0584500     2.8482670    -0.7690020
  C       -3.0319510    -0.1194250     0.3623450
  C       -2.7230760    -1.4503270     0.0616580
  H        0.9974690    -2.0891180    -1.1576180
  H        1.1650960    -0.0456930     1.7889680
  H        2.8821530     0.3846540     1.5322680
  H       -2.2754030     1.8777800     0.5574090
  H       -1.1609050    -2.8458310    -0.4446670
  H       -0.7945500     3.4046450    -0.1790500
  H       -0.5037450     2.6486950    -1.7485080
  H        0.8332190     3.4662990    -0.8854880
  H       -4.0517820     0.1644530     0.6082680
  H       -3.5008180    -2.2099170     0.0672390
units angstrom
no_reorient  #important for SAPT in psi4, default
symmetry c1  #important for SAPT in psi4, default
}

set PROPERTIES_ORIGIN ["COM"]
properties('MP2/aug-cc-pvtz', properties = ['dipole'])
--------------------------------------------------------------------------

    Molecular point group: c1
  Charge       = 0
  Multiplicity = 1
  Basis Set: AUG-CC-PVTZ
    Blend: AUG-CC-PVTZ
  Basis Set: (AUG-CC-PVTZ AUX)
    Blend: AUG-CC-PVTZ-JKFIT

    Orbital Energies [Eh]
    ---------------------

    Doubly Occupied:

       1A    -20.532027     2A    -15.607209     3A    -15.567967
       4A    -11.362353     5A    -11.315011     6A    -11.303187
       7A    -11.267399     8A    -11.266173     9A    -11.266138
      10A    -11.265588    11A    -11.258621    12A    -11.254271
      13A    -11.234415    14A     -1.387303    15A     -1.275636
      16A     -1.229037    17A     -1.165205    18A     -1.067105
      19A     -1.035443    20A     -1.011033    21A     -0.949698
      22A     -0.887694    23A     -0.858623    24A     -0.795659
      25A     -0.768969    26A     -0.729499    27A     -0.691038
      28A     -0.677256    29A     -0.658193    30A     -0.648367
      31A     -0.626498    32A     -0.617518    33A     -0.604323
      34A     -0.586555    35A     -0.566893    36A     -0.559215
      37A     -0.542975    38A     -0.538985    39A     -0.527823
      40A     -0.515590    41A     -0.456589    42A     -0.444651
      43A     -0.417979    44A     -0.404521    45A     -0.354184
      46A     -0.332486

  @DF-RHF Final Energy:  -568.46352717763182

   => Energetics <=

    Nuclear Repulsion Energy =            760.8353127954379715
    One-Electron Energy =               -2281.7318741988069632
    Two-Electron Energy =                 952.4330342257372877
    Total Energy =                       -568.4635271776318177
  Basis Set: (AUG-CC-PVTZ AUX)
    Blend: AUG-CC-PVTZ-RI
    Molecular point group: c1

    Geometry (in Angstrom), charge = 0, multiplicity = 1:

       Center              X                  Y                   Z               Mass
    ------------   -----------------  -----------------  -----------------  -----------------
         O            3.111886218902    -1.420542103485    -0.212087060233    15.994914619570
         N            0.870429218902    -1.222468103485    -0.587132060233    14.003074004430
         N            1.518667218902     1.493827896515     0.337393939767    14.003074004430
         C           -0.731976781098     0.535479896515     0.035959939767    12.000000000000
         C           -0.426974781098    -0.817309103485    -0.234097060233    12.000000000000
         C            0.289747418902     1.579882296515    -0.102357160233    12.000000000000
         C            1.884250218902     0.266849896515     1.042036939767    12.000000000000
         C           -2.064154781098     0.870535896515     0.339419939767    12.000000000000
         C           -1.448468781098    -1.780544103485    -0.228865060233    12.000000000000
         C            2.051316218902    -0.863532103485     0.046843939767    12.000000000000
         C           -0.094318781098     2.876259896515    -0.766784060233    12.000000000000
         C           -3.067819781098    -0.091432103485     0.364562939767    12.000000000000
         C           -2.758944781098    -1.422334103485     0.063875939767    12.000000000000
         H            0.961600218902    -2.061125103485    -1.155400060233     1.007825032230
         H            1.129227218902    -0.017700103485     1.791185939767     1.007825032230
         H            2.846284218902     0.412646896515     1.534485939767     1.007825032230
         H           -2.311271781098     1.905772896515     0.559626939767     1.007825032230
         H           -1.196773781098    -2.817838103485    -0.442449060233     1.007825032230
         H           -0.830418781098     3.432637896515    -0.176832060233     1.007825032230
         H           -0.539613781098     2.676687896515    -1.746290060233     1.007825032230
         H            0.797350218902     3.494291896515    -0.883270060233     1.007825032230
         H           -4.087650781098     0.192445896515     0.610485939767     1.007825032230
         H           -3.536686781098    -2.181924103485     0.069456939767     1.007825032230

  Basis Set: AUG-CC-PVTZ
    Blend: AUG-CC-PVTZ
  Basis Set: (AUG-CC-PVTZ AUX)
    Blend: AUG-CC-PVTZ-JKFIT
	 Reference Energy          =    -568.4635271776318177 [Eh]
	 Singles Energy            =      -0.0000000000000000 [Eh]
	 Same-Spin Energy          =      -0.6149791795180179 [Eh]
	 Opposite-Spin Energy      =      -1.8880814586812134 [Eh]
	 Correlation Energy        =      -2.5030606381992313 [Eh]
	 Total Energy              =    -570.9665878158310761 [Eh]

	 ================> DF-SCS-MP2 Energies <==================
	-----------------------------------------------------------
	 SCS Same-Spin Scale       =       0.3333333333333333 [-]
	 SCS Opposite-Spin Scale   =       1.2000000000000000 [-]
	 SCS Same-Spin Energy      =      -0.2049930598393393 [Eh]
	 SCS Opposite-Spin Energy  =      -2.2656977504174560 [Eh]
	 SCS Correlation Energy    =      -2.4706908102567953 [Eh]
	 SCS Total Energy          =    -570.9342179878885872 [Eh]
	-----------------------------------------------------------

  Dipole Moment: [D]
     X:    -5.1467      Y:    -0.2648      Z:     0.2230     Total:     5.1583

*** Psi4 exiting successfully. Buy a developer a beer!
