                               Psi4 1.3.2 release

  ==> Input File <==

--------------------------------------------------------------------------
#psi4
#
memory 32 gb

molecule  {
0 1
  O        3.1477550    -1.4485350    -0.2143050
  N        0.9062980    -1.2504610    -0.5893500
  N        1.5545360     1.4658350     0.3351760
  C       -0.6961080     0.5074870     0.0337420
  C       -0.3911060    -0.8453020    -0.2363150
  C        0.3345050     1.5654110    -0.0838510
  C        1.9201190     0.2388570     1.0398190
  C       -2.0282860     0.8425430     0.3372020
  C       -1.4126000    -1.8085370    -0.2310830
  C        2.1737192    -0.9369727     0.0234993
  C       -0.0584500     2.8482670    -0.7690020
  C       -3.0319510    -0.1194250     0.3623450
  C       -2.7230760    -1.4503270     0.0616580
  H        0.9974690    -2.0891180    -1.1576180
  H        1.1650960    -0.0456930     1.7889680
  H        2.8821530     0.3846540     1.5322680
  H       -2.2754030     1.8777800     0.5574090
  H       -1.1609050    -2.8458310    -0.4446670
  H       -0.7945500     3.4046450    -0.1790500
  H       -0.5037450     2.6486950    -1.7485080
  H        0.8332190     3.4662990    -0.8854880
  H       -4.0517820     0.1644530     0.6082680
  H       -3.5008180    -2.2099170     0.0672390
units angstrom
no_reorient  #important for SAPT in psi4, default
symmetry c1  #important for SAPT in psi4, default
}

set PROPERTIES_ORIGIN ["COM"]
properties('MP2/aug-cc-pvtz', properties = ['dipole'])
--------------------------------------------------------------------------

    Molecular point group: c1
  Charge       = 0
  Multiplicity = 1
  Basis Set: AUG-CC-PVTZ
    Blend: AUG-CC-PVTZ
  Basis Set: (AUG-CC-PVTZ AUX)
    Blend: AUG-CC-PVTZ-JKFIT

    Orbital Energies [Eh]
    ---------------------

    Doubly Occupied:

       1A    -20.552852     2A    -15.593173     3A    -15.562675
       4A    -11.360075     5A    -11.309572     6A    -11.297656
       7A    -11.263789     8A    -11.261703     9A    -11.260651
      10A    -11.259573    11A    -11.252418    12A    -11.248308
      13A    -11.230841    14A     -1.462451    15A     -1.267549
      16A     -1.223901    17A     -1.157349    18A     -1.059161
      19A     -1.027211    20A     -1.003933    21A     -0.940973
      22A     -0.877605    23A     -0.852028    24A     -0.783509
      25A     -0.761615    26A     -0.721276    27A     -0.696140
      28A     -0.685177    29A     -0.657738    30A     -0.645718
      31A     -0.633089    32A     -0.618848    33A     -0.606683
      34A     -0.589945    35A     -0.582546    36A     -0.554759
      37A     -0.539870    38A     -0.536908    39A     -0.532349
      40A     -0.510897    41A     -0.464542    42A     -0.451609
      43A     -0.413274    44A     -0.397251    45A     -0.349144
      46A     -0.325771

  @DF-RHF Final Energy:  -568.45418387577388

   => Energetics <=

    Nuclear Repulsion Energy =            760.1143001199473019
    One-Electron Energy =               -2280.3687631715238240
    Two-Electron Energy =                 951.8002791758026433
    Total Energy =                       -568.4541838757738788
  Basis Set: (AUG-CC-PVTZ AUX)
    Blend: AUG-CC-PVTZ-RI
    Molecular point group: c1

    Geometry (in Angstrom), charge = 0, multiplicity = 1:

       Center              X                  Y                   Z               Mass
    ------------   -----------------  -----------------  -----------------  -----------------
         O            3.105308320698    -1.418341306656    -0.212059307366    15.994914619570
         N            0.863851320698    -1.220267306656    -0.587104307366    14.003074004430
         N            1.512089320698     1.496028693344     0.337421692634    14.003074004430
         C           -0.738554679302     0.537680693344     0.035987692634    12.000000000000
         C           -0.433552679302    -0.815108306656    -0.234069307366    12.000000000000
         C            0.292058320698     1.595604693344    -0.081605307366    12.000000000000
         C            1.877672320698     0.269050693344     1.042064692634    12.000000000000
         C           -2.070732679302     0.872736693344     0.339447692634    12.000000000000
         C           -1.455046679302    -1.778343306656    -0.228837307366    12.000000000000
         C            2.131272520698    -0.906779006656     0.025744992634    12.000000000000
         C           -0.100896679302     2.878460693344    -0.766756307366    12.000000000000
         C           -3.074397679302    -0.089231306656     0.364590692634    12.000000000000
         C           -2.765522679302    -1.420133306656     0.063903692634    12.000000000000
         H            0.955022320698    -2.058924306656    -1.155372307366     1.007825032230
         H            1.122649320698    -0.015499306656     1.791213692634     1.007825032230
         H            2.839706320698     0.414847693344     1.534513692634     1.007825032230
         H           -2.317849679302     1.907973693344     0.559654692634     1.007825032230
         H           -1.203351679302    -2.815637306656    -0.442421307366     1.007825032230
         H           -0.836996679302     3.434838693344    -0.176804307366     1.007825032230
         H           -0.546191679302     2.678888693344    -1.746262307366     1.007825032230
         H            0.790772320698     3.496492693344    -0.883242307366     1.007825032230
         H           -4.094228679302     0.194646693344     0.610513692634     1.007825032230
         H           -3.543264679302    -2.179723306656     0.069484692634     1.007825032230

  Basis Set: AUG-CC-PVTZ
    Blend: AUG-CC-PVTZ
  Basis Set: (AUG-CC-PVTZ AUX)
    Blend: AUG-CC-PVTZ-JKFIT
	 Reference Energy          =    -568.4541838757738788 [Eh]
	 Singles Energy            =      -0.0000000000000000 [Eh]
	 Same-Spin Energy          =      -0.6126478893854161 [Eh]
	 Opposite-Spin Energy      =      -1.8833594650395646 [Eh]
	 Correlation Energy        =      -2.4960073544249806 [Eh]
	 Total Energy              =    -570.9501912301988114 [Eh]

	 ================> DF-SCS-MP2 Energies <==================
	-----------------------------------------------------------
	 SCS Same-Spin Scale       =       0.3333333333333333 [-]
	 SCS Opposite-Spin Scale   =       1.2000000000000000 [-]
	 SCS Same-Spin Energy      =      -0.2042159631284720 [Eh]
	 SCS Opposite-Spin Energy  =      -2.2600313580474776 [Eh]
	 SCS Correlation Energy    =      -2.4642473211759497 [Eh]
	 SCS Total Energy          =    -570.9184311969498822 [Eh]
	-----------------------------------------------------------

  Dipole Moment: [D]
     X:    -4.0908      Y:    -0.6149      Z:     0.1744     Total:     4.1404

*** Psi4 exiting successfully. Buy a developer a beer!
