                               Psi4 1.3.2 release

  ==> Input File <==

--------------------------------------------------------------------------
#psi4
#
memory 32 gb

molecule  {
0 1
  O        3.1477550    -1.4485350    -0.2143050
  N        0.9062980    -1.2504610    -0.5893500
  N        1.5607398     1.3840114     0.2060830
  C       -0.6961080     0.5074870     0.0337420
  C       -0.3911060    -0.8453020    -0.2363150
  C        0.3345050     1.5654110    -0.0838510
  C        1.9201190     0.2388570     1.0398190
  C       -2.0282860     0.8425430     0.3372020
  C       -1.4126000    -1.8085370    -0.2310830
  C        2.0871850    -0.8915250     0.0446260
  C       -0.0584500     2.8482670    -0.7690020
  C       -3.0319510    -0.1194250     0.3623450
  C       -2.7230760    -1.4503270     0.0616580
  H        0.9974690    -2.0891180    -1.1576180
  H        1.1650960    -0.0456930     1.7889680
  H        2.8821530     0.3846540     1.5322680
  H       -2.2754030     1.8777800     0.5574090
  H       -1.1609050    -2.8458310    -0.4446670
  H       -0.7945500     3.4046450    -0.1790500
  H       -0.5037450     2.6486950    -1.7485080
  H        0.8332190     3.4662990    -0.8854880
  H       -4.0517820     0.1644530     0.6082680
  H       -3.5008180    -2.2099170     0.0672390
units angstrom
no_reorient  #important for SAPT in psi4, default
symmetry c1  #important for SAPT in psi4, default
}

set PROPERTIES_ORIGIN ["COM"]
properties('MP2/aug-cc-pvtz', properties = ['dipole'])
--------------------------------------------------------------------------

    Molecular point group: c1
  Charge       = 0
  Multiplicity = 1
  Basis Set: AUG-CC-PVTZ
    Blend: AUG-CC-PVTZ
  Basis Set: (AUG-CC-PVTZ AUX)
    Blend: AUG-CC-PVTZ-JKFIT

    Orbital Energies [Eh]
    ---------------------

    Doubly Occupied:

       1A    -20.529398     2A    -15.605856     3A    -15.563280
       4A    -11.360193     5A    -11.313679     6A    -11.299253
       7A    -11.269344     8A    -11.265229     9A    -11.264763
      10A    -11.263756    11A    -11.257505    12A    -11.252624
      13A    -11.234054    14A     -1.385695    15A     -1.278103
      16A     -1.236935    17A     -1.163772    18A     -1.065085
      19A     -1.034926    20A     -1.011269    21A     -0.953926
      22A     -0.883754    23A     -0.856918    24A     -0.794410
      25A     -0.764949    26A     -0.729390    27A     -0.690833
      28A     -0.681159    29A     -0.656094    30A     -0.650038
      31A     -0.625264    32A     -0.618985    33A     -0.602402
      34A     -0.585858    35A     -0.566301    36A     -0.558552
      37A     -0.546893    38A     -0.539246    39A     -0.526738
      40A     -0.516564    41A     -0.457312    42A     -0.443458
      43A     -0.423536    44A     -0.396920    45A     -0.353280
      46A     -0.331557

  @DF-RHF Final Energy:  -568.46251263079557

   => Energetics <=

    Nuclear Repulsion Energy =            762.4522143338758724
    One-Electron Energy =               -2285.0113392754319648
    Two-Electron Energy =                 954.0966123107605199
    Total Energy =                       -568.4625126307955725
  Basis Set: (AUG-CC-PVTZ AUX)
    Blend: AUG-CC-PVTZ-RI
    Molecular point group: c1

    Geometry (in Angstrom), charge = 0, multiplicity = 1:

       Center              X                  Y                   Z               Mass
    ------------   -----------------  -----------------  -----------------  -----------------
         O            3.110774439063    -1.414892249350    -0.203131316980    15.994914619570
         N            0.869317439063    -1.216818249350    -0.578176316980    14.003074004430
         N            1.523759239063     1.417654150650     0.217256683020    14.003074004430
         C           -0.733088560937     0.541129750650     0.044915683020    12.000000000000
         C           -0.428086560937    -0.811659249350    -0.225141316980    12.000000000000
         C            0.297524439063     1.599053750650    -0.072677316980    12.000000000000
         C            1.883138439063     0.272499750650     1.050992683020    12.000000000000
         C           -2.065266560937     0.876185750650     0.348375683020    12.000000000000
         C           -1.449580560937    -1.774894249350    -0.219909316980    12.000000000000
         C            2.050204439063    -0.857882249350     0.055799683020    12.000000000000
         C           -0.095430560937     2.881909750650    -0.757828316980    12.000000000000
         C           -3.068931560937    -0.085782249350     0.373518683020    12.000000000000
         C           -2.760056560937    -1.416684249350     0.072831683020    12.000000000000
         H            0.960488439063    -2.055475249350    -1.146444316980     1.007825032230
         H            1.128115439063    -0.012050249350     1.800141683020     1.007825032230
         H            2.845172439063     0.418296750650     1.543441683020     1.007825032230
         H           -2.312383560937     1.911422750650     0.568582683020     1.007825032230
         H           -1.197885560937    -2.812188249350    -0.433493316980     1.007825032230
         H           -0.831530560937     3.438287750650    -0.167876316980     1.007825032230
         H           -0.540725560937     2.682337750650    -1.737334316980     1.007825032230
         H            0.796238439063     3.499941750650    -0.874314316980     1.007825032230
         H           -4.088762560937     0.198095750650     0.619441683020     1.007825032230
         H           -3.537798560937    -2.176274249350     0.078412683020     1.007825032230

  Basis Set: AUG-CC-PVTZ
    Blend: AUG-CC-PVTZ
  Basis Set: (AUG-CC-PVTZ AUX)
    Blend: AUG-CC-PVTZ-JKFIT
	 Reference Energy          =    -568.4625126307955725 [Eh]
	 Singles Energy            =      -0.0000000000000000 [Eh]
	 Same-Spin Energy          =      -0.6146131917112985 [Eh]
	 Opposite-Spin Energy      =      -1.8866471743997646 [Eh]
	 Correlation Energy        =      -2.5012603661110631 [Eh]
	 Total Energy              =    -570.9637729969066413 [Eh]

	 ================> DF-SCS-MP2 Energies <==================
	-----------------------------------------------------------
	 SCS Same-Spin Scale       =       0.3333333333333333 [-]
	 SCS Opposite-Spin Scale   =       1.2000000000000000 [-]
	 SCS Same-Spin Energy      =      -0.2048710639037661 [Eh]
	 SCS Opposite-Spin Energy  =      -2.2639766092797173 [Eh]
	 SCS Correlation Energy    =      -2.4688476731834834 [Eh]
	 SCS Total Energy          =    -570.9313603039790905 [Eh]
	-----------------------------------------------------------

  Dipole Moment: [D]
     X:    -5.0817      Y:    -0.0989      Z:     0.4553     Total:     5.1031

*** Psi4 exiting successfully. Buy a developer a beer!
