                               Psi4 1.3.2 release

  ==> Input File <==

--------------------------------------------------------------------------
#psi4
#
memory 32 gb

molecule  {
0 1
  O        3.1477550    -1.4485350    -0.2143050
  N        0.9062980    -1.2504610    -0.5893500
  N        1.5545360     1.4658350     0.3351760
  C       -0.6961080     0.5074870     0.0337420
  C       -0.3675030    -0.8390644    -0.2397780
  C        0.3345050     1.5654110    -0.0838510
  C        1.9201190     0.2388570     1.0398190
  C       -2.0282860     0.8425430     0.3372020
  C       -1.4126000    -1.8085370    -0.2310830
  C        2.0871850    -0.8915250     0.0446260
  C       -0.0584500     2.8482670    -0.7690020
  C       -3.0319510    -0.1194250     0.3623450
  C       -2.7230760    -1.4503270     0.0616580
  H        0.9974690    -2.0891180    -1.1576180
  H        1.1650960    -0.0456930     1.7889680
  H        2.8821530     0.3846540     1.5322680
  H       -2.2754030     1.8777800     0.5574090
  H       -1.1609050    -2.8458310    -0.4446670
  H       -0.7945500     3.4046450    -0.1790500
  H       -0.5037450     2.6486950    -1.7485080
  H        0.8332190     3.4662990    -0.8854880
  H       -4.0517820     0.1644530     0.6082680
  H       -3.5008180    -2.2099170     0.0672390
units angstrom
no_reorient  #important for SAPT in psi4, default
symmetry c1  #important for SAPT in psi4, default
}

set PROPERTIES_ORIGIN ["COM"]
properties('MP2/aug-cc-pvtz', properties = ['dipole'])
--------------------------------------------------------------------------

    Molecular point group: c1
  Charge       = 0
  Multiplicity = 1
  Basis Set: AUG-CC-PVTZ
    Blend: AUG-CC-PVTZ
  Basis Set: (AUG-CC-PVTZ AUX)
    Blend: AUG-CC-PVTZ-JKFIT

    Orbital Energies [Eh]
    ---------------------

    Doubly Occupied:

       1A    -20.533780     2A    -15.609166     3A    -15.566672
       4A    -11.363864     5A    -11.315623     6A    -11.301786
       7A    -11.267487     8A    -11.266235     9A    -11.264920
      10A    -11.264782    11A    -11.259481    12A    -11.252963
      13A    -11.233836    14A     -1.389471    15A     -1.280734
      16A     -1.234513    17A     -1.162709    18A     -1.065046
      19A     -1.032711    20A     -1.010956    21A     -0.952086
      22A     -0.885641    23A     -0.859716    24A     -0.796334
      25A     -0.767590    26A     -0.731551    27A     -0.692751
      28A     -0.678565    29A     -0.657472    30A     -0.647804
      31A     -0.624932    32A     -0.618547    33A     -0.606089
      34A     -0.586306    35A     -0.568292    36A     -0.558613
      37A     -0.542924    38A     -0.539488    39A     -0.527009
      40A     -0.513731    41A     -0.458704    42A     -0.446660
      43A     -0.416958    44A     -0.405553    45A     -0.354524
      46A     -0.329473

  @DF-RHF Final Energy:  -568.46454439182708

   => Energetics <=

    Nuclear Repulsion Energy =            760.8604119032146400
    One-Electron Energy =               -2281.7618228662008732
    Two-Electron Energy =                 952.4368665711590438
    Total Energy =                       -568.4645443918270757
  Basis Set: (AUG-CC-PVTZ AUX)
    Blend: AUG-CC-PVTZ-RI
    Molecular point group: c1

    Geometry (in Angstrom), charge = 0, multiplicity = 1:

       Center              X                  Y                   Z               Mass
    ------------   -----------------  -----------------  -----------------  -----------------
         O            3.109646426055    -1.421904186067    -0.213276938551    15.994914619570
         N            0.868189426055    -1.223830186067    -0.588321938551    14.003074004430
         N            1.516427426055     1.492465813933     0.336204061449    14.003074004430
         C           -0.734216573945     0.534117813933     0.034770061449    12.000000000000
         C           -0.405611573945    -0.812433586067    -0.238749938551    12.000000000000
         C            0.296396426055     1.592041813933    -0.082822938551    12.000000000000
         C            1.882010426055     0.265487813933     1.040847061449    12.000000000000
         C           -2.066394573945     0.869173813933     0.338230061449    12.000000000000
         C           -1.450708573945    -1.781906186067    -0.230054938551    12.000000000000
         C            2.049076426055    -0.864894186067     0.045654061449    12.000000000000
         C           -0.096558573945     2.874897813933    -0.767973938551    12.000000000000
         C           -3.070059573945    -0.092794186067     0.363373061449    12.000000000000
         C           -2.761184573945    -1.423696186067     0.062686061449    12.000000000000
         H            0.959360426055    -2.062487186067    -1.156589938551     1.007825032230
         H            1.126987426055    -0.019062186067     1.789996061449     1.007825032230
         H            2.844044426055     0.411284813933     1.533296061449     1.007825032230
         H           -2.313511573945     1.904410813933     0.558437061449     1.007825032230
         H           -1.199013573945    -2.819200186067    -0.443638938551     1.007825032230
         H           -0.832658573945     3.431275813933    -0.178021938551     1.007825032230
         H           -0.541853573945     2.675325813933    -1.747479938551     1.007825032230
         H            0.795110426055     3.492929813933    -0.884459938551     1.007825032230
         H           -4.089890573945     0.191083813933     0.609296061449     1.007825032230
         H           -3.538926573945    -2.183286186067     0.068267061449     1.007825032230

  Basis Set: AUG-CC-PVTZ
    Blend: AUG-CC-PVTZ
  Basis Set: (AUG-CC-PVTZ AUX)
    Blend: AUG-CC-PVTZ-JKFIT
	 Reference Energy          =    -568.4645443918270757 [Eh]
	 Singles Energy            =      -0.0000000000000000 [Eh]
	 Same-Spin Energy          =      -0.6146659676073990 [Eh]
	 Opposite-Spin Energy      =      -1.8873857908101830 [Eh]
	 Correlation Energy        =      -2.5020517584175819 [Eh]
	 Total Energy              =    -570.9665961502446407 [Eh]

	 ================> DF-SCS-MP2 Energies <==================
	-----------------------------------------------------------
	 SCS Same-Spin Scale       =       0.3333333333333333 [-]
	 SCS Opposite-Spin Scale   =       1.2000000000000000 [-]
	 SCS Same-Spin Energy      =      -0.2048886558691330 [Eh]
	 SCS Opposite-Spin Energy  =      -2.2648629489722194 [Eh]
	 SCS Correlation Energy    =      -2.4697516048413526 [Eh]
	 SCS Total Energy          =    -570.9342959966684248 [Eh]
	-----------------------------------------------------------

  Dipole Moment: [D]
     X:    -5.0114      Y:    -0.2714      Z:     0.2052     Total:     5.0229

*** Psi4 exiting successfully. Buy a developer a beer!
