                               Psi4 1.4a3.dev225

  ==> Input File <==

--------------------------------------------------------------------------
#psi4
#
memory 32 gb

molecule  {
0 1
  O        3.1477550    -1.4485350    -0.2143050
  N        0.9062980    -1.2504610    -0.5893500
  N        1.5545360     1.4658350     0.3351760
  C       -0.6961080     0.5074870     0.0337420
  C       -0.3449119    -0.8597277    -0.2488848
  C        0.3345050     1.5654110    -0.0838510
  C        1.9201190     0.2388570     1.0398190
  C       -2.0282860     0.8425430     0.3372020
  C       -1.4126000    -1.8085370    -0.2310830
  C        2.0871850    -0.8915250     0.0446260
  C       -0.0584500     2.8482670    -0.7690020
  C       -3.0319510    -0.1194250     0.3623450
  C       -2.7230760    -1.4503270     0.0616580
  H        0.9974690    -2.0891180    -1.1576180
  H        1.1650960    -0.0456930     1.7889680
  H        2.8821530     0.3846540     1.5322680
  H       -2.2754030     1.8777800     0.5574090
  H       -1.1609050    -2.8458310    -0.4446670
  H       -0.7945500     3.4046450    -0.1790500
  H       -0.5037450     2.6486950    -1.7485080
  H        0.8332190     3.4662990    -0.8854880
  H       -4.0517820     0.1644530     0.6082680
  H       -3.5008180    -2.2099170     0.0672390
units angstrom
no_reorient  #important for SAPT in psi4, default
symmetry c1  #important for SAPT in psi4, default
}

set PROPERTIES_ORIGIN ["COM"]
properties('MP2/aug-cc-pvtz', properties = ['dipole'])
--------------------------------------------------------------------------

    Molecular point group: c1
  Charge       = 0
  Multiplicity = 1
  Basis Set: AUG-CC-PVTZ
    Blend: AUG-CC-PVTZ
  Basis Set: (AUG-CC-PVTZ AUX)
    Blend: AUG-CC-PVTZ-JKFIT

    Orbital Energies [Eh]
    ---------------------

    Doubly Occupied:

       1A    -20.536435     2A    -15.611741     3A    -15.566024
       4A    -11.366336     5A    -11.317202     6A    -11.301149
       7A    -11.268151     8A    -11.266562     9A    -11.265049
      10A    -11.264366    11A    -11.258455    12A    -11.251584
      13A    -11.233306    14A     -1.392660    15A     -1.287963
      16A     -1.236497    17A     -1.160001    18A     -1.063460
      19A     -1.032551    20A     -1.008317    21A     -0.952822
      22A     -0.887563    23A     -0.860205    24A     -0.798454
      25A     -0.765813    26A     -0.736265    27A     -0.693605
      28A     -0.679794    29A     -0.658384    30A     -0.644635
      31A     -0.623862    32A     -0.618949    33A     -0.608750
      34A     -0.586190    35A     -0.570442    36A     -0.558321
      37A     -0.542865    38A     -0.539224    39A     -0.525574
      40A     -0.510307    41A     -0.460489    42A     -0.449966
      43A     -0.416236    44A     -0.406121    45A     -0.353555
      46A     -0.325311

  @DF-RHF Final Energy:  -568.46144429909839

   => Energetics <=

    Nuclear Repulsion Energy =            760.7695739633969652
    One-Electron Energy =               -2281.5390215997258565
    Two-Electron Energy =                 952.3080033372306161
    Total Energy =                       -568.4614442990983889
  Basis Set: (AUG-CC-PVTZ AUX)
    Blend: AUG-CC-PVTZ-RI
    Molecular point group: c1

    Geometry (in Angstrom), charge = 0, multiplicity = 1:

       Center              X                  Y                   Z               Mass
    ------------   -----------------  -----------------  -----------------  -----------------
         O            3.108089129008    -1.420479780170    -0.212649169529    15.994914619570
         N            0.866632129008    -1.222405780170    -0.587694169529    14.003074004430
         N            1.514870129008     1.493890219830     0.336831830471    14.003074004430
         C           -0.735773870992     0.535542219830     0.035397830471    12.000000000000
         C           -0.384577770992    -0.831672480170    -0.247228969529    12.000000000000
         C            0.294839129008     1.593466219830    -0.082195169529    12.000000000000
         C            1.880453129008     0.266912219830     1.041474830471    12.000000000000
         C           -2.067951870992     0.870598219830     0.338857830471    12.000000000000
         C           -1.452265870992    -1.780481780170    -0.229427169529    12.000000000000
         C            2.047519129008    -0.863469780170     0.046281830471    12.000000000000
         C           -0.098115870992     2.876322219830    -0.767346169529    12.000000000000
         C           -3.071616870992    -0.091369780170     0.364000830471    12.000000000000
         C           -2.762741870992    -1.422271780170     0.063313830471    12.000000000000
         H            0.957803129008    -2.061062780170    -1.155962169529     1.007825032230
         H            1.125430129008    -0.017637780170     1.790623830471     1.007825032230
         H            2.842487129008     0.412709219830     1.533923830471     1.007825032230
         H           -2.315068870992     1.905835219830     0.559064830471     1.007825032230
         H           -1.200570870992    -2.817775780170    -0.443011169529     1.007825032230
         H           -0.834215870992     3.432700219830    -0.177394169529     1.007825032230
         H           -0.543410870992     2.676750219830    -1.746852169529     1.007825032230
         H            0.793553129008     3.494354219830    -0.883832169529     1.007825032230
         H           -4.091447870992     0.192508219830     0.609923830471     1.007825032230
         H           -3.540483870992    -2.181861780170     0.068894830471     1.007825032230

  Basis Set: AUG-CC-PVTZ
    Blend: AUG-CC-PVTZ
  Basis Set: (AUG-CC-PVTZ AUX)
    Blend: AUG-CC-PVTZ-JKFIT
	 Reference Energy          =    -568.4614442990983889 [Eh]
	 Singles Energy            =      -0.0000000000000000 [Eh]
	 Same-Spin Energy          =      -0.6151139798449050 [Eh]
	 Opposite-Spin Energy      =      -1.8878002737160859 [Eh]
	 Correlation Energy        =      -2.5029142535609910 [Eh]
	 Total Energy              =    -570.9643585526594052 [Eh]

	 ================> DF-SCS-MP2 Energies <==================
	-----------------------------------------------------------
	 SCS Same-Spin Scale       =       0.3333333333333333 [-]
	 SCS Opposite-Spin Scale   =       1.2000000000000000 [-]
	 SCS Same-Spin Energy      =      -0.2050379932816350 [Eh]
	 SCS Opposite-Spin Energy  =      -2.2653603284593031 [Eh]
	 SCS Correlation Energy    =      -2.4703983217409382 [Eh]
	 SCS Total Energy          =    -570.9318426208393475 [Eh]
	-----------------------------------------------------------

  Dipole Moment: [D]
     X:    -4.8580      Y:    -0.3176      Z:     0.1807     Total:     4.8717

*** Psi4 exiting successfully. Buy a developer a beer!
