                               Psi4 1.3.2 release

  ==> Input File <==

--------------------------------------------------------------------------
#psi4
#
memory 32 gb

molecule  {
0 1
  O        3.1477550    -1.4485350    -0.2143050
  N        0.9062980    -1.2504610    -0.5893500
  N        1.5545360     1.4658350     0.3351760
  C       -0.6961080     0.5074870     0.0337420
  C       -0.4000626    -0.8585240    -0.2549070
  C        0.3345050     1.5654110    -0.0838510
  C        1.9201190     0.2388570     1.0398190
  C       -2.0282860     0.8425430     0.3372020
  C       -1.4126000    -1.8085370    -0.2310830
  C        2.0871850    -0.8915250     0.0446260
  C       -0.0584500     2.8482670    -0.7690020
  C       -3.0319510    -0.1194250     0.3623450
  C       -2.7230760    -1.4503270     0.0616580
  H        0.9974690    -2.0891180    -1.1576180
  H        1.1650960    -0.0456930     1.7889680
  H        2.8821530     0.3846540     1.5322680
  H       -2.2754030     1.8777800     0.5574090
  H       -1.1609050    -2.8458310    -0.4446670
  H       -0.7945500     3.4046450    -0.1790500
  H       -0.5037450     2.6486950    -1.7485080
  H        0.8332190     3.4662990    -0.8854880
  H       -4.0517820     0.1644530     0.6082680
  H       -3.5008180    -2.2099170     0.0672390
units angstrom
no_reorient  #important for SAPT in psi4, default
symmetry c1  #important for SAPT in psi4, default
}

set PROPERTIES_ORIGIN ["COM"]
properties('MP2/aug-cc-pvtz', properties = ['dipole'])
--------------------------------------------------------------------------

    Molecular point group: c1
  Charge       = 0
  Multiplicity = 1
  Basis Set: AUG-CC-PVTZ
    Blend: AUG-CC-PVTZ
  Basis Set: (AUG-CC-PVTZ AUX)
    Blend: AUG-CC-PVTZ-JKFIT

    Orbital Energies [Eh]
    ---------------------

    Doubly Occupied:

       1A    -20.532491     2A    -15.606762     3A    -15.567074
       4A    -11.363158     5A    -11.314242     6A    -11.302529
       7A    -11.267590     8A    -11.267041     9A    -11.266147
      10A    -11.265707    11A    -11.256636    12A    -11.253710
      13A    -11.234236    14A     -1.387586    15A     -1.275607
      16A     -1.233030    17A     -1.164606    18A     -1.065158
      19A     -1.037199    20A     -1.009939    21A     -0.951799
      22A     -0.886674    23A     -0.857030    24A     -0.796122
      25A     -0.767528    26A     -0.729118    27A     -0.691201
      28A     -0.677802    29A     -0.657987    30A     -0.646606
      31A     -0.626663    32A     -0.618517    33A     -0.604923
      34A     -0.586452    35A     -0.567205    36A     -0.558919
      37A     -0.543958    38A     -0.538578    39A     -0.527825
      40A     -0.514827    41A     -0.457825    42A     -0.444683
      43A     -0.417539    44A     -0.405651    45A     -0.355060
      46A     -0.332042

  @DF-RHF Final Energy:  -568.46502131176635

   => Energetics <=

    Nuclear Repulsion Energy =            760.5612388085270368
    One-Electron Energy =               -2281.1865550870070365
    Two-Electron Energy =                 952.1602949667137636
    Total Energy =                       -568.4650213117663498
  Basis Set: (AUG-CC-PVTZ AUX)
    Blend: AUG-CC-PVTZ-RI
    Molecular point group: c1

    Geometry (in Angstrom), charge = 0, multiplicity = 1:

       Center              X                  Y                   Z               Mass
    ------------   -----------------  -----------------  -----------------  -----------------
         O            3.111890892634    -1.420562756140    -0.212234034619    15.994914619570
         N            0.870433892634    -1.222488756140    -0.587279034619    14.003074004430
         N            1.518671892634     1.493807243860     0.337246965381    14.003074004430
         C           -0.731972107366     0.535459243860     0.035812965381    12.000000000000
         C           -0.435926707366    -0.830551756140    -0.252836034619    12.000000000000
         C            0.298640892634     1.593383243860    -0.081780034619    12.000000000000
         C            1.884254892634     0.266829243860     1.041889965381    12.000000000000
         C           -2.064150107366     0.870515243860     0.339272965381    12.000000000000
         C           -1.448464107366    -1.780564756140    -0.229012034619    12.000000000000
         C            2.051320892634    -0.863552756140     0.046696965381    12.000000000000
         C           -0.094314107366     2.876239243860    -0.766931034619    12.000000000000
         C           -3.067815107366    -0.091452756140     0.364415965381    12.000000000000
         C           -2.758940107366    -1.422354756140     0.063728965381    12.000000000000
         H            0.961604892634    -2.061145756140    -1.155547034619     1.007825032230
         H            1.129231892634    -0.017720756140     1.791038965381     1.007825032230
         H            2.846288892634     0.412626243860     1.534338965381     1.007825032230
         H           -2.311267107366     1.905752243860     0.559479965381     1.007825032230
         H           -1.196769107366    -2.817858756140    -0.442596034619     1.007825032230
         H           -0.830414107366     3.432617243860    -0.176979034619     1.007825032230
         H           -0.539609107366     2.676667243860    -1.746437034619     1.007825032230
         H            0.797354892634     3.494271243860    -0.883417034619     1.007825032230
         H           -4.087646107366     0.192425243860     0.610338965381     1.007825032230
         H           -3.536682107366    -2.181944756140     0.069309965381     1.007825032230

  Basis Set: AUG-CC-PVTZ
    Blend: AUG-CC-PVTZ
  Basis Set: (AUG-CC-PVTZ AUX)
    Blend: AUG-CC-PVTZ-JKFIT
	 Reference Energy          =    -568.4650213117663498 [Eh]
	 Singles Energy            =      -0.0000000000000000 [Eh]
	 Same-Spin Energy          =      -0.6144887382171500 [Eh]
	 Opposite-Spin Energy      =      -1.8872210548301083 [Eh]
	 Correlation Energy        =      -2.5017097930472580 [Eh]
	 Total Energy              =    -570.9667311048135616 [Eh]

	 ================> DF-SCS-MP2 Energies <==================
	-----------------------------------------------------------
	 SCS Same-Spin Scale       =       0.3333333333333333 [-]
	 SCS Opposite-Spin Scale   =       1.2000000000000000 [-]
	 SCS Same-Spin Energy      =      -0.2048295794057167 [Eh]
	 SCS Opposite-Spin Energy  =      -2.2646652657961299 [Eh]
	 SCS Correlation Energy    =      -2.4694948452018464 [Eh]
	 SCS Total Energy          =    -570.9345161569682432 [Eh]
	-----------------------------------------------------------

  Dipole Moment: [D]
     X:    -5.1113      Y:    -0.2393      Z:     0.2303     Total:     5.1221

*** Psi4 exiting successfully. Buy a developer a beer!
