                               Psi4 1.3.2 release

  ==> Input File <==

--------------------------------------------------------------------------
#psi4
#
memory 32 gb

molecule  {
0 1
  O        3.1477550    -1.4485350    -0.2143050
  N        0.9062980    -1.2504610    -0.5893500
  N        1.5545360     1.4658350     0.3351760
  C       -0.6961080     0.5074870     0.0337420
  C       -0.3911060    -0.8453020    -0.2363150
  C        0.3166105     1.5387626    -0.1255015
  C        1.9201190     0.2388570     1.0398190
  C       -2.0282860     0.8425430     0.3372020
  C       -1.4126000    -1.8085370    -0.2310830
  C        2.0871850    -0.8915250     0.0446260
  C       -0.0584500     2.8482670    -0.7690020
  C       -3.0319510    -0.1194250     0.3623450
  C       -2.7230760    -1.4503270     0.0616580
  H        0.9974690    -2.0891180    -1.1576180
  H        1.1650960    -0.0456930     1.7889680
  H        2.8821530     0.3846540     1.5322680
  H       -2.2754030     1.8777800     0.5574090
  H       -1.1609050    -2.8458310    -0.4446670
  H       -0.7945500     3.4046450    -0.1790500
  H       -0.5037450     2.6486950    -1.7485080
  H        0.8332190     3.4662990    -0.8854880
  H       -4.0517820     0.1644530     0.6082680
  H       -3.5008180    -2.2099170     0.0672390
units angstrom
no_reorient  #important for SAPT in psi4, default
symmetry c1  #important for SAPT in psi4, default
}

set PROPERTIES_ORIGIN ["COM"]
properties('MP2/aug-cc-pvtz', properties = ['dipole'])
--------------------------------------------------------------------------

    Molecular point group: c1
  Charge       = 0
  Multiplicity = 1
  Basis Set: AUG-CC-PVTZ
    Blend: AUG-CC-PVTZ
  Basis Set: (AUG-CC-PVTZ AUX)
    Blend: AUG-CC-PVTZ-JKFIT

    Orbital Energies [Eh]
    ---------------------

    Doubly Occupied:

       1A    -20.531799     2A    -15.607362     3A    -15.568948
       4A    -11.362122     5A    -11.315599     6A    -11.304047
       7A    -11.268079     8A    -11.266801     9A    -11.265356
      10A    -11.265339    11A    -11.258967    12A    -11.254762
      13A    -11.234649    14A     -1.387115    15A     -1.275362
      16A     -1.225131    17A     -1.165810    18A     -1.068658
      19A     -1.035662    20A     -1.010853    21A     -0.947653
      22A     -0.889673    23A     -0.859147    24A     -0.795873
      25A     -0.769766    26A     -0.730121    27A     -0.690544
      28A     -0.676759    29A     -0.658887    30A     -0.648332
      31A     -0.626808    32A     -0.616873    33A     -0.603918
      34A     -0.586589    35A     -0.566864    36A     -0.559560
      37A     -0.543235    38A     -0.538322    39A     -0.527878
      40A     -0.515285    41A     -0.455637    42A     -0.444713
      43A     -0.418464    44A     -0.403479    45A     -0.353192
      46A     -0.332662

  @DF-RHF Final Energy:  -568.46039564902856

   => Energetics <=

    Nuclear Repulsion Energy =            760.9157490574514213
    One-Electron Energy =               -2281.8869752591649558
    Two-Electron Energy =                 952.5108305526849790
    Total Energy =                       -568.4603956490285555
  Basis Set: (AUG-CC-PVTZ AUX)
    Blend: AUG-CC-PVTZ-RI
    Molecular point group: c1

    Geometry (in Angstrom), charge = 0, multiplicity = 1:

       Center              X                  Y                   Z               Mass
    ------------   -----------------  -----------------  -----------------  -----------------
         O            3.112507018687    -1.419637219399    -0.210644517775    15.994914619570
         N            0.871050018687    -1.221563219399    -0.585689517775    14.003074004430
         N            1.519288018687     1.494732780601     0.338836482225    14.003074004430
         C           -0.731355981313     0.536384780601     0.037402482225    12.000000000000
         C           -0.426353981313    -0.816404219399    -0.232654517775    12.000000000000
         C            0.281362518687     1.567660380601    -0.121841017775    12.000000000000
         C            1.884871018687     0.267754780601     1.043479482225    12.000000000000
         C           -2.063533981313     0.871440780601     0.340862482225    12.000000000000
         C           -1.447847981313    -1.779639219399    -0.227422517775    12.000000000000
         C            2.051937018687    -0.862627219399     0.048286482225    12.000000000000
         C           -0.093697981313     2.877164780601    -0.765341517775    12.000000000000
         C           -3.067198981313    -0.090527219399     0.366005482225    12.000000000000
         C           -2.758323981313    -1.421429219399     0.065318482225    12.000000000000
         H            0.962221018687    -2.060220219399    -1.153957517775     1.007825032230
         H            1.129848018687    -0.016795219399     1.792628482225     1.007825032230
         H            2.846905018687     0.413551780601     1.535928482225     1.007825032230
         H           -2.310650981313     1.906677780601     0.561069482225     1.007825032230
         H           -1.196152981313    -2.816933219399    -0.441006517775     1.007825032230
         H           -0.829797981313     3.433542780601    -0.175389517775     1.007825032230
         H           -0.538992981313     2.677592780601    -1.744847517775     1.007825032230
         H            0.797971018687     3.495196780601    -0.881827517775     1.007825032230
         H           -4.087029981313     0.193350780601     0.611928482225     1.007825032230
         H           -3.536065981313    -2.181019219399     0.070899482225     1.007825032230

  Basis Set: AUG-CC-PVTZ
    Blend: AUG-CC-PVTZ
  Basis Set: (AUG-CC-PVTZ AUX)
    Blend: AUG-CC-PVTZ-JKFIT
	 Reference Energy          =    -568.4603956490285555 [Eh]
	 Singles Energy            =      -0.0000000000000000 [Eh]
	 Same-Spin Energy          =      -0.6155549922666699 [Eh]
	 Opposite-Spin Energy      =      -1.8891121463562213 [Eh]
	 Correlation Energy        =      -2.5046671386228914 [Eh]
	 Total Energy              =    -570.9650627876513909 [Eh]

	 ================> DF-SCS-MP2 Energies <==================
	-----------------------------------------------------------
	 SCS Same-Spin Scale       =       0.3333333333333333 [-]
	 SCS Opposite-Spin Scale   =       1.2000000000000000 [-]
	 SCS Same-Spin Energy      =      -0.2051849974222233 [Eh]
	 SCS Opposite-Spin Energy  =      -2.2669345756274653 [Eh]
	 SCS Correlation Energy    =      -2.4721195730496888 [Eh]
	 SCS Total Energy          =    -570.9325152220782229 [Eh]
	-----------------------------------------------------------

  Dipole Moment: [D]
     X:    -5.1737      Y:    -0.2859      Z:     0.2204     Total:     5.1863

*** Psi4 exiting successfully. Buy a developer a beer!
