                               Psi4 1.3.2 release

  ==> Input File <==

--------------------------------------------------------------------------
#psi4
#
memory 32 gb

molecule  {
0 1
  O        3.2018961    -1.3709521    -0.1276615
  N        0.9062980    -1.2504610    -0.5893500
  N        1.5545360     1.4658350     0.3351760
  C       -0.6961080     0.5074870     0.0337420
  C       -0.3911060    -0.8453020    -0.2363150
  C        0.3345050     1.5654110    -0.0838510
  C        1.9201190     0.2388570     1.0398190
  C       -2.0282860     0.8425430     0.3372020
  C       -1.4126000    -1.8085370    -0.2310830
  C        2.0871850    -0.8915250     0.0446260
  C       -0.0584500     2.8482670    -0.7690020
  C       -3.0319510    -0.1194250     0.3623450
  C       -2.7230760    -1.4503270     0.0616580
  H        0.9974690    -2.0891180    -1.1576180
  H        1.1650960    -0.0456930     1.7889680
  H        2.8821530     0.3846540     1.5322680
  H       -2.2754030     1.8777800     0.5574090
  H       -1.1609050    -2.8458310    -0.4446670
  H       -0.7945500     3.4046450    -0.1790500
  H       -0.5037450     2.6486950    -1.7485080
  H        0.8332190     3.4662990    -0.8854880
  H       -4.0517820     0.1644530     0.6082680
  H       -3.5008180    -2.2099170     0.0672390
units angstrom
no_reorient  #important for SAPT in psi4, default
symmetry c1  #important for SAPT in psi4, default
}

set PROPERTIES_ORIGIN ["COM"]
properties('MP2/aug-cc-pvtz', properties = ['dipole'])
--------------------------------------------------------------------------

    Molecular point group: c1
  Charge       = 0
  Multiplicity = 1
  Basis Set: AUG-CC-PVTZ
    Blend: AUG-CC-PVTZ
  Basis Set: (AUG-CC-PVTZ AUX)
    Blend: AUG-CC-PVTZ-JKFIT

    Orbital Energies [Eh]
    ---------------------

    Doubly Occupied:

       1A    -20.533308     2A    -15.612938     3A    -15.565339
       4A    -11.362612     5A    -11.316420     6A    -11.300353
       7A    -11.267446     8A    -11.266252     9A    -11.266065
      10A    -11.260801    11A    -11.259825    12A    -11.254774
      13A    -11.233272    14A     -1.386252    15A     -1.279731
      16A     -1.232674    17A     -1.165838    18A     -1.064792
      19A     -1.036150    20A     -1.010771    21A     -0.948645
      22A     -0.886630    23A     -0.859706    24A     -0.796435
      25A     -0.768091    26A     -0.730179    27A     -0.691431
      28A     -0.677090    29A     -0.658142    30A     -0.648878
      31A     -0.626655    32A     -0.618138    33A     -0.602790
      34A     -0.585960    35A     -0.567171    36A     -0.558602
      37A     -0.543370    38A     -0.538417    39A     -0.527756
      40A     -0.515202    41A     -0.456994    42A     -0.447640
      43A     -0.415289    44A     -0.401859    45A     -0.354561
      46A     -0.334344

  @DF-RHF Final Energy:  -568.46229342789763

   => Energetics <=

    Nuclear Repulsion Energy =            760.6576784680222545
    One-Electron Energy =               -2281.3687736442348069
    Two-Electron Energy =                 952.2488017483148042
    Total Energy =                       -568.4622934278976345
  Basis Set: (AUG-CC-PVTZ AUX)
    Blend: AUG-CC-PVTZ-RI
    Molecular point group: c1

    Geometry (in Angstrom), charge = 0, multiplicity = 1:

       Center              X                  Y                   Z               Mass
    ------------   -----------------  -----------------  -----------------  -----------------
         O            3.160439935453    -1.351019845716    -0.134833214622    15.994914619570
         N            0.864841835453    -1.230528745716    -0.596521714622    14.003074004430
         N            1.513079835453     1.485767254284     0.328004285378    14.003074004430
         C           -0.737564164547     0.527419254284     0.026570285378    12.000000000000
         C           -0.432562164547    -0.825369745716    -0.243486714622    12.000000000000
         C            0.293048835453     1.585343254284    -0.091022714622    12.000000000000
         C            1.878662835453     0.258789254284     1.032647285378    12.000000000000
         C           -2.069742164547     0.862475254284     0.330030285378    12.000000000000
         C           -1.454056164547    -1.788604745716    -0.238254714622    12.000000000000
         C            2.045728835453    -0.871592745716     0.037454285378    12.000000000000
         C           -0.099906164547     2.868199254284    -0.776173714622    12.000000000000
         C           -3.073407164547    -0.099492745716     0.355173285378    12.000000000000
         C           -2.764532164547    -1.430394745716     0.054486285378    12.000000000000
         H            0.956012835453    -2.069185745716    -1.164789714622     1.007825032230
         H            1.123639835453    -0.025760745716     1.781796285378     1.007825032230
         H            2.840696835453     0.404586254284     1.525096285378     1.007825032230
         H           -2.316859164547     1.897712254284     0.550237285378     1.007825032230
         H           -1.202361164547    -2.825898745716    -0.451838714622     1.007825032230
         H           -0.836006164547     3.424577254284    -0.186221714622     1.007825032230
         H           -0.545201164547     2.668627254284    -1.755679714622     1.007825032230
         H            0.791762835453     3.486231254284    -0.892659714622     1.007825032230
         H           -4.093238164547     0.184385254284     0.601096285378     1.007825032230
         H           -3.542274164547    -2.189984745716     0.060067285378     1.007825032230

  Basis Set: AUG-CC-PVTZ
    Blend: AUG-CC-PVTZ
  Basis Set: (AUG-CC-PVTZ AUX)
    Blend: AUG-CC-PVTZ-JKFIT
	 Reference Energy          =    -568.4622934278976345 [Eh]
	 Singles Energy            =      -0.0000000000000000 [Eh]
	 Same-Spin Energy          =      -0.6146284246844531 [Eh]
	 Opposite-Spin Energy      =      -1.8876517717055104 [Eh]
	 Correlation Energy        =      -2.5022801963899637 [Eh]
	 Total Energy              =    -570.9645736242875955 [Eh]

	 ================> DF-SCS-MP2 Energies <==================
	-----------------------------------------------------------
	 SCS Same-Spin Scale       =       0.3333333333333333 [-]
	 SCS Opposite-Spin Scale   =       1.2000000000000000 [-]
	 SCS Same-Spin Energy      =      -0.2048761415614844 [Eh]
	 SCS Opposite-Spin Energy  =      -2.2651821260466125 [Eh]
	 SCS Correlation Energy    =      -2.4700582676080969 [Eh]
	 SCS Total Energy          =    -570.9323516955057585 [Eh]
	-----------------------------------------------------------

  Dipole Moment: [D]
     X:    -5.2445      Y:    -0.4412      Z:     0.0404     Total:     5.2631

*** Psi4 exiting successfully. Buy a developer a beer!
