                               Psi4 1.3.2 release

  ==> Input File <==

--------------------------------------------------------------------------
#psi4
#
memory 32 gb

molecule  {
0 1
  O        3.1477550    -1.4485350    -0.2143050
  N        0.8832491    -1.2162969    -0.5639101
  N        1.5545360     1.4658350     0.3351760
  C       -0.6961080     0.5074870     0.0337420
  C       -0.3911060    -0.8453020    -0.2363150
  C        0.3345050     1.5654110    -0.0838510
  C        1.9201190     0.2388570     1.0398190
  C       -2.0282860     0.8425430     0.3372020
  C       -1.4126000    -1.8085370    -0.2310830
  C        2.0871850    -0.8915250     0.0446260
  C       -0.0584500     2.8482670    -0.7690020
  C       -3.0319510    -0.1194250     0.3623450
  C       -2.7230760    -1.4503270     0.0616580
  H        0.9974690    -2.0891180    -1.1576180
  H        1.1650960    -0.0456930     1.7889680
  H        2.8821530     0.3846540     1.5322680
  H       -2.2754030     1.8777800     0.5574090
  H       -1.1609050    -2.8458310    -0.4446670
  H       -0.7945500     3.4046450    -0.1790500
  H       -0.5037450     2.6486950    -1.7485080
  H        0.8332190     3.4662990    -0.8854880
  H       -4.0517820     0.1644530     0.6082680
  H       -3.5008180    -2.2099170     0.0672390
units angstrom
no_reorient  #important for SAPT in psi4, default
symmetry c1  #important for SAPT in psi4, default
}

set PROPERTIES_ORIGIN ["COM"]
properties('MP2/aug-cc-pvtz', properties = ['dipole'])
--------------------------------------------------------------------------

    Molecular point group: c1
  Charge       = 0
  Multiplicity = 1
  Basis Set: AUG-CC-PVTZ
    Blend: AUG-CC-PVTZ
  Basis Set: (AUG-CC-PVTZ AUX)
    Blend: AUG-CC-PVTZ-JKFIT

    Orbital Energies [Eh]
    ---------------------

    Doubly Occupied:

       1A    -20.536252     2A    -15.611245     3A    -15.566488
       4A    -11.365430     5A    -11.312546     6A    -11.301661
       7A    -11.265752     8A    -11.265632     9A    -11.265029
      10A    -11.263543    11A    -11.257165    12A    -11.252192
      13A    -11.233740    14A     -1.389660    15A     -1.283900
      16A     -1.233683    17A     -1.163536    18A     -1.065203
      19A     -1.035855    20A     -1.009061    21A     -0.951302
      22A     -0.887658    23A     -0.861249    24A     -0.793087
      25A     -0.765855    26A     -0.729610    27A     -0.691895
      28A     -0.678935    29A     -0.658054    30A     -0.645976
      31A     -0.625882    32A     -0.618071    33A     -0.604045
      34A     -0.586238    35A     -0.568113    36A     -0.558476
      37A     -0.543336    38A     -0.538529    39A     -0.527749
      40A     -0.512962    41A     -0.459864    42A     -0.448021
      43A     -0.417274    44A     -0.405240    45A     -0.354336
      46A     -0.329220

  @DF-RHF Final Energy:  -568.46024358578347

   => Energetics <=

    Nuclear Repulsion Energy =            761.7204694902127358
    One-Electron Energy =               -2283.4843277544568991
    Two-Electron Energy =                 953.3036146784606899
    Total Energy =                       -568.4602435857834735
  Basis Set: (AUG-CC-PVTZ AUX)
    Blend: AUG-CC-PVTZ-RI
    Molecular point group: c1

    Geometry (in Angstrom), charge = 0, multiplicity = 1:

       Center              X                  Y                   Z               Mass
    ------------   -----------------  -----------------  -----------------  -----------------
         O            3.113127548781    -1.424222389269    -0.215562062473    15.994914619570
         N            0.848621648781    -1.191984289269    -0.565167162473    14.003074004430
         N            1.519908548781     1.490147610731     0.333918937527    14.003074004430
         C           -0.730735451219     0.531799610731     0.032484937527    12.000000000000
         C           -0.425733451219    -0.820989389269    -0.237572062473    12.000000000000
         C            0.299877548781     1.589723610731    -0.085108062473    12.000000000000
         C            1.885491548781     0.263169610731     1.038561937527    12.000000000000
         C           -2.062913451219     0.866855610731     0.335944937527    12.000000000000
         C           -1.447227451219    -1.784224389269    -0.232340062473    12.000000000000
         C            2.052557548781    -0.867212389269     0.043368937527    12.000000000000
         C           -0.093077451219     2.872579610731    -0.770259062473    12.000000000000
         C           -3.066578451219    -0.095112389269     0.361087937527    12.000000000000
         C           -2.757703451219    -1.426014389269     0.060400937527    12.000000000000
         H            0.962841548781    -2.064805389269    -1.158875062473     1.007825032230
         H            1.130468548781    -0.021380389269     1.787710937527     1.007825032230
         H            2.847525548781     0.408966610731     1.531010937527     1.007825032230
         H           -2.310030451219     1.902092610731     0.556151937527     1.007825032230
         H           -1.195532451219    -2.821518389269    -0.445924062473     1.007825032230
         H           -0.829177451219     3.428957610731    -0.180307062473     1.007825032230
         H           -0.538372451219     2.673007610731    -1.749765062473     1.007825032230
         H            0.798591548781     3.490611610731    -0.886745062473     1.007825032230
         H           -4.086409451219     0.188765610731     0.607010937527     1.007825032230
         H           -3.535445451219    -2.185604389269     0.065981937527     1.007825032230

  Basis Set: AUG-CC-PVTZ
    Blend: AUG-CC-PVTZ
  Basis Set: (AUG-CC-PVTZ AUX)
    Blend: AUG-CC-PVTZ-JKFIT
	 Reference Energy          =    -568.4602435857834735 [Eh]
	 Singles Energy            =      -0.0000000000000000 [Eh]
	 Same-Spin Energy          =      -0.6154858182879257 [Eh]
	 Opposite-Spin Energy      =      -1.8885081214956281 [Eh]
	 Correlation Energy        =      -2.5039939397835536 [Eh]
	 Total Energy              =    -570.9642375255670004 [Eh]

	 ================> DF-SCS-MP2 Energies <==================
	-----------------------------------------------------------
	 SCS Same-Spin Scale       =       0.3333333333333333 [-]
	 SCS Opposite-Spin Scale   =       1.2000000000000000 [-]
	 SCS Same-Spin Energy      =      -0.2051619394293085 [Eh]
	 SCS Opposite-Spin Energy  =      -2.2662097457947534 [Eh]
	 SCS Correlation Energy    =      -2.4713716852240619 [Eh]
	 SCS Total Energy          =    -570.9316152710075585 [Eh]
	-----------------------------------------------------------

  Dipole Moment: [D]
     X:    -4.9874      Y:    -0.3143      Z:     0.1798     Total:     5.0005

*** Psi4 exiting successfully. Buy a developer a beer!
