                               Psi4 1.4a3.dev225

  ==> Input File <==

--------------------------------------------------------------------------
#psi4
#
memory 32 gb

molecule  {
0 1
  O        3.1477550    -1.4485350    -0.2143050
  N        0.9062980    -1.2504610    -0.5893500
  N        1.5545360     1.4658350     0.3351760
  C       -0.6961080     0.5074870     0.0337420
  C       -0.3911060    -0.8453020    -0.2363150
  C        0.3345050     1.5654110    -0.0838510
  C        1.9326271     0.1968770     1.0639277
  C       -2.0282860     0.8425430     0.3372020
  C       -1.4126000    -1.8085370    -0.2310830
  C        2.0871850    -0.8915250     0.0446260
  C       -0.0584500     2.8482670    -0.7690020
  C       -3.0319510    -0.1194250     0.3623450
  C       -2.7230760    -1.4503270     0.0616580
  H        0.9974690    -2.0891180    -1.1576180
  H        1.1650960    -0.0456930     1.7889680
  H        2.8821530     0.3846540     1.5322680
  H       -2.2754030     1.8777800     0.5574090
  H       -1.1609050    -2.8458310    -0.4446670
  H       -0.7945500     3.4046450    -0.1790500
  H       -0.5037450     2.6486950    -1.7485080
  H        0.8332190     3.4662990    -0.8854880
  H       -4.0517820     0.1644530     0.6082680
  H       -3.5008180    -2.2099170     0.0672390
units angstrom
no_reorient  #important for SAPT in psi4, default
symmetry c1  #important for SAPT in psi4, default
}

set PROPERTIES_ORIGIN ["COM"]
properties('MP2/aug-cc-pvtz', properties = ['dipole'])
--------------------------------------------------------------------------

    Molecular point group: c1
  Charge       = 0
  Multiplicity = 1
  Basis Set: AUG-CC-PVTZ
    Blend: AUG-CC-PVTZ
  Basis Set: (AUG-CC-PVTZ AUX)
    Blend: AUG-CC-PVTZ-JKFIT

    Orbital Energies [Eh]
    ---------------------

    Doubly Occupied:

       1A    -20.531792     2A    -15.607179     3A    -15.568818
       4A    -11.362611     5A    -11.314088     6A    -11.301099
       7A    -11.266459     8A    -11.266355     9A    -11.265293
      10A    -11.265133    11A    -11.258120    12A    -11.253544
      13A    -11.233921    14A     -1.387919    15A     -1.274432
      16A     -1.226265    17A     -1.163961    18A     -1.063500
      19A     -1.035490    20A     -1.011055    21A     -0.955108
      22A     -0.884664    23A     -0.857870    24A     -0.796001
      25A     -0.765662    26A     -0.728798    27A     -0.689296
      28A     -0.679095    29A     -0.657417    30A     -0.646533
      31A     -0.626074    32A     -0.618228    33A     -0.604568
      34A     -0.586549    35A     -0.568337    36A     -0.558680
      37A     -0.542486    38A     -0.540393    39A     -0.527887
      40A     -0.516585    41A     -0.455609    42A     -0.444381
      43A     -0.418468    44A     -0.405455    45A     -0.354987
      46A     -0.331826

  @DF-RHF Final Energy:  -568.46346387830238

   => Energetics <=

    Nuclear Repulsion Energy =            760.2305221880319550
    One-Electron Energy =               -2280.5519892470583727
    Two-Electron Energy =                 951.8580031807240402
    Total Energy =                       -568.4634638783023775
  Basis Set: (AUG-CC-PVTZ AUX)
    Blend: AUG-CC-PVTZ-RI
    Molecular point group: c1

    Geometry (in Angstrom), charge = 0, multiplicity = 1:

       Center              X                  Y                   Z               Mass
    ------------   -----------------  -----------------  -----------------  -----------------
         O            3.110411242952    -1.418580349419    -0.215177568754    15.994914619570
         N            0.868954242952    -1.220506349419    -0.590222568754    14.003074004430
         N            1.517192242952     1.495789650581     0.334303431246    14.003074004430
         C           -0.733451757048     0.537441650581     0.032869431246    12.000000000000
         C           -0.428449757048    -0.815347349419    -0.237187568754    12.000000000000
         C            0.297161242952     1.595365650581    -0.084723568754    12.000000000000
         C            1.895283342952     0.226831650581     1.063055131246    12.000000000000
         C           -2.065629757048     0.872497650581     0.336329431246    12.000000000000
         C           -1.449943757048    -1.778582349419    -0.231955568754    12.000000000000
         C            2.049841242952    -0.861570349419     0.043753431246    12.000000000000
         C           -0.095793757048     2.878221650581    -0.769874568754    12.000000000000
         C           -3.069294757048    -0.089470349419     0.361472431246    12.000000000000
         C           -2.760419757048    -1.420372349419     0.060785431246    12.000000000000
         H            0.960125242952    -2.059163349419    -1.158490568754     1.007825032230
         H            1.127752242952    -0.015738349419     1.788095431246     1.007825032230
         H            2.844809242952     0.414608650581     1.531395431246     1.007825032230
         H           -2.312746757048     1.907734650581     0.556536431246     1.007825032230
         H           -1.198248757048    -2.815876349419    -0.445539568754     1.007825032230
         H           -0.831893757048     3.434599650581    -0.179922568754     1.007825032230
         H           -0.541088757048     2.678649650581    -1.749380568754     1.007825032230
         H            0.795875242952     3.496253650581    -0.886360568754     1.007825032230
         H           -4.089125757048     0.194407650581     0.607395431246     1.007825032230
         H           -3.538161757048    -2.179962349419     0.066366431246     1.007825032230

  Basis Set: AUG-CC-PVTZ
    Blend: AUG-CC-PVTZ
  Basis Set: (AUG-CC-PVTZ AUX)
    Blend: AUG-CC-PVTZ-JKFIT
	 Reference Energy          =    -568.4634638783023775 [Eh]
	 Singles Energy            =      -0.0000000000000000 [Eh]
	 Same-Spin Energy          =      -0.6143481447731945 [Eh]
	 Opposite-Spin Energy      =      -1.8876036825900164 [Eh]
	 Correlation Energy        =      -2.5019518273632109 [Eh]
	 Total Energy              =    -570.9654157056655777 [Eh]

	 ================> DF-SCS-MP2 Energies <==================
	-----------------------------------------------------------
	 SCS Same-Spin Scale       =       0.3333333333333333 [-]
	 SCS Opposite-Spin Scale   =       1.2000000000000000 [-]
	 SCS Same-Spin Energy      =      -0.2047827149243982 [Eh]
	 SCS Opposite-Spin Energy  =      -2.2651244191080195 [Eh]
	 SCS Correlation Energy    =      -2.4699071340324177 [Eh]
	 SCS Total Energy          =    -570.9333710123347601 [Eh]
	-----------------------------------------------------------

  Dipole Moment: [D]
     X:    -5.1041      Y:    -0.2410      Z:     0.2770     Total:     5.1173

*** Psi4 exiting successfully. Buy a developer a beer!
