                               Psi4 1.3.2 release

  ==> Input File <==

--------------------------------------------------------------------------
#psi4
#
memory 32 gb

molecule  {
0 1
  O        3.1477550    -1.4485350    -0.2143050
  N        0.9062980    -1.2504610    -0.5893500
  N        1.5545360     1.4658350     0.3351760
  C       -0.6961080     0.5074870     0.0337420
  C       -0.3911060    -0.8453020    -0.2363150
  C        0.3301103     1.5449776    -0.0753028
  C        1.9201190     0.2388570     1.0398190
  C       -2.0282860     0.8425430     0.3372020
  C       -1.4126000    -1.8085370    -0.2310830
  C        2.0871850    -0.8915250     0.0446260
  C       -0.0584500     2.8482670    -0.7690020
  C       -3.0319510    -0.1194250     0.3623450
  C       -2.7230760    -1.4503270     0.0616580
  H        0.9974690    -2.0891180    -1.1576180
  H        1.1650960    -0.0456930     1.7889680
  H        2.8821530     0.3846540     1.5322680
  H       -2.2754030     1.8777800     0.5574090
  H       -1.1609050    -2.8458310    -0.4446670
  H       -0.7945500     3.4046450    -0.1790500
  H       -0.5037450     2.6486950    -1.7485080
  H        0.8332190     3.4662990    -0.8854880
  H       -4.0517820     0.1644530     0.6082680
  H       -3.5008180    -2.2099170     0.0672390
units angstrom
no_reorient  #important for SAPT in psi4, default
symmetry c1  #important for SAPT in psi4, default
}

set PROPERTIES_ORIGIN ["COM"]
properties('MP2/aug-cc-pvtz', properties = ['dipole'])
--------------------------------------------------------------------------

    Molecular point group: c1
  Charge       = 0
  Multiplicity = 1
  Basis Set: AUG-CC-PVTZ
    Blend: AUG-CC-PVTZ
  Basis Set: (AUG-CC-PVTZ AUX)
    Blend: AUG-CC-PVTZ-JKFIT

    Orbital Energies [Eh]
    ---------------------

    Doubly Occupied:

       1A    -20.532335     2A    -15.607539     3A    -15.567367
       4A    -11.362644     5A    -11.315136     6A    -11.301613
       7A    -11.267526     8A    -11.266387     9A    -11.266280
      10A    -11.265449    11A    -11.258722    12A    -11.254330
      13A    -11.234085    14A     -1.387640    15A     -1.276919
      16A     -1.233281    17A     -1.165484    18A     -1.066394
      19A     -1.035551    20A     -1.009075    21A     -0.949748
      22A     -0.888151    23A     -0.858796    24A     -0.796455
      25A     -0.769013    26A     -0.729521    27A     -0.691500
      28A     -0.678069    29A     -0.658242    30A     -0.648525
      31A     -0.626513    32A     -0.616713    33A     -0.604793
      34A     -0.584421    35A     -0.567365    36A     -0.558104
      37A     -0.544146    38A     -0.538220    39A     -0.528224
      40A     -0.513526    41A     -0.458090    42A     -0.444943
      43A     -0.418729    44A     -0.406538    45A     -0.354969
      46A     -0.332840

  @DF-RHF Final Energy:  -568.46472300542405

   => Energetics <=

    Nuclear Repulsion Energy =            761.0160624076054319
    One-Electron Energy =               -2282.0817476163638275
    Two-Electron Energy =                 952.6009622033343476
    Total Energy =                       -568.4647230054240481
  Basis Set: (AUG-CC-PVTZ AUX)
    Blend: AUG-CC-PVTZ-RI
    Molecular point group: c1

    Geometry (in Angstrom), charge = 0, multiplicity = 1:

       Center              X                  Y                   Z               Mass
    ------------   -----------------  -----------------  -----------------  -----------------
         O            3.111576422183    -1.420065644803    -0.214104919760    15.994914619570
         N            0.870119422183    -1.221991644803    -0.589149919760    14.003074004430
         N            1.518357422183     1.494304355197     0.335376080240    14.003074004430
         C           -0.732286577817     0.535956355197     0.033942080240    12.000000000000
         C           -0.427284577817    -0.816832644803    -0.236114919760    12.000000000000
         C            0.293931722183     1.573446955197    -0.075102719760    12.000000000000
         C            1.883940422183     0.267326355197     1.040019080240    12.000000000000
         C           -2.064464577817     0.871012355197     0.337402080240    12.000000000000
         C           -1.448778577817    -1.780067644803    -0.230882919760    12.000000000000
         C            2.051006422183    -0.863055644803     0.044826080240    12.000000000000
         C           -0.094628577817     2.876736355197    -0.768801919760    12.000000000000
         C           -3.068129577817    -0.090955644803     0.362545080240    12.000000000000
         C           -2.759254577817    -1.421857644803     0.061858080240    12.000000000000
         H            0.961290422183    -2.060648644803    -1.157417919760     1.007825032230
         H            1.128917422183    -0.017223644803     1.789168080240     1.007825032230
         H            2.845974422183     0.413123355197     1.532468080240     1.007825032230
         H           -2.311581577817     1.906249355197     0.557609080240     1.007825032230
         H           -1.197083577817    -2.817361644803    -0.444466919760     1.007825032230
         H           -0.830728577817     3.433114355197    -0.178849919760     1.007825032230
         H           -0.539923577817     2.677164355197    -1.748307919760     1.007825032230
         H            0.797040422183     3.494768355197    -0.885287919760     1.007825032230
         H           -4.087960577817     0.192922355197     0.608468080240     1.007825032230
         H           -3.536996577817    -2.181447644803     0.067439080240     1.007825032230

  Basis Set: AUG-CC-PVTZ
    Blend: AUG-CC-PVTZ
  Basis Set: (AUG-CC-PVTZ AUX)
    Blend: AUG-CC-PVTZ-JKFIT
	 Reference Energy          =    -568.4647230054240481 [Eh]
	 Singles Energy            =      -0.0000000000000000 [Eh]
	 Same-Spin Energy          =      -0.6145955352299556 [Eh]
	 Opposite-Spin Energy      =      -1.8874424786760917 [Eh]
	 Correlation Energy        =      -2.5020380139060472 [Eh]
	 Total Energy              =    -570.9667610193300789 [Eh]

	 ================> DF-SCS-MP2 Energies <==================
	-----------------------------------------------------------
	 SCS Same-Spin Scale       =       0.3333333333333333 [-]
	 SCS Opposite-Spin Scale   =       1.2000000000000000 [-]
	 SCS Same-Spin Energy      =      -0.2048651784099852 [Eh]
	 SCS Opposite-Spin Energy  =      -2.2649309744113100 [Eh]
	 SCS Correlation Energy    =      -2.4697961528212953 [Eh]
	 SCS Total Energy          =    -570.9345191582453936 [Eh]
	-----------------------------------------------------------

  Dipole Moment: [D]
     X:    -5.1337      Y:    -0.3152      Z:     0.2507     Total:     5.1495

*** Psi4 exiting successfully. Buy a developer a beer!
