                               Psi4 1.3.2 release

  ==> Input File <==

--------------------------------------------------------------------------
#psi4
#
memory 32 gb

molecule  {
0 1
  O        3.1477550    -1.4485350    -0.2143050
  N        0.9062980    -1.2504610    -0.5893500
  N        1.5346669     1.3824076     0.3634697
  C       -0.6961080     0.5074870     0.0337420
  C       -0.3911060    -0.8453020    -0.2363150
  C        0.3345050     1.5654110    -0.0838510
  C        1.9201190     0.2388570     1.0398190
  C       -2.0282860     0.8425430     0.3372020
  C       -1.4126000    -1.8085370    -0.2310830
  C        2.0871850    -0.8915250     0.0446260
  C       -0.0584500     2.8482670    -0.7690020
  C       -3.0319510    -0.1194250     0.3623450
  C       -2.7230760    -1.4503270     0.0616580
  H        0.9974690    -2.0891180    -1.1576180
  H        1.1650960    -0.0456930     1.7889680
  H        2.8821530     0.3846540     1.5322680
  H       -2.2754030     1.8777800     0.5574090
  H       -1.1609050    -2.8458310    -0.4446670
  H       -0.7945500     3.4046450    -0.1790500
  H       -0.5037450     2.6486950    -1.7485080
  H        0.8332190     3.4662990    -0.8854880
  H       -4.0517820     0.1644530     0.6082680
  H       -3.5008180    -2.2099170     0.0672390
units angstrom
no_reorient  #important for SAPT in psi4, default
symmetry c1  #important for SAPT in psi4, default
}

set PROPERTIES_ORIGIN ["COM"]
properties('MP2/aug-cc-pvtz', properties = ['dipole'])
--------------------------------------------------------------------------

    Molecular point group: c1
  Charge       = 0
  Multiplicity = 1
  Basis Set: AUG-CC-PVTZ
    Blend: AUG-CC-PVTZ
  Basis Set: (AUG-CC-PVTZ AUX)
    Blend: AUG-CC-PVTZ-JKFIT

    Orbital Energies [Eh]
    ---------------------

    Doubly Occupied:

       1A    -20.531640     2A    -15.606286     3A    -15.559212
       4A    -11.361623     5A    -11.312829     6A    -11.304112
       7A    -11.264627     8A    -11.263955     9A    -11.263701
      10A    -11.262916    11A    -11.257165    12A    -11.252514
      13A    -11.237847    14A     -1.387300    15A     -1.280001
      16A     -1.240361    17A     -1.164022    18A     -1.071182
      19A     -1.034165    20A     -1.011892    21A     -0.952152
      22A     -0.886351    23A     -0.856755    24A     -0.796438
      25A     -0.771319    26A     -0.728611    27A     -0.696127
      28A     -0.680815    29A     -0.656985    30A     -0.650075
      31A     -0.625309    32A     -0.624381    33A     -0.606443
      34A     -0.587942    35A     -0.566351    36A     -0.559519
      37A     -0.552509    38A     -0.539588    39A     -0.527697
      40A     -0.516006    41A     -0.459285    42A     -0.443935
      43A     -0.409138    44A     -0.397815    45A     -0.352301
      46A     -0.330956

  @DF-RHF Final Energy:  -568.46178681729646

   => Energetics <=

    Nuclear Repulsion Energy =            762.7091113794689363
    One-Electron Energy =               -2285.4574820440006988
    Two-Electron Energy =                 954.2865838472351925
    Total Energy =                       -568.4617868172964563
  Basis Set: (AUG-CC-PVTZ AUX)
    Blend: AUG-CC-PVTZ-RI
    Molecular point group: c1

    Geometry (in Angstrom), charge = 0, multiplicity = 1:

       Center              X                  Y                   Z               Mass
    ------------   -----------------  -----------------  -----------------  -----------------
         O            3.112871763220    -1.414763238443    -0.215791624343    15.994914619570
         N            0.871414763220    -1.216689238443    -0.590836624343    14.003074004430
         N            1.499783663220     1.416179361557     0.361983075657    14.003074004430
         C           -0.730991236780     0.541258761557     0.032255375657    12.000000000000
         C           -0.425989236780    -0.811530238443    -0.237801624343    12.000000000000
         C            0.299621763220     1.599182761557    -0.085337624343    12.000000000000
         C            1.885235763220     0.272628761557     1.038332375657    12.000000000000
         C           -2.063169236780     0.876314761557     0.335715375657    12.000000000000
         C           -1.447483236780    -1.774765238443    -0.232569624343    12.000000000000
         C            2.052301763220    -0.857753238443     0.043139375657    12.000000000000
         C           -0.093333236780     2.882038761557    -0.770488624343    12.000000000000
         C           -3.066834236780    -0.085653238443     0.360858375657    12.000000000000
         C           -2.757959236780    -1.416555238443     0.060171375657    12.000000000000
         H            0.962585763220    -2.055346238443    -1.159104624343     1.007825032230
         H            1.130212763220    -0.011921238443     1.787481375657     1.007825032230
         H            2.847269763220     0.418425761557     1.530781375657     1.007825032230
         H           -2.310286236780     1.911551761557     0.555922375657     1.007825032230
         H           -1.195788236780    -2.812059238443    -0.446153624343     1.007825032230
         H           -0.829433236780     3.438416761557    -0.180536624343     1.007825032230
         H           -0.538628236780     2.682466761557    -1.749994624343     1.007825032230
         H            0.798335763220     3.500070761557    -0.886974624343     1.007825032230
         H           -4.086665236780     0.198224761557     0.606781375657     1.007825032230
         H           -3.535701236780    -2.176145238443     0.065752375657     1.007825032230

  Basis Set: AUG-CC-PVTZ
    Blend: AUG-CC-PVTZ
  Basis Set: (AUG-CC-PVTZ AUX)
    Blend: AUG-CC-PVTZ-JKFIT
	 Reference Energy          =    -568.4617868172964563 [Eh]
	 Singles Energy            =      -0.0000000000000000 [Eh]
	 Same-Spin Energy          =      -0.6150251585779163 [Eh]
	 Opposite-Spin Energy      =      -1.8864492777136677 [Eh]
	 Correlation Energy        =      -2.5014744362915842 [Eh]
	 Total Energy              =    -570.9632612535880298 [Eh]

	 ================> DF-SCS-MP2 Energies <==================
	-----------------------------------------------------------
	 SCS Same-Spin Scale       =       0.3333333333333333 [-]
	 SCS Opposite-Spin Scale   =       1.2000000000000000 [-]
	 SCS Same-Spin Energy      =      -0.2050083861926388 [Eh]
	 SCS Opposite-Spin Energy  =      -2.2637391332564012 [Eh]
	 SCS Correlation Energy    =      -2.4687475194490398 [Eh]
	 SCS Total Energy          =    -570.9305343367454952 [Eh]
	-----------------------------------------------------------

  Dipole Moment: [D]
     X:    -5.0179      Y:    -0.0720      Z:     0.1565     Total:     5.0209

*** Psi4 exiting successfully. Buy a developer a beer!
