                               Psi4 1.3.2 release

  ==> Input File <==

--------------------------------------------------------------------------
#psi4
#
memory 32 gb

molecule  {
0 1
  O        3.1477550    -1.4485350    -0.2143050
  N        0.9062980    -1.2504610    -0.5893500
  N        1.5545360     1.4658350     0.3351760
  C       -0.6961080     0.5074870     0.0337420
  C       -0.3746663    -0.8630259    -0.2323054
  C        0.3345050     1.5654110    -0.0838510
  C        1.9201190     0.2388570     1.0398190
  C       -2.0282860     0.8425430     0.3372020
  C       -1.4126000    -1.8085370    -0.2310830
  C        2.0871850    -0.8915250     0.0446260
  C       -0.0584500     2.8482670    -0.7690020
  C       -3.0319510    -0.1194250     0.3623450
  C       -2.7230760    -1.4503270     0.0616580
  H        0.9974690    -2.0891180    -1.1576180
  H        1.1650960    -0.0456930     1.7889680
  H        2.8821530     0.3846540     1.5322680
  H       -2.2754030     1.8777800     0.5574090
  H       -1.1609050    -2.8458310    -0.4446670
  H       -0.7945500     3.4046450    -0.1790500
  H       -0.5037450     2.6486950    -1.7485080
  H        0.8332190     3.4662990    -0.8854880
  H       -4.0517820     0.1644530     0.6082680
  H       -3.5008180    -2.2099170     0.0672390
units angstrom
no_reorient  #important for SAPT in psi4, default
symmetry c1  #important for SAPT in psi4, default
}

set PROPERTIES_ORIGIN ["COM"]
properties('MP2/aug-cc-pvtz', properties = ['dipole'])
--------------------------------------------------------------------------

    Molecular point group: c1
  Charge       = 0
  Multiplicity = 1
  Basis Set: AUG-CC-PVTZ
    Blend: AUG-CC-PVTZ
  Basis Set: (AUG-CC-PVTZ AUX)
    Blend: AUG-CC-PVTZ-JKFIT

    Orbital Energies [Eh]
    ---------------------

    Doubly Occupied:

       1A    -20.533945     2A    -15.608745     3A    -15.566601
       4A    -11.364080     5A    -11.315309     6A    -11.301966
       7A    -11.267446     8A    -11.267273     9A    -11.265736
      10A    -11.265222    11A    -11.257436    12A    -11.252972
      13A    -11.233851    14A     -1.389461    15A     -1.280004
      16A     -1.234507    17A     -1.162815    18A     -1.064350
      19A     -1.035309    20A     -1.009374    21A     -0.952115
      22A     -0.886610    23A     -0.858184    24A     -0.796797
      25A     -0.766814    26A     -0.732074    27A     -0.692102
      28A     -0.678570    29A     -0.658151    30A     -0.645900
      31A     -0.625521    32A     -0.618554    33A     -0.606667
      34A     -0.586380    35A     -0.568230    36A     -0.558609
      37A     -0.543550    38A     -0.538850    39A     -0.526781
      40A     -0.513232    41A     -0.458758    42A     -0.446883
      43A     -0.417259    44A     -0.405791    45A     -0.354300
      46A     -0.329533

  @DF-RHF Final Energy:  -568.46447685781482

   => Energetics <=

    Nuclear Repulsion Energy =            760.6714075141162539
    One-Electron Energy =               -2281.3865339880526335
    Two-Electron Energy =                 952.2506496161215637
    Total Energy =                       -568.4644768578148160
  Basis Set: (AUG-CC-PVTZ AUX)
    Blend: AUG-CC-PVTZ-RI
    Molecular point group: c1

    Geometry (in Angstrom), charge = 0, multiplicity = 1:

       Center              X                  Y                   Z               Mass
    ------------   -----------------  -----------------  -----------------  -----------------
         O            3.110140221662    -1.420252421735    -0.213792055474    15.994914619570
         N            0.868683221662    -1.222178421735    -0.588837055474    14.003074004430
         N            1.516921221662     1.494117578265     0.335688944526    14.003074004430
         C           -0.733722778338     0.535769578265     0.034254944526    12.000000000000
         C           -0.412281078338    -0.834743321735    -0.231792455474    12.000000000000
         C            0.296890221662     1.593693578265    -0.083338055474    12.000000000000
         C            1.882504221662     0.267139578265     1.040331944526    12.000000000000
         C           -2.065900778338     0.870825578265     0.337714944526    12.000000000000
         C           -1.450214778338    -1.780254421735    -0.230570055474    12.000000000000
         C            2.049570221662    -0.863242421735     0.045138944526    12.000000000000
         C           -0.096064778338     2.876549578265    -0.768489055474    12.000000000000
         C           -3.069565778338    -0.091142421735     0.362857944526    12.000000000000
         C           -2.760690778338    -1.422044421735     0.062170944526    12.000000000000
         H            0.959854221662    -2.060835421735    -1.157105055474     1.007825032230
         H            1.127481221662    -0.017410421735     1.789480944526     1.007825032230
         H            2.844538221662     0.412936578265     1.532780944526     1.007825032230
         H           -2.313017778338     1.906062578265     0.557921944526     1.007825032230
         H           -1.198519778338    -2.817548421735    -0.444154055474     1.007825032230
         H           -0.832164778338     3.432927578265    -0.178537055474     1.007825032230
         H           -0.541359778338     2.676977578265    -1.747995055474     1.007825032230
         H            0.795604221662     3.494581578265    -0.884975055474     1.007825032230
         H           -4.089396778338     0.192735578265     0.608780944526     1.007825032230
         H           -3.538432778338    -2.181634421735     0.067751944526     1.007825032230

  Basis Set: AUG-CC-PVTZ
    Blend: AUG-CC-PVTZ
  Basis Set: (AUG-CC-PVTZ AUX)
    Blend: AUG-CC-PVTZ-JKFIT
	 Reference Energy          =    -568.4644768578148160 [Eh]
	 Singles Energy            =      -0.0000000000000000 [Eh]
	 Same-Spin Energy          =      -0.6147354431149032 [Eh]
	 Opposite-Spin Energy      =      -1.8874126221155181 [Eh]
	 Correlation Energy        =      -2.5021480652304211 [Eh]
	 Total Energy              =    -570.9666249230452877 [Eh]

	 ================> DF-SCS-MP2 Energies <==================
	-----------------------------------------------------------
	 SCS Same-Spin Scale       =       0.3333333333333333 [-]
	 SCS Opposite-Spin Scale   =       1.2000000000000000 [-]
	 SCS Same-Spin Energy      =      -0.2049118143716344 [Eh]
	 SCS Opposite-Spin Energy  =      -2.2648951465386218 [Eh]
	 SCS Correlation Energy    =      -2.4698069609102564 [Eh]
	 SCS Total Energy          =    -570.9342838187250209 [Eh]
	-----------------------------------------------------------

  Dipole Moment: [D]
     X:    -5.0166      Y:    -0.2755      Z:     0.2132     Total:     5.0286

*** Psi4 exiting successfully. Buy a developer a beer!
