                               Psi4 1.4a3.dev225

  ==> Input File <==

--------------------------------------------------------------------------
#psi4
#
memory 32 gb

molecule  {
0 1
  O        3.1477550    -1.4485350    -0.2143050
  N        0.9062980    -1.2504610    -0.5893500
  N        1.5545360     1.4658350     0.3351760
  C       -0.6961080     0.5074870     0.0337420
  C       -0.3911060    -0.8453020    -0.2363150
  C        0.3345050     1.5654110    -0.0838510
  C        1.9201190     0.2388570     1.0398190
  C       -2.0282860     0.8425430     0.3372020
  C       -1.4126000    -1.8085370    -0.2310830
  C        2.0871850    -0.8915250     0.0446260
  C       -0.0532332     2.8312361    -0.7599061
  C       -3.0319510    -0.1194250     0.3623450
  C       -2.7230760    -1.4503270     0.0616580
  H        0.9974690    -2.0891180    -1.1576180
  H        1.1650960    -0.0456930     1.7889680
  H        2.8821530     0.3846540     1.5322680
  H       -2.2754030     1.8777800     0.5574090
  H       -1.1609050    -2.8458310    -0.4446670
  H       -0.7945500     3.4046450    -0.1790500
  H       -0.5037450     2.6486950    -1.7485080
  H        0.8332190     3.4662990    -0.8854880
  H       -4.0517820     0.1644530     0.6082680
  H       -3.5008180    -2.2099170     0.0672390
units angstrom
no_reorient  #important for SAPT in psi4, default
symmetry c1  #important for SAPT in psi4, default
}

set PROPERTIES_ORIGIN ["COM"]
properties('MP2/aug-cc-pvtz', properties = ['dipole'])
--------------------------------------------------------------------------

    Molecular point group: c1
  Charge       = 0
  Multiplicity = 1
  Basis Set: AUG-CC-PVTZ
    Blend: AUG-CC-PVTZ
  Basis Set: (AUG-CC-PVTZ AUX)
    Blend: AUG-CC-PVTZ-JKFIT

    Orbital Energies [Eh]
    ---------------------

    Doubly Occupied:

       1A    -20.532260     2A    -15.607050     3A    -15.567002
       4A    -11.362598     5A    -11.314408     6A    -11.301557
       7A    -11.266958     8A    -11.266787     9A    -11.265599
      10A    -11.265440    11A    -11.258242    12A    -11.253735
      13A    -11.234784    14A     -1.387497    15A     -1.276210
      16A     -1.233548    17A     -1.164580    18A     -1.066567
      19A     -1.035357    20A     -1.012300    21A     -0.951488
      22A     -0.885426    23A     -0.858020    24A     -0.795563
      25A     -0.768227    26A     -0.729132    27A     -0.692102
      28A     -0.677793    29A     -0.657605    30A     -0.648547
      31A     -0.626081    32A     -0.620480    33A     -0.604806
      34A     -0.584659    35A     -0.566871    36A     -0.558005
      37A     -0.541526    38A     -0.539606    39A     -0.527198
      40A     -0.516618    41A     -0.457242    42A     -0.444554
      43A     -0.417927    44A     -0.405165    45A     -0.354994
      46A     -0.332230

  @DF-RHF Final Energy:  -568.46489872056259

   => Energetics <=

    Nuclear Repulsion Energy =            761.1518824803379175
    One-Electron Energy =               -2282.3648780128651197
    Two-Electron Energy =                 952.7480968119646150
    Total Energy =                       -568.4648987205625872
  Basis Set: (AUG-CC-PVTZ AUX)
    Blend: AUG-CC-PVTZ-RI
    Molecular point group: c1

    Geometry (in Angstrom), charge = 0, multiplicity = 1:

       Center              X                  Y                   Z               Mass
    ------------   -----------------  -----------------  -----------------  -----------------
         O            3.110913862123    -1.420300193064    -0.214142674964    15.994914619570
         N            0.869456862123    -1.222226193064    -0.589187674964    14.003074004430
         N            1.517694862123     1.494069806936     0.335338325036    14.003074004430
         C           -0.732949137877     0.535721806936     0.033904325036    12.000000000000
         C           -0.427947137877    -0.817067193064    -0.236152674964    12.000000000000
         C            0.297663862123     1.593645806936    -0.083688674964    12.000000000000
         C            1.883277862123     0.267091806936     1.039981325036    12.000000000000
         C           -2.065127137877     0.870777806936     0.337364325036    12.000000000000
         C           -1.449441137877    -1.780302193064    -0.230920674964    12.000000000000
         C            2.050343862123    -0.863290193064     0.044788325036    12.000000000000
         C           -0.090074337877     2.859470906936    -0.759743774964    12.000000000000
         C           -3.068792137877    -0.091190193064     0.362507325036    12.000000000000
         C           -2.759917137877    -1.422092193064     0.061820325036    12.000000000000
         H            0.960627862123    -2.060883193064    -1.157455674964     1.007825032230
         H            1.128254862123    -0.017458193064     1.789130325036     1.007825032230
         H            2.845311862123     0.412888806936     1.532430325036     1.007825032230
         H           -2.312244137877     1.906014806936     0.557571325036     1.007825032230
         H           -1.197746137877    -2.817596193064    -0.444504674964     1.007825032230
         H           -0.831391137877     3.432879806936    -0.178887674964     1.007825032230
         H           -0.540586137877     2.676929806936    -1.748345674964     1.007825032230
         H            0.796377862123     3.494533806936    -0.885325674964     1.007825032230
         H           -4.088623137877     0.192687806936     0.608430325036     1.007825032230
         H           -3.537659137877    -2.181682193064     0.067401325036     1.007825032230

  Basis Set: AUG-CC-PVTZ
    Blend: AUG-CC-PVTZ
  Basis Set: (AUG-CC-PVTZ AUX)
    Blend: AUG-CC-PVTZ-JKFIT
	 Reference Energy          =    -568.4648987205625872 [Eh]
	 Singles Energy            =      -0.0000000000000000 [Eh]
	 Same-Spin Energy          =      -0.6146502125188514 [Eh]
	 Opposite-Spin Energy      =      -1.8873575155611872 [Eh]
	 Correlation Energy        =      -2.5020077280800388 [Eh]
	 Total Energy              =    -570.9669064486425896 [Eh]

	 ================> DF-SCS-MP2 Energies <==================
	-----------------------------------------------------------
	 SCS Same-Spin Scale       =       0.3333333333333333 [-]
	 SCS Opposite-Spin Scale   =       1.2000000000000000 [-]
	 SCS Same-Spin Energy      =      -0.2048834041729505 [Eh]
	 SCS Opposite-Spin Energy  =      -2.2648290186734248 [Eh]
	 SCS Correlation Energy    =      -2.4697124228463752 [Eh]
	 SCS Total Energy          =    -570.9346111434089153 [Eh]
	-----------------------------------------------------------

  Dipole Moment: [D]
     X:    -5.1193      Y:    -0.2267      Z:     0.2204     Total:     5.1291

*** Psi4 exiting successfully. Buy a developer a beer!
