                               Psi4 1.4a3.dev225

  ==> Input File <==

--------------------------------------------------------------------------
#psi4
#
memory 32 gb

molecule  {
0 1
  O        3.1477550    -1.4485350    -0.2143050
  N        0.9062980    -1.2504610    -0.5893500
  N        1.5545360     1.4658350     0.3351760
  C       -0.6961080     0.5074870     0.0337420
  C       -0.3911060    -0.8453020    -0.2363150
  C        0.3345050     1.5654110    -0.0838510
  C        1.9201190     0.2388570     1.0398190
  C       -1.9809377     0.8306344     0.3264164
  C       -1.4126000    -1.8085370    -0.2310830
  C        2.0871850    -0.8915250     0.0446260
  C       -0.0584500     2.8482670    -0.7690020
  C       -3.0319510    -0.1194250     0.3623450
  C       -2.7230760    -1.4503270     0.0616580
  H        0.9974690    -2.0891180    -1.1576180
  H        1.1650960    -0.0456930     1.7889680
  H        2.8821530     0.3846540     1.5322680
  H       -2.2754030     1.8777800     0.5574090
  H       -1.1609050    -2.8458310    -0.4446670
  H       -0.7945500     3.4046450    -0.1790500
  H       -0.5037450     2.6486950    -1.7485080
  H        0.8332190     3.4662990    -0.8854880
  H       -4.0517820     0.1644530     0.6082680
  H       -3.5008180    -2.2099170     0.0672390
units angstrom
no_reorient  #important for SAPT in psi4, default
symmetry c1  #important for SAPT in psi4, default
}

set PROPERTIES_ORIGIN ["COM"]
properties('MP2/aug-cc-pvtz', properties = ['dipole'])
--------------------------------------------------------------------------

    Molecular point group: c1
  Charge       = 0
  Multiplicity = 1
  Basis Set: AUG-CC-PVTZ
    Blend: AUG-CC-PVTZ
  Basis Set: (AUG-CC-PVTZ AUX)
    Blend: AUG-CC-PVTZ-JKFIT

    Orbital Energies [Eh]
    ---------------------

    Doubly Occupied:

       1A    -20.532638     2A    -15.607051     3A    -15.567581
       4A    -11.362852     5A    -11.314426     6A    -11.302826
       7A    -11.267569     8A    -11.266108     9A    -11.264411
      10A    -11.261917    11A    -11.256896    12A    -11.255640
      13A    -11.234276    14A     -1.387786    15A     -1.276752
      16A     -1.233362    17A     -1.167067    18A     -1.069099
      19A     -1.032554    20A     -1.012501    21A     -0.951627
      22A     -0.882954    23A     -0.859914    24A     -0.796089
      25A     -0.769795    26A     -0.726720    27A     -0.692175
      28A     -0.678364    29A     -0.657770    30A     -0.648015
      31A     -0.626901    32A     -0.618310    33A     -0.602889
      34A     -0.586721    35A     -0.567046    36A     -0.557592
      37A     -0.545898    38A     -0.538834    39A     -0.528718
      40A     -0.512655    41A     -0.458169    42A     -0.443959
      43A     -0.417879    44A     -0.406606    45A     -0.359589
      46A     -0.328975

  @DF-RHF Final Energy:  -568.46254156244697

   => Energetics <=

    Nuclear Repulsion Energy =            761.6037114895909781
    One-Electron Energy =               -2283.2575436522015480
    Two-Electron Energy =                 953.1912906001635974
    Total Energy =                       -568.4625415624469724
  Basis Set: (AUG-CC-PVTZ AUX)
    Blend: AUG-CC-PVTZ-RI
    Molecular point group: c1

    Geometry (in Angstrom), charge = 0, multiplicity = 1:

       Center              X                  Y                   Z               Mass
    ------------   -----------------  -----------------  -----------------  -----------------
         O            3.108009565275    -1.420653294182    -0.212772161742    15.994914619570
         N            0.866552565275    -1.222579294182    -0.587817161742    14.003074004430
         N            1.514790565275     1.493716705818     0.336708838258    14.003074004430
         C           -0.735853434725     0.535368705818     0.035274838258    12.000000000000
         C           -0.430851434725    -0.817420294182    -0.234782161742    12.000000000000
         C            0.294759565275     1.593292705818    -0.082318161742    12.000000000000
         C            1.880373565275     0.266738705818     1.041351838258    12.000000000000
         C           -2.020683134725     0.858516105818     0.327949238258    12.000000000000
         C           -1.452345434725    -1.780655294182    -0.229550161742    12.000000000000
         C            2.047439565275    -0.863643294182     0.046158838258    12.000000000000
         C           -0.098195434725     2.876148705818    -0.767469161742    12.000000000000
         C           -3.071696434725    -0.091543294182     0.363877838258    12.000000000000
         C           -2.762821434725    -1.422445294182     0.063190838258    12.000000000000
         H            0.957723565275    -2.061236294182    -1.156085161742     1.007825032230
         H            1.125350565275    -0.017811294182     1.790500838258     1.007825032230
         H            2.842407565275     0.412535705818     1.533800838258     1.007825032230
         H           -2.315148434725     1.905661705818     0.558941838258     1.007825032230
         H           -1.200650434725    -2.817949294182    -0.443134161742     1.007825032230
         H           -0.834295434725     3.432526705818    -0.177517161742     1.007825032230
         H           -0.543490434725     2.676576705818    -1.746975161742     1.007825032230
         H            0.793473565275     3.494180705818    -0.883955161742     1.007825032230
         H           -4.091527434725     0.192334705818     0.609800838258     1.007825032230
         H           -3.540563434725    -2.182035294182     0.068771838258     1.007825032230

  Basis Set: AUG-CC-PVTZ
    Blend: AUG-CC-PVTZ
  Basis Set: (AUG-CC-PVTZ AUX)
    Blend: AUG-CC-PVTZ-JKFIT
	 Reference Energy          =    -568.4625415624469724 [Eh]
	 Singles Energy            =      -0.0000000000000000 [Eh]
	 Same-Spin Energy          =      -0.6144581923538972 [Eh]
	 Opposite-Spin Energy      =      -1.8872743398461986 [Eh]
	 Correlation Energy        =      -2.5017325322000961 [Eh]
	 Total Energy              =    -570.9642740946470667 [Eh]

	 ================> DF-SCS-MP2 Energies <==================
	-----------------------------------------------------------
	 SCS Same-Spin Scale       =       0.3333333333333333 [-]
	 SCS Opposite-Spin Scale   =       1.2000000000000000 [-]
	 SCS Same-Spin Energy      =      -0.2048193974512991 [Eh]
	 SCS Opposite-Spin Energy  =      -2.2647292078154382 [Eh]
	 SCS Correlation Energy    =      -2.4695486052667373 [Eh]
	 SCS Total Energy          =    -570.9320901677136817 [Eh]
	-----------------------------------------------------------

  Dipole Moment: [D]
     X:    -5.0941      Y:    -0.2333      Z:     0.2316     Total:     5.1047

*** Psi4 exiting successfully. Buy a developer a beer!
