                               Psi4 1.4a3.dev225

  ==> Input File <==

--------------------------------------------------------------------------
#psi4
#
memory 32 gb

molecule  {
0 1
  O        3.1477550    -1.4485350    -0.2143050
  N        0.9062980    -1.2504610    -0.5893500
  N        1.5545360     1.4658350     0.3351760
  C       -0.6961080     0.5074870     0.0337420
  C       -0.4019003    -0.7974257    -0.2267575
  C        0.3345050     1.5654110    -0.0838510
  C        1.9201190     0.2388570     1.0398190
  C       -2.0282860     0.8425430     0.3372020
  C       -1.4126000    -1.8085370    -0.2310830
  C        2.0871850    -0.8915250     0.0446260
  C       -0.0584500     2.8482670    -0.7690020
  C       -3.0319510    -0.1194250     0.3623450
  C       -2.7230760    -1.4503270     0.0616580
  H        0.9974690    -2.0891180    -1.1576180
  H        1.1650960    -0.0456930     1.7889680
  H        2.8821530     0.3846540     1.5322680
  H       -2.2754030     1.8777800     0.5574090
  H       -1.1609050    -2.8458310    -0.4446670
  H       -0.7945500     3.4046450    -0.1790500
  H       -0.5037450     2.6486950    -1.7485080
  H        0.8332190     3.4662990    -0.8854880
  H       -4.0517820     0.1644530     0.6082680
  H       -3.5008180    -2.2099170     0.0672390
units angstrom
no_reorient  #important for SAPT in psi4, default
symmetry c1  #important for SAPT in psi4, default
}

set PROPERTIES_ORIGIN ["COM"]
properties('MP2/aug-cc-pvtz', properties = ['dipole'])
--------------------------------------------------------------------------

    Molecular point group: c1
  Charge       = 0
  Multiplicity = 1
  Basis Set: AUG-CC-PVTZ
    Blend: AUG-CC-PVTZ
  Basis Set: (AUG-CC-PVTZ AUX)
    Blend: AUG-CC-PVTZ-JKFIT

    Orbital Energies [Eh]
    ---------------------

    Doubly Occupied:

       1A    -20.529702     2A    -15.605099     3A    -15.567748
       4A    -11.359960     5A    -11.313277     6A    -11.302843
       7A    -11.266927     8A    -11.266501     9A    -11.265345
      10A    -11.262304    11A    -11.261896    12A    -11.254978
      13A    -11.234722    14A     -1.384800    15A     -1.272347
      16A     -1.229917    17A     -1.167068    18A     -1.068455
      19A     -1.032026    20A     -1.015727    21A     -0.951050
      22A     -0.883216    23A     -0.859739    24A     -0.792762
      25A     -0.770554    26A     -0.724152    27A     -0.691458
      28A     -0.676679    29A     -0.655874    30A     -0.653870
      31A     -0.626097    32A     -0.617901    33A     -0.601343
      34A     -0.586659    35A     -0.564859    36A     -0.559096
      37A     -0.543265    38A     -0.539499    39A     -0.529429
      40A     -0.518400    41A     -0.456059    42A     -0.441002
      43A     -0.417818    44A     -0.404461    45A     -0.356912
      46A     -0.335509

  @DF-RHF Final Energy:  -568.46301918479571

   => Energetics <=

    Nuclear Repulsion Energy =            761.1120787854129048
    One-Electron Energy =               -2282.3115840128612035
    Two-Electron Energy =                 952.7364860426525865
    Total Energy =                       -568.4630191847957121
  Basis Set: (AUG-CC-PVTZ AUX)
    Blend: AUG-CC-PVTZ-RI
    Molecular point group: c1

    Geometry (in Angstrom), charge = 0, multiplicity = 1:

       Center              X                  Y                   Z               Mass
    ------------   -----------------  -----------------  -----------------  -----------------
         O            3.112017572821    -1.424774512193    -0.214174494942    15.994914619570
         N            0.870560572821    -1.226700512193    -0.589219494942    14.003074004430
         N            1.518798572821     1.489595487807     0.335306505058    14.003074004430
         C           -0.731845427179     0.531247487807     0.033872505058    12.000000000000
         C           -0.437637727179    -0.773665212193    -0.226626994942    12.000000000000
         C            0.298767572821     1.589171487807    -0.083720494942    12.000000000000
         C            1.884381572821     0.262617487807     1.039949505058    12.000000000000
         C           -2.064023427179     0.866303487807     0.337332505058    12.000000000000
         C           -1.448337427179    -1.784776512193    -0.230952494942    12.000000000000
         C            2.051447572821    -0.867764512193     0.044756505058    12.000000000000
         C           -0.094187427179     2.872027487807    -0.768871494942    12.000000000000
         C           -3.067688427179    -0.095664512193     0.362475505058    12.000000000000
         C           -2.758813427179    -1.426566512193     0.061788505058    12.000000000000
         H            0.961731572821    -2.065357512193    -1.157487494942     1.007825032230
         H            1.129358572821    -0.021932512193     1.789098505058     1.007825032230
         H            2.846415572821     0.408414487807     1.532398505058     1.007825032230
         H           -2.311140427179     1.901540487807     0.557539505058     1.007825032230
         H           -1.196642427179    -2.822070512193    -0.444536494942     1.007825032230
         H           -0.830287427179     3.428405487807    -0.178919494942     1.007825032230
         H           -0.539482427179     2.672455487807    -1.748377494942     1.007825032230
         H            0.797481572821     3.490059487807    -0.885357494942     1.007825032230
         H           -4.087519427179     0.188213487807     0.608398505058     1.007825032230
         H           -3.536555427179    -2.186156512193     0.067369505058     1.007825032230

  Basis Set: AUG-CC-PVTZ
    Blend: AUG-CC-PVTZ
  Basis Set: (AUG-CC-PVTZ AUX)
    Blend: AUG-CC-PVTZ-JKFIT
	 Reference Energy          =    -568.4630191847957121 [Eh]
	 Singles Energy            =      -0.0000000000000000 [Eh]
	 Same-Spin Energy          =      -0.6140227760628720 [Eh]
	 Opposite-Spin Energy      =      -1.8870443518156403 [Eh]
	 Correlation Energy        =      -2.5010671278785122 [Eh]
	 Total Energy              =    -570.9640863126742261 [Eh]

	 ================> DF-SCS-MP2 Energies <==================
	-----------------------------------------------------------
	 SCS Same-Spin Scale       =       0.3333333333333333 [-]
	 SCS Opposite-Spin Scale   =       1.2000000000000000 [-]
	 SCS Same-Spin Energy      =      -0.2046742586876240 [Eh]
	 SCS Opposite-Spin Energy  =      -2.2644532221787683 [Eh]
	 SCS Correlation Energy    =      -2.4691274808663923 [Eh]
	 SCS Total Energy          =    -570.9321466656621169 [Eh]
	-----------------------------------------------------------

  Dipole Moment: [D]
     X:    -5.2480      Y:    -0.1934      Z:     0.2413     Total:     5.2571

*** Psi4 exiting successfully. Buy a developer a beer!
