                               Psi4 1.4a3.dev225

  ==> Input File <==

--------------------------------------------------------------------------
#psi4
#
memory 32 gb

molecule  {
0 1
  O        3.1477550    -1.4485350    -0.2143050
  N        0.9062980    -1.2504610    -0.5893500
  N        1.5545360     1.4658350     0.3351760
  C       -0.6961080     0.5074870     0.0337420
  C       -0.3911060    -0.8453020    -0.2363150
  C        0.2997250     1.5297094    -0.0798826
  C        1.9201190     0.2388570     1.0398190
  C       -2.0282860     0.8425430     0.3372020
  C       -1.4126000    -1.8085370    -0.2310830
  C        2.0871850    -0.8915250     0.0446260
  C       -0.0584500     2.8482670    -0.7690020
  C       -3.0319510    -0.1194250     0.3623450
  C       -2.7230760    -1.4503270     0.0616580
  H        0.9974690    -2.0891180    -1.1576180
  H        1.1650960    -0.0456930     1.7889680
  H        2.8821530     0.3846540     1.5322680
  H       -2.2754030     1.8777800     0.5574090
  H       -1.1609050    -2.8458310    -0.4446670
  H       -0.7945500     3.4046450    -0.1790500
  H       -0.5037450     2.6486950    -1.7485080
  H        0.8332190     3.4662990    -0.8854880
  H       -4.0517820     0.1644530     0.6082680
  H       -3.5008180    -2.2099170     0.0672390
units angstrom
no_reorient  #important for SAPT in psi4, default
symmetry c1  #important for SAPT in psi4, default
}

set PROPERTIES_ORIGIN ["COM"]
properties('MP2/aug-cc-pvtz', properties = ['dipole'])
--------------------------------------------------------------------------

    Molecular point group: c1
  Charge       = 0
  Multiplicity = 1
  Basis Set: AUG-CC-PVTZ
    Blend: AUG-CC-PVTZ
  Basis Set: (AUG-CC-PVTZ AUX)
    Blend: AUG-CC-PVTZ-JKFIT

    Orbital Energies [Eh]
    ---------------------

    Doubly Occupied:

       1A    -20.531788     2A    -15.607996     3A    -15.568885
       4A    -11.362009     5A    -11.317020     6A    -11.302978
       7A    -11.268911     8A    -11.267901     9A    -11.264657
      10A    -11.264446    11A    -11.259709    12A    -11.255268
      13A    -11.234731    14A     -1.387170    15A     -1.276188
      16A     -1.225541    17A     -1.167032    18A     -1.070186
      19A     -1.036129    20A     -1.007963    21A     -0.945614
      22A     -0.892642    23A     -0.860066    24A     -0.797524
      25A     -0.770700    26A     -0.730904    27A     -0.690053
      28A     -0.677332    29A     -0.659220    30A     -0.649160
      31A     -0.627256    32A     -0.614782    33A     -0.603661
      34A     -0.584232    35A     -0.567518    36A     -0.559502
      37A     -0.544946    38A     -0.537266    39A     -0.528354
      40A     -0.512200    41A     -0.455522    42A     -0.445131
      43A     -0.419960    44A     -0.404685    45A     -0.353036
      46A     -0.333526

  @DF-RHF Final Energy:  -568.45912987595352

   => Energetics <=

    Nuclear Repulsion Energy =            761.1403707488841519
    One-Electron Energy =               -2282.3163978705288173
    Two-Electron Energy =                 952.7168972456911433
    Total Energy =                       -568.4591298759535221
  Basis Set: (AUG-CC-PVTZ AUX)
    Blend: AUG-CC-PVTZ-RI
    Molecular point group: c1

    Geometry (in Angstrom), charge = 0, multiplicity = 1:

       Center              X                  Y                   Z               Mass
    ------------   -----------------  -----------------  -----------------  -----------------
         O            3.113671005358    -1.419013145245    -0.213789215389    15.994914619570
         N            0.872214005358    -1.220939145245    -0.588834215389    14.003074004430
         N            1.520452005358     1.495356854755     0.335691784611    14.003074004430
         C           -0.730191994642     0.537008854755     0.034257784611    12.000000000000
         C           -0.425189994642    -0.815780145245    -0.235799215389    12.000000000000
         C            0.265641005358     1.559231254755    -0.079366815389    12.000000000000
         C            1.886035005358     0.268378854755     1.040334784611    12.000000000000
         C           -2.062369994642     0.872064854755     0.337717784611    12.000000000000
         C           -1.446683994642    -1.779015145245    -0.230567215389    12.000000000000
         C            2.053101005358    -0.862003145245     0.045141784611    12.000000000000
         C           -0.092533994642     2.877788854755    -0.768486215389    12.000000000000
         C           -3.066034994642    -0.089903145245     0.362860784611    12.000000000000
         C           -2.757159994642    -1.420805145245     0.062173784611    12.000000000000
         H            0.963385005358    -2.059596145245    -1.157102215389     1.007825032230
         H            1.131012005358    -0.016171145245     1.789483784611     1.007825032230
         H            2.848069005358     0.414175854755     1.532783784611     1.007825032230
         H           -2.309486994642     1.907301854755     0.557924784611     1.007825032230
         H           -1.194988994642    -2.816309145245    -0.444151215389     1.007825032230
         H           -0.828633994642     3.434166854755    -0.178534215389     1.007825032230
         H           -0.537828994642     2.678216854755    -1.747992215389     1.007825032230
         H            0.799135005358     3.495820854755    -0.884972215389     1.007825032230
         H           -4.085865994642     0.193974854755     0.608783784611     1.007825032230
         H           -3.534901994642    -2.180395145245     0.067754784611     1.007825032230

  Basis Set: AUG-CC-PVTZ
    Blend: AUG-CC-PVTZ
  Basis Set: (AUG-CC-PVTZ AUX)
    Blend: AUG-CC-PVTZ-JKFIT
	 Reference Energy          =    -568.4591298759535221 [Eh]
	 Singles Energy            =      -0.0000000000000000 [Eh]
	 Same-Spin Energy          =      -0.6157170123015860 [Eh]
	 Opposite-Spin Energy      =      -1.8894135595576123 [Eh]
	 Correlation Energy        =      -2.5051305718591985 [Eh]
	 Total Energy              =    -570.9642604478127623 [Eh]

	 ================> DF-SCS-MP2 Energies <==================
	-----------------------------------------------------------
	 SCS Same-Spin Scale       =       0.3333333333333333 [-]
	 SCS Opposite-Spin Scale   =       1.2000000000000000 [-]
	 SCS Same-Spin Energy      =      -0.2052390041005287 [Eh]
	 SCS Opposite-Spin Energy  =      -2.2672962714691347 [Eh]
	 SCS Correlation Energy    =      -2.4725352755696632 [Eh]
	 SCS Total Energy          =    -570.9316651515231342 [Eh]
	-----------------------------------------------------------

  Dipole Moment: [D]
     X:    -5.2033      Y:    -0.3760      Z:     0.2427     Total:     5.2225

*** Psi4 exiting successfully. Buy a developer a beer!
