                               Psi4 1.3.2 release

  ==> Input File <==

--------------------------------------------------------------------------
#psi4
#
memory 32 gb

molecule  {
0 1
  O        3.1477550    -1.4485350    -0.2143050
  N        0.9062980    -1.2504610    -0.5893500
  N        1.5552931     1.4531088     0.3130850
  C       -0.6961080     0.5074870     0.0337420
  C       -0.3911060    -0.8453020    -0.2363150
  C        0.3345050     1.5654110    -0.0838510
  C        1.9201190     0.2388570     1.0398190
  C       -2.0282860     0.8425430     0.3372020
  C       -1.4126000    -1.8085370    -0.2310830
  C        2.0871850    -0.8915250     0.0446260
  C       -0.0584500     2.8482670    -0.7690020
  C       -3.0319510    -0.1194250     0.3623450
  C       -2.7230760    -1.4503270     0.0616580
  H        0.9974690    -2.0891180    -1.1576180
  H        1.1650960    -0.0456930     1.7889680
  H        2.8821530     0.3846540     1.5322680
  H       -2.2754030     1.8777800     0.5574090
  H       -1.1609050    -2.8458310    -0.4446670
  H       -0.7945500     3.4046450    -0.1790500
  H       -0.5037450     2.6486950    -1.7485080
  H        0.8332190     3.4662990    -0.8854880
  H       -4.0517820     0.1644530     0.6082680
  H       -3.5008180    -2.2099170     0.0672390
units angstrom
no_reorient  #important for SAPT in psi4, default
symmetry c1  #important for SAPT in psi4, default
}

set PROPERTIES_ORIGIN ["COM"]
properties('MP2/aug-cc-pvtz', properties = ['dipole'])
--------------------------------------------------------------------------

    Molecular point group: c1
  Charge       = 0
  Multiplicity = 1
  Basis Set: AUG-CC-PVTZ
    Blend: AUG-CC-PVTZ
  Basis Set: (AUG-CC-PVTZ AUX)
    Blend: AUG-CC-PVTZ-JKFIT

    Orbital Energies [Eh]
    ---------------------

    Doubly Occupied:

       1A    -20.531852     2A    -15.606868     3A    -15.566231
       4A    -11.362236     5A    -11.314268     6A    -11.301509
       7A    -11.267473     8A    -11.266509     9A    -11.265327
      10A    -11.265264    11A    -11.258124    12A    -11.253554
      13A    -11.234068    14A     -1.387242    15A     -1.276412
      16A     -1.234043    17A     -1.164403    18A     -1.065394
      19A     -1.035187    20A     -1.011252    21A     -0.952182
      22A     -0.885356    23A     -0.857865    24A     -0.795311
      25A     -0.767568    26A     -0.728882    27A     -0.691434
      28A     -0.678430    29A     -0.657256    30A     -0.648727
      31A     -0.626022    32A     -0.618542    33A     -0.604365
      34A     -0.586354    35A     -0.566842    36A     -0.558715
      37A     -0.543960    38A     -0.539226    39A     -0.527745
      40A     -0.515717    41A     -0.457500    42A     -0.444395
      43A     -0.418668    44A     -0.404157    45A     -0.354856
      46A     -0.332119

  @DF-RHF Final Energy:  -568.46592468246479

   => Energetics <=

    Nuclear Repulsion Energy =            761.0502370898992694
    One-Electron Energy =               -2282.1734970733341470
    Two-Electron Energy =                 952.6573353009699758
    Total Energy =                       -568.4659246824647880
  Basis Set: (AUG-CC-PVTZ AUX)
    Blend: AUG-CC-PVTZ-RI
    Molecular point group: c1

    Geometry (in Angstrom), charge = 0, multiplicity = 1:

       Center              X                  Y                   Z               Mass
    ------------   -----------------  -----------------  -----------------  -----------------
         O            3.111212575806    -1.420450497423    -0.211738640270    15.994914619570
         N            0.869755575806    -1.222376497423    -0.586783640270    14.003074004430
         N            1.518750675806     1.481193302577     0.315651359730    14.003074004430
         C           -0.732650424194     0.535571502577     0.036308359730    12.000000000000
         C           -0.427648424194    -0.817217497423    -0.233748640270    12.000000000000
         C            0.297962575806     1.593495502577    -0.081284640270    12.000000000000
         C            1.883576575806     0.266941502577     1.042385359730    12.000000000000
         C           -2.064828424194     0.870627502577     0.339768359730    12.000000000000
         C           -1.449142424194    -1.780452497423    -0.228516640270    12.000000000000
         C            2.050642575806    -0.863440497423     0.047192359730    12.000000000000
         C           -0.094992424194     2.876351502577    -0.766435640270    12.000000000000
         C           -3.068493424194    -0.091340497423     0.364911359730    12.000000000000
         C           -2.759618424194    -1.422242497423     0.064224359730    12.000000000000
         H            0.960926575806    -2.061033497423    -1.155051640270     1.007825032230
         H            1.128553575806    -0.017608497423     1.791534359730     1.007825032230
         H            2.845610575806     0.412738502577     1.534834359730     1.007825032230
         H           -2.311945424194     1.905864502577     0.559975359730     1.007825032230
         H           -1.197447424194    -2.817746497423    -0.442100640270     1.007825032230
         H           -0.831092424194     3.432729502577    -0.176483640270     1.007825032230
         H           -0.540287424194     2.676779502577    -1.745941640270     1.007825032230
         H            0.796676575806     3.494383502577    -0.882921640270     1.007825032230
         H           -4.088324424194     0.192537502577     0.610834359730     1.007825032230
         H           -3.537360424194    -2.181832497423     0.069805359730     1.007825032230

  Basis Set: AUG-CC-PVTZ
    Blend: AUG-CC-PVTZ
  Basis Set: (AUG-CC-PVTZ AUX)
    Blend: AUG-CC-PVTZ-JKFIT
	 Reference Energy          =    -568.4659246824647880 [Eh]
	 Singles Energy            =      -0.0000000000000000 [Eh]
	 Same-Spin Energy          =      -0.6144088448547134 [Eh]
	 Opposite-Spin Energy      =      -1.8869218873795974 [Eh]
	 Correlation Energy        =      -2.5013307322343108 [Eh]
	 Total Energy              =    -570.9672554146991388 [Eh]

	 ================> DF-SCS-MP2 Energies <==================
	-----------------------------------------------------------
	 SCS Same-Spin Scale       =       0.3333333333333333 [-]
	 SCS Opposite-Spin Scale   =       1.2000000000000000 [-]
	 SCS Same-Spin Energy      =      -0.2048029482849044 [Eh]
	 SCS Opposite-Spin Energy  =      -2.2643062648555170 [Eh]
	 SCS Correlation Energy    =      -2.4691092131404213 [Eh]
	 SCS Total Energy          =    -570.9350338956052155 [Eh]
	-----------------------------------------------------------

  Dipole Moment: [D]
     X:    -5.1075      Y:    -0.2215      Z:     0.2672     Total:     5.1193

*** Psi4 exiting successfully. Buy a developer a beer!
