                               Psi4 1.3.2 release

  ==> Input File <==

--------------------------------------------------------------------------
#psi4
#
memory 32 gb

molecule  {
0 1
  O        3.1375238    -1.4611230    -0.2282486
  N        0.9062980    -1.2504610    -0.5893500
  N        1.5545360     1.4658350     0.3351760
  C       -0.6961080     0.5074870     0.0337420
  C       -0.3911060    -0.8453020    -0.2363150
  C        0.3345050     1.5654110    -0.0838510
  C        1.9201190     0.2388570     1.0398190
  C       -2.0282860     0.8425430     0.3372020
  C       -1.4126000    -1.8085370    -0.2310830
  C        2.0871850    -0.8915250     0.0446260
  C       -0.0584500     2.8482670    -0.7690020
  C       -3.0319510    -0.1194250     0.3623450
  C       -2.7230760    -1.4503270     0.0616580
  H        0.9974690    -2.0891180    -1.1576180
  H        1.1650960    -0.0456930     1.7889680
  H        2.8821530     0.3846540     1.5322680
  H       -2.2754030     1.8777800     0.5574090
  H       -1.1609050    -2.8458310    -0.4446670
  H       -0.7945500     3.4046450    -0.1790500
  H       -0.5037450     2.6486950    -1.7485080
  H        0.8332190     3.4662990    -0.8854880
  H       -4.0517820     0.1644530     0.6082680
  H       -3.5008180    -2.2099170     0.0672390
units angstrom
no_reorient  #important for SAPT in psi4, default
symmetry c1  #important for SAPT in psi4, default
}

set PROPERTIES_ORIGIN ["COM"]
properties('MP2/aug-cc-pvtz', properties = ['dipole'])
--------------------------------------------------------------------------

    Molecular point group: c1
  Charge       = 0
  Multiplicity = 1
  Basis Set: AUG-CC-PVTZ
    Blend: AUG-CC-PVTZ
  Basis Set: (AUG-CC-PVTZ AUX)
    Blend: AUG-CC-PVTZ-JKFIT

    Orbital Energies [Eh]
    ---------------------

    Doubly Occupied:

       1A    -20.532051     2A    -15.606043     3A    -15.567319
       4A    -11.362632     5A    -11.314037     6A    -11.302712
       7A    -11.268056     8A    -11.266723     9A    -11.265501
      10A    -11.265331    11A    -11.257978    12A    -11.253570
      13A    -11.234355    14A     -1.387831    15A     -1.275422
      16A     -1.232841    17A     -1.164302    18A     -1.065664
      19A     -1.035063    20A     -1.011229    21A     -0.952163
      22A     -0.885530    23A     -0.857776    24A     -0.795249
      25A     -0.768103    26A     -0.728621    27A     -0.691515
      28A     -0.677888    29A     -0.657366    30A     -0.648214
      31A     -0.626095    32A     -0.618358    33A     -0.604961
      34A     -0.586558    35A     -0.566881    36A     -0.558848
      37A     -0.543612    38A     -0.539073    39A     -0.527850
      40A     -0.515474    41A     -0.457595    42A     -0.444025
      43A     -0.417932    44A     -0.405909    45A     -0.354994
      46A     -0.331838

  @DF-RHF Final Energy:  -568.46552547764043

   => Energetics <=

    Nuclear Repulsion Energy =            760.7783422862103180
    One-Electron Energy =               -2281.6255646363106280
    Two-Electron Energy =                 952.3816968724598837
    Total Energy =                       -568.4655254776404263
  Basis Set: (AUG-CC-PVTZ AUX)
    Blend: AUG-CC-PVTZ-RI
    Molecular point group: c1

    Geometry (in Angstrom), charge = 0, multiplicity = 1:

       Center              X                  Y                   Z               Mass
    ------------   -----------------  -----------------  -----------------  -----------------
         O            3.101982349987    -1.432905580625    -0.226178078718    15.994914619570
         N            0.870756549987    -1.222243580625    -0.587279478718    14.003074004430
         N            1.518994549987     1.494052419375     0.337246521282    14.003074004430
         C           -0.731649450013     0.535704419375     0.035812521282    12.000000000000
         C           -0.426647450013    -0.817084580625    -0.234244478718    12.000000000000
         C            0.298963549987     1.593628419375    -0.081780478718    12.000000000000
         C            1.884577549987     0.267074419375     1.041889521282    12.000000000000
         C           -2.063827450013     0.870760419375     0.339272521282    12.000000000000
         C           -1.448141450013    -1.780319580625    -0.229012478718    12.000000000000
         C            2.051643549987    -0.863307580625     0.046696521282    12.000000000000
         C           -0.093991450013     2.876484419375    -0.766931478718    12.000000000000
         C           -3.067492450013    -0.091207580625     0.364415521282    12.000000000000
         C           -2.758617450013    -1.422109580625     0.063728521282    12.000000000000
         H            0.961927549987    -2.060900580625    -1.155547478718     1.007825032230
         H            1.129554549987    -0.017475580625     1.791038521282     1.007825032230
         H            2.846611549987     0.412871419375     1.534338521282     1.007825032230
         H           -2.310944450013     1.905997419375     0.559479521282     1.007825032230
         H           -1.196446450013    -2.817613580625    -0.442596478718     1.007825032230
         H           -0.830091450013     3.432862419375    -0.176979478718     1.007825032230
         H           -0.539286450013     2.676912419375    -1.746437478718     1.007825032230
         H            0.797677549987     3.494516419375    -0.883417478718     1.007825032230
         H           -4.087323450013     0.192670419375     0.610338521282     1.007825032230
         H           -3.536359450013    -2.181699580625     0.069309521282     1.007825032230

  Basis Set: AUG-CC-PVTZ
    Blend: AUG-CC-PVTZ
  Basis Set: (AUG-CC-PVTZ AUX)
    Blend: AUG-CC-PVTZ-JKFIT
	 Reference Energy          =    -568.4655254776404263 [Eh]
	 Singles Energy            =      -0.0000000000000000 [Eh]
	 Same-Spin Energy          =      -0.6144595487393041 [Eh]
	 Opposite-Spin Energy      =      -1.8871453624434702 [Eh]
	 Correlation Energy        =      -2.5016049111827741 [Eh]
	 Total Energy              =    -570.9671303888231932 [Eh]

	 ================> DF-SCS-MP2 Energies <==================
	-----------------------------------------------------------
	 SCS Same-Spin Scale       =       0.3333333333333333 [-]
	 SCS Opposite-Spin Scale   =       1.2000000000000000 [-]
	 SCS Same-Spin Energy      =      -0.2048198495797680 [Eh]
	 SCS Opposite-Spin Energy  =      -2.2645744349321641 [Eh]
	 SCS Correlation Energy    =      -2.4693942845119321 [Eh]
	 SCS Total Energy          =    -570.9349197621523899 [Eh]
	-----------------------------------------------------------

  Dipole Moment: [D]
     X:    -5.0879      Y:    -0.2105      Z:     0.2577     Total:     5.0988

*** Psi4 exiting successfully. Buy a developer a beer!
