                               Psi4 1.3.2 release

  ==> Input File <==

--------------------------------------------------------------------------
#psi4
#
memory 32 gb

molecule  {
0 1
  O        3.1477550    -1.4485350    -0.2143050
  N        0.9062980    -1.2504610    -0.5893500
  N        1.5545360     1.4658350     0.3351760
  C       -0.6961080     0.5074870     0.0337420
  C       -0.3911060    -0.8453020    -0.2363150
  C        0.3686226     1.6871574    -0.1323713
  C        1.9201190     0.2388570     1.0398190
  C       -2.0282860     0.8425430     0.3372020
  C       -1.4126000    -1.8085370    -0.2310830
  C        2.0871850    -0.8915250     0.0446260
  C       -0.0584500     2.8482670    -0.7690020
  C       -3.0319510    -0.1194250     0.3623450
  C       -2.7230760    -1.4503270     0.0616580
  H        0.9974690    -2.0891180    -1.1576180
  H        1.1650960    -0.0456930     1.7889680
  H        2.8821530     0.3846540     1.5322680
  H       -2.2754030     1.8777800     0.5574090
  H       -1.1609050    -2.8458310    -0.4446670
  H       -0.7945500     3.4046450    -0.1790500
  H       -0.5037450     2.6486950    -1.7485080
  H        0.8332190     3.4662990    -0.8854880
  H       -4.0517820     0.1644530     0.6082680
  H       -3.5008180    -2.2099170     0.0672390
units angstrom
no_reorient  #important for SAPT in psi4, default
symmetry c1  #important for SAPT in psi4, default
}

set PROPERTIES_ORIGIN ["COM"]
properties('MP2/aug-cc-pvtz', properties = ['dipole'])
--------------------------------------------------------------------------

    Molecular point group: c1
  Charge       = 0
  Multiplicity = 1
  Basis Set: AUG-CC-PVTZ
    Blend: AUG-CC-PVTZ
  Basis Set: (AUG-CC-PVTZ AUX)
    Blend: AUG-CC-PVTZ-JKFIT

    Orbital Energies [Eh]
    ---------------------

    Doubly Occupied:

       1A    -20.531870     2A    -15.604166     3A    -15.566024
       4A    -11.362393     5A    -11.309638     6A    -11.308462
       7A    -11.271416     8A    -11.266823     9A    -11.260419
      10A    -11.260314    11A    -11.255198    12A    -11.250131
      13A    -11.234874    14A     -1.386735    15A     -1.271272
      16A     -1.231485    17A     -1.159054    18A     -1.071332
      19A     -1.033518    20A     -1.018737    21A     -0.962791
      22A     -0.872532    23A     -0.853396    24A     -0.790150
      25A     -0.762001    26A     -0.726229    27A     -0.690793
      28A     -0.676410    29A     -0.654863    30A     -0.647394
      31A     -0.631546    32A     -0.624692    33A     -0.605618
      34A     -0.598798    35A     -0.566238    36A     -0.563447
      37A     -0.553661    38A     -0.531678    39A     -0.524735
      40A     -0.514522    41A     -0.455306    42A     -0.442258
      43A     -0.408622    44A     -0.395740    45A     -0.353601
      46A     -0.328103

  @DF-RHF Final Energy:  -568.44679884559537

   => Energetics <=

    Nuclear Repulsion Energy =            759.2047832218809162
    One-Electron Energy =               -2278.5251944491869835
    Two-Electron Energy =                 950.8736123817107000
    Total Energy =                       -568.4467988455953673
  Basis Set: (AUG-CC-PVTZ AUX)
    Blend: AUG-CC-PVTZ-RI
    Molecular point group: c1

    Geometry (in Angstrom), charge = 0, multiplicity = 1:

       Center              X                  Y                   Z               Mass
    ------------   -----------------  -----------------  -----------------  -----------------
         O            3.108921611613    -1.429866680728    -0.210170954325    15.994914619570
         N            0.867464611613    -1.231792680728    -0.585215954325    14.003074004430
         N            1.515702611613     1.484503319272     0.339310045675    14.003074004430
         C           -0.734941388387     0.526155319272     0.037876045675    12.000000000000
         C           -0.429939388387    -0.826633680728    -0.232180954325    12.000000000000
         C            0.329789211613     1.705825719272    -0.128237254325    12.000000000000
         C            1.881285611613     0.257525319272     1.043953045675    12.000000000000
         C           -2.067119388387     0.861211319272     0.341336045675    12.000000000000
         C           -1.451433388387    -1.789868680728    -0.226948954325    12.000000000000
         C            2.048351611613    -0.872856680728     0.048760045675    12.000000000000
         C           -0.097283388387     2.866935319272    -0.764867954325    12.000000000000
         C           -3.070784388387    -0.100756680728     0.366479045675    12.000000000000
         C           -2.761909388387    -1.431658680728     0.065792045675    12.000000000000
         H            0.958635611613    -2.070449680728    -1.153483954325     1.007825032230
         H            1.126262611613    -0.027024680728     1.793102045675     1.007825032230
         H            2.843319611613     0.403322319272     1.536402045675     1.007825032230
         H           -2.314236388387     1.896448319272     0.561543045675     1.007825032230
         H           -1.199738388387    -2.827162680728    -0.440532954325     1.007825032230
         H           -0.833383388387     3.423313319272    -0.174915954325     1.007825032230
         H           -0.542578388387     2.667363319272    -1.744373954325     1.007825032230
         H            0.794385611613     3.484967319272    -0.881353954325     1.007825032230
         H           -4.090615388387     0.183121319272     0.612402045675     1.007825032230
         H           -3.539651388387    -2.191248680728     0.071373045675     1.007825032230

  Basis Set: AUG-CC-PVTZ
    Blend: AUG-CC-PVTZ
  Basis Set: (AUG-CC-PVTZ AUX)
    Blend: AUG-CC-PVTZ-JKFIT
	 Reference Energy          =    -568.4467988455953673 [Eh]
	 Singles Energy            =      -0.0000000000000000 [Eh]
	 Same-Spin Energy          =      -0.6148716564874739 [Eh]
	 Opposite-Spin Energy      =      -1.8875835783919286 [Eh]
	 Correlation Energy        =      -2.5024552348794025 [Eh]
	 Total Energy              =    -570.9492540804748160 [Eh]

	 ================> DF-SCS-MP2 Energies <==================
	-----------------------------------------------------------
	 SCS Same-Spin Scale       =       0.3333333333333333 [-]
	 SCS Opposite-Spin Scale   =       1.2000000000000000 [-]
	 SCS Same-Spin Energy      =      -0.2049572188291580 [Eh]
	 SCS Opposite-Spin Energy  =      -2.2651002940703142 [Eh]
	 SCS Correlation Energy    =      -2.4700575128994720 [Eh]
	 SCS Total Energy          =    -570.9168563584947833 [Eh]
	-----------------------------------------------------------

  Dipole Moment: [D]
     X:    -4.9604      Y:     0.2278      Z:     0.0822     Total:     4.9663

*** Psi4 exiting successfully. Buy a developer a beer!
