                               Psi4 1.3.2 release

  ==> Input File <==

--------------------------------------------------------------------------
#psi4
#
memory 32 gb

molecule  {
0 1
  O        3.1477550    -1.4485350    -0.2143050
  N        0.9062980    -1.2504610    -0.5893500
  N        1.5545360     1.4658350     0.3351760
  C       -0.6961080     0.5074870     0.0337420
  C       -0.3911060    -0.8453020    -0.2363150
  C        0.3345050     1.5654110    -0.0838510
  C        1.9201190     0.2388570     1.0398190
  C       -2.0282860     0.8425430     0.3372020
  C       -1.4126000    -1.8085370    -0.2310830
  C        2.0871850    -0.8915250     0.0446260
  C       -0.0323662     2.7631127    -0.7235226
  C       -3.0319510    -0.1194250     0.3623450
  C       -2.7230760    -1.4503270     0.0616580
  H        0.9974690    -2.0891180    -1.1576180
  H        1.1650960    -0.0456930     1.7889680
  H        2.8821530     0.3846540     1.5322680
  H       -2.2754030     1.8777800     0.5574090
  H       -1.1609050    -2.8458310    -0.4446670
  H       -0.7945500     3.4046450    -0.1790500
  H       -0.5037450     2.6486950    -1.7485080
  H        0.8332190     3.4662990    -0.8854880
  H       -4.0517820     0.1644530     0.6082680
  H       -3.5008180    -2.2099170     0.0672390
units angstrom
no_reorient  #important for SAPT in psi4, default
symmetry c1  #important for SAPT in psi4, default
}

set PROPERTIES_ORIGIN ["COM"]
properties('MP2/aug-cc-pvtz', properties = ['dipole'])
--------------------------------------------------------------------------

    Molecular point group: c1
  Charge       = 0
  Multiplicity = 1
  Basis Set: AUG-CC-PVTZ
    Blend: AUG-CC-PVTZ
  Basis Set: (AUG-CC-PVTZ AUX)
    Blend: AUG-CC-PVTZ-JKFIT

    Orbital Energies [Eh]
    ---------------------

    Doubly Occupied:

       1A    -20.532198     2A    -15.606972     3A    -15.566738
       4A    -11.362527     5A    -11.314314     6A    -11.297426
       7A    -11.266584     8A    -11.266555     9A    -11.265375
      10A    -11.265312    11A    -11.258100    12A    -11.253576
      13A    -11.238124    14A     -1.387436    15A     -1.277087
      16A     -1.236659    17A     -1.164663    18A     -1.071836
      19A     -1.036000    20A     -1.016827    21A     -0.951028
      22A     -0.884095    23A     -0.857730    24A     -0.796174
      25A     -0.768576    26A     -0.730340    27A     -0.694943
      28A     -0.677843    29A     -0.658331    30A     -0.649531
      31A     -0.629809    32A     -0.625725    33A     -0.605123
      34A     -0.579184    35A     -0.566776    36A     -0.557949
      37A     -0.541217    38A     -0.533082    39A     -0.523943
      40A     -0.515873    41A     -0.455290    42A     -0.444389
      43A     -0.418960    44A     -0.402994    45A     -0.354948
      46A     -0.332158

  @DF-RHF Final Energy:  -568.45328253624552

   => Energetics <=

    Nuclear Repulsion Energy =            762.8500998178442387
    One-Electron Energy =               -2285.7261175864218785
    Two-Electron Energy =                 954.4227352323321156
    Total Energy =                       -568.4532825362455242
  Basis Set: (AUG-CC-PVTZ AUX)
    Blend: AUG-CC-PVTZ-RI
    Molecular point group: c1

    Geometry (in Angstrom), charge = 0, multiplicity = 1:

       Center              X                  Y                   Z               Mass
    ------------   -----------------  -----------------  -----------------  -----------------
         O            3.109475414350    -1.415604168096    -0.216650738631    15.994914619570
         N            0.868018414350    -1.217530168096    -0.591695738631    14.003074004430
         N            1.516256414350     1.498765831904     0.332830261369    14.003074004430
         C           -0.734387585650     0.540417831904     0.031396261369    12.000000000000
         C           -0.429385585650    -0.812371168096    -0.238660738631    12.000000000000
         C            0.296225414350     1.598341831904    -0.086196738631    12.000000000000
         C            1.881839414350     0.271787831904     1.037473261369    12.000000000000
         C           -2.066565585650     0.875473831904     0.334856261369    12.000000000000
         C           -1.450879585650    -1.775606168096    -0.233428738631    12.000000000000
         C            2.048905414350    -0.858594168096     0.042280261369    12.000000000000
         C           -0.070645785650     2.796043531904    -0.725868338631    12.000000000000
         C           -3.070230585650    -0.086494168096     0.359999261369    12.000000000000
         C           -2.761355585650    -1.417396168096     0.059312261369    12.000000000000
         H            0.959189414350    -2.056187168096    -1.159963738631     1.007825032230
         H            1.126816414350    -0.012762168096     1.786622261369     1.007825032230
         H            2.843873414350     0.417584831904     1.529922261369     1.007825032230
         H           -2.313682585650     1.910710831904     0.555063261369     1.007825032230
         H           -1.199184585650    -2.812900168096    -0.447012738631     1.007825032230
         H           -0.832829585650     3.437575831904    -0.181395738631     1.007825032230
         H           -0.542024585650     2.681625831904    -1.750853738631     1.007825032230
         H            0.794939414350     3.499229831904    -0.887833738631     1.007825032230
         H           -4.090061585650     0.197383831904     0.605922261369     1.007825032230
         H           -3.539097585650    -2.176986168096     0.064893261369     1.007825032230

  Basis Set: AUG-CC-PVTZ
    Blend: AUG-CC-PVTZ
  Basis Set: (AUG-CC-PVTZ AUX)
    Blend: AUG-CC-PVTZ-JKFIT
	 Reference Energy          =    -568.4532825362455242 [Eh]
	 Singles Energy            =      -0.0000000000000000 [Eh]
	 Same-Spin Energy          =      -0.6157743153378510 [Eh]
	 Opposite-Spin Energy      =      -1.8886918372135355 [Eh]
	 Correlation Energy        =      -2.5044661525513865 [Eh]
	 Total Energy              =    -570.9577486887968689 [Eh]

	 ================> DF-SCS-MP2 Energies <==================
	-----------------------------------------------------------
	 SCS Same-Spin Scale       =       0.3333333333333333 [-]
	 SCS Opposite-Spin Scale   =       1.2000000000000000 [-]
	 SCS Same-Spin Energy      =      -0.2052581051126170 [Eh]
	 SCS Opposite-Spin Energy  =      -2.2664302046562423 [Eh]
	 SCS Correlation Energy    =      -2.4716883097688593 [Eh]
	 SCS Total Energy          =    -570.9249708460143893 [Eh]
	-----------------------------------------------------------

  Dipole Moment: [D]
     X:    -5.1406      Y:    -0.1598      Z:     0.1905     Total:     5.1466

*** Psi4 exiting successfully. Buy a developer a beer!
