                               Psi4 1.3.2 release

  ==> Input File <==

--------------------------------------------------------------------------
#psi4
#
memory 32 gb

molecule  {
0 1
  O        3.1477550    -1.4485350    -0.2143050
  N        0.9062980    -1.2504610    -0.5893500
  N        1.5545360     1.4658350     0.3351760
  C       -0.6961080     0.5074870     0.0337420
  C       -0.3911060    -0.8453020    -0.2363150
  C        0.3345050     1.5654110    -0.0838510
  C        1.9201190     0.2388570     1.0398190
  C       -2.0282860     0.8425430     0.3372020
  C       -1.4126000    -1.8085370    -0.2310830
  C        2.0641716    -0.8536799     0.0642157
  C       -0.0584500     2.8482670    -0.7690020
  C       -3.0319510    -0.1194250     0.3623450
  C       -2.7230760    -1.4503270     0.0616580
  H        0.9974690    -2.0891180    -1.1576180
  H        1.1650960    -0.0456930     1.7889680
  H        2.8821530     0.3846540     1.5322680
  H       -2.2754030     1.8777800     0.5574090
  H       -1.1609050    -2.8458310    -0.4446670
  H       -0.7945500     3.4046450    -0.1790500
  H       -0.5037450     2.6486950    -1.7485080
  H        0.8332190     3.4662990    -0.8854880
  H       -4.0517820     0.1644530     0.6082680
  H       -3.5008180    -2.2099170     0.0672390
units angstrom
no_reorient  #important for SAPT in psi4, default
symmetry c1  #important for SAPT in psi4, default
}

set PROPERTIES_ORIGIN ["COM"]
properties('MP2/aug-cc-pvtz', properties = ['dipole'])
--------------------------------------------------------------------------

    Molecular point group: c1
  Charge       = 0
  Multiplicity = 1
  Basis Set: AUG-CC-PVTZ
    Blend: AUG-CC-PVTZ
  Basis Set: (AUG-CC-PVTZ AUX)
    Blend: AUG-CC-PVTZ-JKFIT

    Orbital Energies [Eh]
    ---------------------

    Doubly Occupied:

       1A    -20.526648     2A    -15.610167     3A    -15.569386
       4A    -11.365509     5A    -11.314926     6A    -11.304927
       7A    -11.268621     8A    -11.268189     9A    -11.267004
      10A    -11.266608    11A    -11.259125    12A    -11.254759
      13A    -11.235753    14A     -1.365613    15A     -1.272674
      16A     -1.235279    17A     -1.165411    18A     -1.069030
      19A     -1.037323    20A     -1.014038    21A     -0.959305
      22A     -0.887169    23A     -0.858214    24A     -0.798456
      25A     -0.770471    26A     -0.730269    27A     -0.693309
      28A     -0.679265    29A     -0.658417    30A     -0.649529
      31A     -0.626340    32A     -0.620046    33A     -0.599965
      34A     -0.586357    35A     -0.562827    36A     -0.560266
      37A     -0.545131    38A     -0.539371    39A     -0.524142
      40A     -0.516558    41A     -0.452443    42A     -0.438043
      43A     -0.419795    44A     -0.409468    45A     -0.356923
      46A     -0.332465

  @DF-RHF Final Energy:  -568.45811607418887

   => Energetics <=

    Nuclear Repulsion Energy =            761.0139831132540849
    One-Electron Energy =               -2282.0531302460080951
    Two-Electron Energy =                 952.5810310585650313
    Total Energy =                       -568.4581160741888652
  Basis Set: (AUG-CC-PVTZ AUX)
    Blend: AUG-CC-PVTZ-RI
    Molecular point group: c1

    Geometry (in Angstrom), charge = 0, multiplicity = 1:

       Center              X                  Y                   Z               Mass
    ------------   -----------------  -----------------  -----------------  -----------------
         O            3.112859885429    -1.424083020494    -0.214866055576    15.994914619570
         N            0.871402885429    -1.226009020494    -0.589911055576    14.003074004430
         N            1.519640885429     1.490286979506     0.334614944424    14.003074004430
         C           -0.731003114571     0.531938979506     0.033180944424    12.000000000000
         C           -0.426001114571    -0.820850020494    -0.236876055576    12.000000000000
         C            0.299609885429     1.589862979506    -0.084412055576    12.000000000000
         C            1.885223885429     0.263308979506     1.039257944424    12.000000000000
         C           -2.063181114571     0.866994979506     0.336640944424    12.000000000000
         C           -1.447495114571    -1.784085020494    -0.231644055576    12.000000000000
         C            2.029276485429    -0.829227920494     0.063654644424    12.000000000000
         C           -0.093345114571     2.872718979506    -0.769563055576    12.000000000000
         C           -3.066846114571    -0.094973020494     0.361783944424    12.000000000000
         C           -2.757971114571    -1.425875020494     0.061096944424    12.000000000000
         H            0.962573885429    -2.064666020494    -1.158179055576     1.007825032230
         H            1.130200885429    -0.021241020494     1.788406944424     1.007825032230
         H            2.847257885429     0.409105979506     1.531706944424     1.007825032230
         H           -2.310298114571     1.902231979506     0.556847944424     1.007825032230
         H           -1.195800114571    -2.821379020494    -0.445228055576     1.007825032230
         H           -0.829445114571     3.429096979506    -0.179611055576     1.007825032230
         H           -0.538640114571     2.673146979506    -1.749069055576     1.007825032230
         H            0.798323885429     3.490750979506    -0.886049055576     1.007825032230
         H           -4.086677114571     0.188904979506     0.607706944424     1.007825032230
         H           -3.535713114571    -2.185465020494     0.066677944424     1.007825032230

  Basis Set: AUG-CC-PVTZ
    Blend: AUG-CC-PVTZ
  Basis Set: (AUG-CC-PVTZ AUX)
    Blend: AUG-CC-PVTZ-JKFIT
	 Reference Energy          =    -568.4581160741888652 [Eh]
	 Singles Energy            =      -0.0000000000000000 [Eh]
	 Same-Spin Energy          =      -0.6156367697493697 [Eh]
	 Opposite-Spin Energy      =      -1.8894256286657485 [Eh]
	 Correlation Energy        =      -2.5050623984151184 [Eh]
	 Total Energy              =    -570.9631784726039996 [Eh]

	 ================> DF-SCS-MP2 Energies <==================
	-----------------------------------------------------------
	 SCS Same-Spin Scale       =       0.3333333333333333 [-]
	 SCS Opposite-Spin Scale   =       1.2000000000000000 [-]
	 SCS Same-Spin Energy      =      -0.2052122565831232 [Eh]
	 SCS Opposite-Spin Energy  =      -2.2673107543988982 [Eh]
	 SCS Correlation Energy    =      -2.4725230109820213 [Eh]
	 SCS Total Energy          =    -570.9306390851709239 [Eh]
	-----------------------------------------------------------

  Dipole Moment: [D]
     X:    -5.3441      Y:    -0.0676      Z:     0.2918     Total:     5.3525

*** Psi4 exiting successfully. Buy a developer a beer!
