                               Psi4 1.3.2 release

  ==> Input File <==

--------------------------------------------------------------------------
#psi4
#
memory 32 gb

molecule  {
0 1
  O        3.1477550    -1.4485350    -0.2143050
  N        0.9062980    -1.2504610    -0.5893500
  N        1.5331682     1.4671648     0.3490392
  C       -0.6961080     0.5074870     0.0337420
  C       -0.3911060    -0.8453020    -0.2363150
  C        0.3345050     1.5654110    -0.0838510
  C        1.9201190     0.2388570     1.0398190
  C       -2.0282860     0.8425430     0.3372020
  C       -1.4126000    -1.8085370    -0.2310830
  C        2.0871850    -0.8915250     0.0446260
  C       -0.0584500     2.8482670    -0.7690020
  C       -3.0319510    -0.1194250     0.3623450
  C       -2.7230760    -1.4503270     0.0616580
  H        0.9974690    -2.0891180    -1.1576180
  H        1.1650960    -0.0456930     1.7889680
  H        2.8821530     0.3846540     1.5322680
  H       -2.2754030     1.8777800     0.5574090
  H       -1.1609050    -2.8458310    -0.4446670
  H       -0.7945500     3.4046450    -0.1790500
  H       -0.5037450     2.6486950    -1.7485080
  H        0.8332190     3.4662990    -0.8854880
  H       -4.0517820     0.1644530     0.6082680
  H       -3.5008180    -2.2099170     0.0672390
units angstrom
no_reorient  #important for SAPT in psi4, default
symmetry c1  #important for SAPT in psi4, default
}

set PROPERTIES_ORIGIN ["COM"]
properties('MP2/aug-cc-pvtz', properties = ['dipole'])
--------------------------------------------------------------------------

    Molecular point group: c1
  Charge       = 0
  Multiplicity = 1
  Basis Set: AUG-CC-PVTZ
    Blend: AUG-CC-PVTZ
  Basis Set: (AUG-CC-PVTZ AUX)
    Blend: AUG-CC-PVTZ-JKFIT

    Orbital Energies [Eh]
    ---------------------

    Doubly Occupied:

       1A    -20.532873     2A    -15.607072     3A    -15.564835
       4A    -11.363235     5A    -11.313765     6A    -11.299644
       7A    -11.267993     8A    -11.266063     9A    -11.264858
      10A    -11.264787    11A    -11.257910    12A    -11.253372
      13A    -11.233613    14A     -1.388003    15A     -1.277213
      16A     -1.236769    17A     -1.164082    18A     -1.064855
      19A     -1.035120    20A     -1.011405    21A     -0.953386
      22A     -0.885232    23A     -0.857711    24A     -0.795847
      25A     -0.767754    26A     -0.728422    27A     -0.692991
      28A     -0.677415    29A     -0.657459    30A     -0.648241
      31A     -0.625910    32A     -0.619604    33A     -0.605233
      34A     -0.586513    35A     -0.566662    36A     -0.558371
      37A     -0.544068    38A     -0.539637    39A     -0.528266
      40A     -0.515881    41A     -0.459357    42A     -0.444645
      43A     -0.415762    44A     -0.406181    45A     -0.355234
      46A     -0.331868

  @DF-RHF Final Energy:  -568.46692789481733

   => Energetics <=

    Nuclear Repulsion Energy =            761.1063589775112632
    One-Electron Energy =               -2282.2763388884809501
    Two-Electron Energy =                 952.7030520161523555
    Total Energy =                       -568.4669278948173314
  Basis Set: (AUG-CC-PVTZ AUX)
    Blend: AUG-CC-PVTZ-RI
    Molecular point group: c1

    Geometry (in Angstrom), charge = 0, multiplicity = 1:

       Center              X                  Y                   Z               Mass
    ------------   -----------------  -----------------  -----------------  -----------------
         O            3.112992319802    -1.421581172889    -0.214630823809    15.994914619570
         N            0.871535319802    -1.223507172889    -0.589675823809    14.003074004430
         N            1.498405519802     1.494118627111     0.348713376191    14.003074004430
         C           -0.730870680198     0.534440827111     0.033416176191    12.000000000000
         C           -0.425868680198    -0.818348172889    -0.236640823809    12.000000000000
         C            0.299742319802     1.592364827111    -0.084176823809    12.000000000000
         C            1.885356319802     0.265810827111     1.039493176191    12.000000000000
         C           -2.063048680198     0.869496827111     0.336876176191    12.000000000000
         C           -1.447362680198    -1.781583172889    -0.231408823809    12.000000000000
         C            2.052422319802    -0.864571172889     0.044300176191    12.000000000000
         C           -0.093212680198     2.875220827111    -0.769327823809    12.000000000000
         C           -3.066713680198    -0.092471172889     0.362019176191    12.000000000000
         C           -2.757838680198    -1.423373172889     0.061332176191    12.000000000000
         H            0.962706319802    -2.062164172889    -1.157943823809     1.007825032230
         H            1.130333319802    -0.018739172889     1.788642176191     1.007825032230
         H            2.847390319802     0.411607827111     1.531942176191     1.007825032230
         H           -2.310165680198     1.904733827111     0.557083176191     1.007825032230
         H           -1.195667680198    -2.818877172889    -0.444992823809     1.007825032230
         H           -0.829312680198     3.431598827111    -0.179375823809     1.007825032230
         H           -0.538507680198     2.675648827111    -1.748833823809     1.007825032230
         H            0.798456319802     3.493252827111    -0.885813823809     1.007825032230
         H           -4.086544680198     0.191406827111     0.607942176191     1.007825032230
         H           -3.535580680198    -2.182963172889     0.066913176191     1.007825032230

  Basis Set: AUG-CC-PVTZ
    Blend: AUG-CC-PVTZ
  Basis Set: (AUG-CC-PVTZ AUX)
    Blend: AUG-CC-PVTZ-JKFIT
	 Reference Energy          =    -568.4669278948173314 [Eh]
	 Singles Energy            =      -0.0000000000000000 [Eh]
	 Same-Spin Energy          =      -0.6140705162322462 [Eh]
	 Opposite-Spin Energy      =      -1.8862779300690362 [Eh]
	 Correlation Energy        =      -2.5003484463012824 [Eh]
	 Total Energy              =    -570.9672763411185770 [Eh]

	 ================> DF-SCS-MP2 Energies <==================
	-----------------------------------------------------------
	 SCS Same-Spin Scale       =       0.3333333333333333 [-]
	 SCS Opposite-Spin Scale   =       1.2000000000000000 [-]
	 SCS Same-Spin Energy      =      -0.2046901720774154 [Eh]
	 SCS Opposite-Spin Energy  =      -2.2635335160828434 [Eh]
	 SCS Correlation Energy    =      -2.4682236881602586 [Eh]
	 SCS Total Energy          =    -570.9351515829775963 [Eh]
	-----------------------------------------------------------

  Dipole Moment: [D]
     X:    -5.0612      Y:    -0.2385      Z:     0.2106     Total:     5.0712

*** Psi4 exiting successfully. Buy a developer a beer!
