                               Psi4 1.4a3.dev225

  ==> Input File <==

--------------------------------------------------------------------------
#psi4
#
memory 32 gb

molecule  {
0 1
  O        3.1477550    -1.4485350    -0.2143050
  N        0.9062980    -1.2504610    -0.5893500
  N        1.5545360     1.4658350     0.3351760
  C       -0.6961080     0.5074870     0.0337420
  C       -0.3911060    -0.8453020    -0.2363150
  C        0.2873567     1.5692591    -0.1000444
  C        1.9201190     0.2388570     1.0398190
  C       -2.0282860     0.8425430     0.3372020
  C       -1.4126000    -1.8085370    -0.2310830
  C        2.0871850    -0.8915250     0.0446260
  C       -0.0584500     2.8482670    -0.7690020
  C       -3.0319510    -0.1194250     0.3623450
  C       -2.7230760    -1.4503270     0.0616580
  H        0.9974690    -2.0891180    -1.1576180
  H        1.1650960    -0.0456930     1.7889680
  H        2.8821530     0.3846540     1.5322680
  H       -2.2754030     1.8777800     0.5574090
  H       -1.1609050    -2.8458310    -0.4446670
  H       -0.7945500     3.4046450    -0.1790500
  H       -0.5037450     2.6486950    -1.7485080
  H        0.8332190     3.4662990    -0.8854880
  H       -4.0517820     0.1644530     0.6082680
  H       -3.5008180    -2.2099170     0.0672390
units angstrom
no_reorient  #important for SAPT in psi4, default
symmetry c1  #important for SAPT in psi4, default
}

set PROPERTIES_ORIGIN ["COM"]
properties('MP2/aug-cc-pvtz', properties = ['dipole'])
--------------------------------------------------------------------------

    Molecular point group: c1
  Charge       = 0
  Multiplicity = 1
  Basis Set: AUG-CC-PVTZ
    Blend: AUG-CC-PVTZ
  Basis Set: (AUG-CC-PVTZ AUX)
    Blend: AUG-CC-PVTZ-JKFIT

    Orbital Energies [Eh]
    ---------------------

    Doubly Occupied:

       1A    -20.531240     2A    -15.607154     3A    -15.569066
       4A    -11.361466     5A    -11.316652     6A    -11.305932
       7A    -11.267737     8A    -11.267046     9A    -11.265693
      10A    -11.264612    11A    -11.259357    12A    -11.254582
      13A    -11.235203    14A     -1.386519    15A     -1.273958
      16A     -1.219465    17A     -1.165825    18A     -1.070378
      19A     -1.035731    20A     -1.013386    21A     -0.946449
      22A     -0.889615    23A     -0.859268    24A     -0.795655
      25A     -0.769899    26A     -0.730245    27A     -0.689332
      28A     -0.676219    29A     -0.657959    30A     -0.649310
      31A     -0.627044    32A     -0.617242    33A     -0.602943
      34A     -0.588938    35A     -0.566500    36A     -0.562824
      37A     -0.542485    38A     -0.537995    39A     -0.527465
      40A     -0.518053    41A     -0.452977    42A     -0.444361
      43A     -0.417769    44A     -0.400350    45A     -0.351705
      46A     -0.332633

  @DF-RHF Final Energy:  -568.45720213603670

   => Energetics <=

    Nuclear Repulsion Energy =            760.5601444486721903
    One-Electron Energy =               -2281.1822229564131703
    Two-Electron Energy =                 952.1648763717042812
    Total Energy =                       -568.4572021360366989
  Basis Set: (AUG-CC-PVTZ AUX)
    Blend: AUG-CC-PVTZ-RI
    Molecular point group: c1

    Geometry (in Angstrom), charge = 0, multiplicity = 1:

       Center              X                  Y                   Z               Mass
    ------------   -----------------  -----------------  -----------------  -----------------
         O            3.114523602932    -1.421739468046    -0.212399379940    15.994914619570
         N            0.873066602932    -1.223665468046    -0.587444379940    14.003074004430
         N            1.521304602932     1.492630531954     0.337081620060    14.003074004430
         C           -0.729339397068     0.534282531954     0.035647620060    12.000000000000
         C           -0.424337397068    -0.818506468046    -0.234409379940    12.000000000000
         C            0.254125302932     1.596054631954    -0.098138779940    12.000000000000
         C            1.886887602932     0.265652531954     1.041724620060    12.000000000000
         C           -2.061517397068     0.869338531954     0.339107620060    12.000000000000
         C           -1.445831397068    -1.781741468046    -0.229177379940    12.000000000000
         C            2.053953602932    -0.864729468046     0.046531620060    12.000000000000
         C           -0.091681397068     2.875062531954    -0.767096379940    12.000000000000
         C           -3.065182397068    -0.092629468046     0.364250620060    12.000000000000
         C           -2.756307397068    -1.423531468046     0.063563620060    12.000000000000
         H            0.964237602932    -2.062322468046    -1.155712379940     1.007825032230
         H            1.131864602932    -0.018897468046     1.790873620060     1.007825032230
         H            2.848921602932     0.411449531954     1.534173620060     1.007825032230
         H           -2.308634397068     1.904575531954     0.559314620060     1.007825032230
         H           -1.194136397068    -2.819035468046    -0.442761379940     1.007825032230
         H           -0.827781397068     3.431440531954    -0.177144379940     1.007825032230
         H           -0.536976397068     2.675490531954    -1.746602379940     1.007825032230
         H            0.799987602932     3.493094531954    -0.883582379940     1.007825032230
         H           -4.085013397068     0.191248531954     0.610173620060     1.007825032230
         H           -3.534049397068    -2.183121468046     0.069144620060     1.007825032230

  Basis Set: AUG-CC-PVTZ
    Blend: AUG-CC-PVTZ
  Basis Set: (AUG-CC-PVTZ AUX)
    Blend: AUG-CC-PVTZ-JKFIT
	 Reference Energy          =    -568.4572021360366989 [Eh]
	 Singles Energy            =      -0.0000000000000000 [Eh]
	 Same-Spin Energy          =      -0.6161684559074074 [Eh]
	 Opposite-Spin Energy      =      -1.8901505397820229 [Eh]
	 Correlation Energy        =      -2.5063189956894303 [Eh]
	 Total Energy              =    -570.9635211317261110 [Eh]

	 ================> DF-SCS-MP2 Energies <==================
	-----------------------------------------------------------
	 SCS Same-Spin Scale       =       0.3333333333333333 [-]
	 SCS Opposite-Spin Scale   =       1.2000000000000000 [-]
	 SCS Same-Spin Energy      =      -0.2053894853024691 [Eh]
	 SCS Opposite-Spin Energy  =      -2.2681806477384274 [Eh]
	 SCS Correlation Energy    =      -2.4735701330408966 [Eh]
	 SCS Total Energy          =    -570.9307722690775790 [Eh]
	-----------------------------------------------------------

  Dipole Moment: [D]
     X:    -5.2083      Y:    -0.2515      Z:     0.1844     Total:     5.2176

*** Psi4 exiting successfully. Buy a developer a beer!
