                               Psi4 1.3.2 release

  ==> Input File <==

--------------------------------------------------------------------------
#psi4
#
memory 32 gb

molecule  {
0 1
  O        3.1477550    -1.4485350    -0.2143050
  N        0.9062980    -1.2504610    -0.5893500
  N        1.5545360     1.4658350     0.3351760
  C       -0.6961080     0.5074870     0.0337420
  C       -0.3911060    -0.8453020    -0.2363150
  C        0.3345050     1.5654110    -0.0838510
  C        1.9201190     0.2388570     1.0398190
  C       -2.0282860     0.8425430     0.3372020
  C       -1.4126000    -1.8085370    -0.2310830
  C        2.0397475    -0.8163182     0.0830092
  C       -0.0584500     2.8482670    -0.7690020
  C       -3.0319510    -0.1194250     0.3623450
  C       -2.7230760    -1.4503270     0.0616580
  H        0.9974690    -2.0891180    -1.1576180
  H        1.1650960    -0.0456930     1.7889680
  H        2.8821530     0.3846540     1.5322680
  H       -2.2754030     1.8777800     0.5574090
  H       -1.1609050    -2.8458310    -0.4446670
  H       -0.7945500     3.4046450    -0.1790500
  H       -0.5037450     2.6486950    -1.7485080
  H        0.8332190     3.4662990    -0.8854880
  H       -4.0517820     0.1644530     0.6082680
  H       -3.5008180    -2.2099170     0.0672390
units angstrom
no_reorient  #important for SAPT in psi4, default
symmetry c1  #important for SAPT in psi4, default
}

set PROPERTIES_ORIGIN ["COM"]
properties('MP2/aug-cc-pvtz', properties = ['dipole'])
--------------------------------------------------------------------------

    Molecular point group: c1
  Charge       = 0
  Multiplicity = 1
  Basis Set: AUG-CC-PVTZ
    Blend: AUG-CC-PVTZ
  Basis Set: (AUG-CC-PVTZ AUX)
    Blend: AUG-CC-PVTZ-JKFIT

    Orbital Energies [Eh]
    ---------------------

    Doubly Occupied:

       1A    -20.520760     2A    -15.613613     3A    -15.571876
       4A    -11.368272     5A    -11.315503     6A    -11.307422
       7A    -11.269584     8A    -11.269457     9A    -11.268410
      10A    -11.267784    11A    -11.260028    12A    -11.255798
      13A    -11.237303    14A     -1.349113    15A     -1.266370
      16A     -1.237384    17A     -1.166112    18A     -1.073169
      19A     -1.039874    20A     -1.016807    21A     -0.966313
      22A     -0.888729    23A     -0.858418    24A     -0.801554
      25A     -0.772832    26A     -0.731855    27A     -0.695477
      28A     -0.682652    29A     -0.659416    30A     -0.650998
      31A     -0.628311    32A     -0.624362    33A     -0.594478
      34A     -0.583697    35A     -0.561828    36A     -0.560529
      37A     -0.546495    38A     -0.538184    39A     -0.522205
      40A     -0.515789    41A     -0.446650    42A     -0.431071
      43A     -0.421123    44A     -0.411916    45A     -0.358715
      46A     -0.332616

  @DF-RHF Final Energy:  -568.44377035764558

   => Energetics <=

    Nuclear Repulsion Energy =            761.3454649423277942
    One-Electron Energy =               -2282.6567702916781855
    Two-Electron Energy =                 952.8675349917047015
    Total Energy =                       -568.4437703576455760
  Basis Set: (AUG-CC-PVTZ AUX)
    Blend: AUG-CC-PVTZ-RI
    Molecular point group: c1

    Geometry (in Angstrom), charge = 0, multiplicity = 1:

       Center              X                  Y                   Z               Mass
    ------------   -----------------  -----------------  -----------------  -----------------
         O            3.114543538673    -1.426658515493    -0.216161568502    15.994914619570
         N            0.873086538673    -1.228584515493    -0.591206568502    14.003074004430
         N            1.521324538673     1.487711484507     0.333319431498    14.003074004430
         C           -0.729319461327     0.529363484507     0.031885431498    12.000000000000
         C           -0.424317461327    -0.823425515493    -0.238171568502    12.000000000000
         C            0.301293538673     1.587287484507    -0.085707568502    12.000000000000
         C            1.886907538673     0.260733484507     1.037962431498    12.000000000000
         C           -2.061497461327     0.864419484507     0.335345431498    12.000000000000
         C           -1.445811461327    -1.786660515493    -0.232939568502    12.000000000000
         C            2.006536038673    -0.794441715493     0.081152631498    12.000000000000
         C           -0.091661461327     2.870143484507    -0.770858568502    12.000000000000
         C           -3.065162461327    -0.097548515493     0.360488431498    12.000000000000
         C           -2.756287461327    -1.428450515493     0.059801431498    12.000000000000
         H            0.964257538673    -2.067241515493    -1.159474568502     1.007825032230
         H            1.131884538673    -0.023816515493     1.787111431498     1.007825032230
         H            2.848941538673     0.406530484507     1.530411431498     1.007825032230
         H           -2.308614461327     1.899656484507     0.555552431498     1.007825032230
         H           -1.194116461327    -2.823954515493    -0.446523568502     1.007825032230
         H           -0.827761461327     3.426521484507    -0.180906568502     1.007825032230
         H           -0.536956461327     2.670571484507    -1.750364568502     1.007825032230
         H            0.800007538673     3.488175484507    -0.887344568502     1.007825032230
         H           -4.084993461327     0.186329484507     0.606411431498     1.007825032230
         H           -3.534029461327    -2.188040515493     0.065382431498     1.007825032230

  Basis Set: AUG-CC-PVTZ
    Blend: AUG-CC-PVTZ
  Basis Set: (AUG-CC-PVTZ AUX)
    Blend: AUG-CC-PVTZ-JKFIT
	 Reference Energy          =    -568.4437703576455760 [Eh]
	 Singles Energy            =      -0.0000000000000000 [Eh]
	 Same-Spin Energy          =      -0.6170639723914829 [Eh]
	 Opposite-Spin Energy      =      -1.8920656595053567 [Eh]
	 Correlation Energy        =      -2.5091296318968395 [Eh]
	 Total Energy              =    -570.9528999895424022 [Eh]

	 ================> DF-SCS-MP2 Energies <==================
	-----------------------------------------------------------
	 SCS Same-Spin Scale       =       0.3333333333333333 [-]
	 SCS Opposite-Spin Scale   =       1.2000000000000000 [-]
	 SCS Same-Spin Energy      =      -0.2056879907971610 [Eh]
	 SCS Opposite-Spin Energy  =      -2.2704787914064277 [Eh]
	 SCS Correlation Energy    =      -2.4761667822035887 [Eh]
	 SCS Total Energy          =    -570.9199371398491394 [Eh]
	-----------------------------------------------------------

  Dipole Moment: [D]
     X:    -5.5638      Y:     0.0935      Z:     0.3473     Total:     5.5754

*** Psi4 exiting successfully. Buy a developer a beer!
