                               Psi4 1.3.2 release

  ==> Input File <==

--------------------------------------------------------------------------
#psi4
#
memory 32 gb

molecule  {
0 1
  O        3.1477550    -1.4485350    -0.2143050
  N        0.9062980    -1.2504610    -0.5893500
  N        1.5545360     1.4658350     0.3351760
  C       -0.6961080     0.5074870     0.0337420
  C       -0.4086212    -0.8718655    -0.2736008
  C        0.3345050     1.5654110    -0.0838510
  C        1.9201190     0.2388570     1.0398190
  C       -2.0282860     0.8425430     0.3372020
  C       -1.4126000    -1.8085370    -0.2310830
  C        2.0871850    -0.8915250     0.0446260
  C       -0.0584500     2.8482670    -0.7690020
  C       -3.0319510    -0.1194250     0.3623450
  C       -2.7230760    -1.4503270     0.0616580
  H        0.9974690    -2.0891180    -1.1576180
  H        1.1650960    -0.0456930     1.7889680
  H        2.8821530     0.3846540     1.5322680
  H       -2.2754030     1.8777800     0.5574090
  H       -1.1609050    -2.8458310    -0.4446670
  H       -0.7945500     3.4046450    -0.1790500
  H       -0.5037450     2.6486950    -1.7485080
  H        0.8332190     3.4662990    -0.8854880
  H       -4.0517820     0.1644530     0.6082680
  H       -3.5008180    -2.2099170     0.0672390
units angstrom
no_reorient  #important for SAPT in psi4, default
symmetry c1  #important for SAPT in psi4, default
}

set PROPERTIES_ORIGIN ["COM"]
properties('MP2/aug-cc-pvtz', properties = ['dipole'])
--------------------------------------------------------------------------

    Molecular point group: c1
  Charge       = 0
  Multiplicity = 1
  Basis Set: AUG-CC-PVTZ
    Blend: AUG-CC-PVTZ
  Basis Set: (AUG-CC-PVTZ AUX)
    Blend: AUG-CC-PVTZ-JKFIT

    Orbital Energies [Eh]
    ---------------------

    Doubly Occupied:

       1A    -20.532704     2A    -15.606459     3A    -15.567101
       4A    -11.363711     5A    -11.314055     6A    -11.302653
       7A    -11.268679     8A    -11.267052     9A    -11.266294
      10A    -11.265933    11A    -11.255020    12A    -11.253719
      13A    -11.234252    14A     -1.387665    15A     -1.275185
      16A     -1.233174    17A     -1.164676    18A     -1.064843
      19A     -1.039142    20A     -1.008667    21A     -0.951918
      22A     -0.887592    23A     -0.855964    24A     -0.796820
      25A     -0.766985    26A     -0.729318    27A     -0.690993
      28A     -0.677861    29A     -0.658500    30A     -0.644731
      31A     -0.627137    32A     -0.618677    33A     -0.605035
      34A     -0.586412    35A     -0.567512    36A     -0.558986
      37A     -0.544316    38A     -0.538231    39A     -0.527778
      40A     -0.513920    41A     -0.457987    42A     -0.444788
      43A     -0.417465    44A     -0.405898    45A     -0.355309
      46A     -0.331735

  @DF-RHF Final Energy:  -568.46345673034887

   => Energetics <=

    Nuclear Repulsion Energy =            760.3763571341514762
    One-Electron Energy =               -2280.8139184840460985
    Two-Electron Energy =                 951.9741046195457557
    Total Energy =                       -568.4634567303488666
  Basis Set: (AUG-CC-PVTZ AUX)
    Blend: AUG-CC-PVTZ-RI
    Molecular point group: c1

    Geometry (in Angstrom), charge = 0, multiplicity = 1:

       Center              X                  Y                   Z               Mass
    ------------   -----------------  -----------------  -----------------  -----------------
         O            3.112480871984    -1.419643071904    -0.210945394422    15.994914619570
         N            0.871023871984    -1.221569071904    -0.585990394422    14.003074004430
         N            1.519261871984     1.494726928096     0.338535605578    14.003074004430
         C           -0.731382128016     0.536378928096     0.037101605578    12.000000000000
         C           -0.443895328016    -0.842973571904    -0.270241194422    12.000000000000
         C            0.299230871984     1.594302928096    -0.080491394422    12.000000000000
         C            1.884844871984     0.267748928096     1.043178605578    12.000000000000
         C           -2.063560128016     0.871434928096     0.340561605578    12.000000000000
         C           -1.447874128016    -1.779645071904    -0.227723394422    12.000000000000
         C            2.051910871984    -0.862633071904     0.047985605578    12.000000000000
         C           -0.093724128016     2.877158928096    -0.765642394422    12.000000000000
         C           -3.067225128016    -0.090533071904     0.365704605578    12.000000000000
         C           -2.758350128016    -1.421435071904     0.065017605578    12.000000000000
         H            0.962194871984    -2.060226071904    -1.154258394422     1.007825032230
         H            1.129821871984    -0.016801071904     1.792327605578     1.007825032230
         H            2.846878871984     0.413545928096     1.535627605578     1.007825032230
         H           -2.310677128016     1.906671928096     0.560768605578     1.007825032230
         H           -1.196179128016    -2.816939071904    -0.441307394422     1.007825032230
         H           -0.829824128016     3.433536928096    -0.175690394422     1.007825032230
         H           -0.539019128016     2.677586928096    -1.745148394422     1.007825032230
         H            0.797944871984     3.495190928096    -0.882128394422     1.007825032230
         H           -4.087056128016     0.193344928096     0.611627605578     1.007825032230
         H           -3.536092128016    -2.181025071904     0.070598605578     1.007825032230

  Basis Set: AUG-CC-PVTZ
    Blend: AUG-CC-PVTZ
  Basis Set: (AUG-CC-PVTZ AUX)
    Blend: AUG-CC-PVTZ-JKFIT
	 Reference Energy          =    -568.4634567303488666 [Eh]
	 Singles Energy            =      -0.0000000000000000 [Eh]
	 Same-Spin Energy          =      -0.6145137373114834 [Eh]
	 Opposite-Spin Energy      =      -1.8873268281435680 [Eh]
	 Correlation Energy        =      -2.5018405654550513 [Eh]
	 Total Energy              =    -570.9652972958039072 [Eh]

	 ================> DF-SCS-MP2 Energies <==================
	-----------------------------------------------------------
	 SCS Same-Spin Scale       =       0.3333333333333333 [-]
	 SCS Opposite-Spin Scale   =       1.2000000000000000 [-]
	 SCS Same-Spin Energy      =      -0.2048379124371611 [Eh]
	 SCS Opposite-Spin Energy  =      -2.2647921937722817 [Eh]
	 SCS Correlation Energy    =      -2.4696301062094430 [Eh]
	 SCS Total Energy          =    -570.9330868365583456 [Eh]
	-----------------------------------------------------------

  Dipole Moment: [D]
     X:    -5.1093      Y:    -0.2358      Z:     0.2334     Total:     5.1200

*** Psi4 exiting successfully. Buy a developer a beer!
