                               Psi4 1.3.2 release

  ==> Input File <==

--------------------------------------------------------------------------
#psi4
#
memory 32 gb

molecule  {
0 1
  O        3.1477550    -1.4485350    -0.2143050
  N        0.9062980    -1.2504610    -0.5893500
  N        1.5545360     1.4658350     0.3351760
  C       -0.6961080     0.5074870     0.0337420
  C       -0.3911060    -0.8453020    -0.2363150
  C        0.3345050     1.5654110    -0.0838510
  C        1.9201190     0.2388570     1.0398190
  C       -2.0282860     0.8425430     0.3372020
  C       -1.4126000    -1.8085370    -0.2310830
  C        2.0139425    -0.7794854     0.1009835
  C       -0.0584500     2.8482670    -0.7690020
  C       -3.0319510    -0.1194250     0.3623450
  C       -2.7230760    -1.4503270     0.0616580
  H        0.9974690    -2.0891180    -1.1576180
  H        1.1650960    -0.0456930     1.7889680
  H        2.8821530     0.3846540     1.5322680
  H       -2.2754030     1.8777800     0.5574090
  H       -1.1609050    -2.8458310    -0.4446670
  H       -0.7945500     3.4046450    -0.1790500
  H       -0.5037450     2.6486950    -1.7485080
  H        0.8332190     3.4662990    -0.8854880
  H       -4.0517820     0.1644530     0.6082680
  H       -3.5008180    -2.2099170     0.0672390
units angstrom
no_reorient  #important for SAPT in psi4, default
symmetry c1  #important for SAPT in psi4, default
}

set PROPERTIES_ORIGIN ["COM"]
properties('MP2/aug-cc-pvtz', properties = ['dipole'])
--------------------------------------------------------------------------

    Molecular point group: c1
  Charge       = 0
  Multiplicity = 1
  Basis Set: AUG-CC-PVTZ
    Blend: AUG-CC-PVTZ
  Basis Set: (AUG-CC-PVTZ AUX)
    Blend: AUG-CC-PVTZ-JKFIT

    Orbital Energies [Eh]
    ---------------------

    Doubly Occupied:

       1A    -20.514412     2A    -15.617285     3A    -15.574590
       4A    -11.370619     5A    -11.316140     6A    -11.309956
       7A    -11.271028     8A    -11.269867     9A    -11.269704
      10A    -11.268990    11A    -11.260958    12A    -11.256876
      13A    -11.238904    14A     -1.338845    15A     -1.257798
      16A     -1.238035    17A     -1.166490    18A     -1.078104
      19A     -1.042814    20A     -1.019384    21A     -0.972557
      22A     -0.890381    23A     -0.858679    24A     -0.804636
      25A     -0.775233    26A     -0.733620    27A     -0.697884
      28A     -0.687341    29A     -0.660466    30A     -0.652626
      31A     -0.633931    32A     -0.626551    33A     -0.593406
      34A     -0.578031    35A     -0.563405    36A     -0.559615
      37A     -0.547577    38A     -0.534202    39A     -0.521858
      40A     -0.513157    41A     -0.441614    42A     -0.426877
      43A     -0.418910    44A     -0.411803    45A     -0.360414
      46A     -0.332645

  @DF-RHF Final Energy:  -568.42302250914906

   => Energetics <=

    Nuclear Repulsion Energy =            761.7363031292535425
    One-Electron Energy =               -2283.3622207559096751
    Two-Electron Energy =                 953.2028951175071825
    Total Energy =                       -568.4230225091490638
  Basis Set: (AUG-CC-PVTZ AUX)
    Blend: AUG-CC-PVTZ-RI
    Molecular point group: c1

    Geometry (in Angstrom), charge = 0, multiplicity = 1:

       Center              X                  Y                   Z               Mass
    ------------   -----------------  -----------------  -----------------  -----------------
         O            3.116322383010    -1.429197551249    -0.217400610616    15.994914619570
         N            0.874865383010    -1.231123551249    -0.592445610616    14.003074004430
         N            1.523103383010     1.485172448751     0.332080389384    14.003074004430
         C           -0.727540616990     0.526824448751     0.030646389384    12.000000000000
         C           -0.422538616990    -0.825964551249    -0.239410610616    12.000000000000
         C            0.303072383010     1.584748448751    -0.086946610616    12.000000000000
         C            1.888686383010     0.258194448751     1.036723389384    12.000000000000
         C           -2.059718616990     0.861880448751     0.334106389384    12.000000000000
         C           -1.444032616990    -1.789199551249    -0.234178610616    12.000000000000
         C            1.982509883010    -0.760147951249     0.097887889384    12.000000000000
         C           -0.089882616990     2.867604448751    -0.772097610616    12.000000000000
         C           -3.063383616990    -0.100087551249     0.359249389384    12.000000000000
         C           -2.754508616990    -1.430989551249     0.058562389384    12.000000000000
         H            0.966036383010    -2.069780551249    -1.160713610616     1.007825032230
         H            1.133663383010    -0.026355551249     1.785872389384     1.007825032230
         H            2.850720383010     0.403991448751     1.529172389384     1.007825032230
         H           -2.306835616990     1.897117448751     0.554313389384     1.007825032230
         H           -1.192337616990    -2.826493551249    -0.447762610616     1.007825032230
         H           -0.825982616990     3.423982448751    -0.182145610616     1.007825032230
         H           -0.535177616990     2.668032448751    -1.751603610616     1.007825032230
         H            0.801786383010     3.485636448751    -0.888583610616     1.007825032230
         H           -4.083214616990     0.183790448751     0.605172389384     1.007825032230
         H           -3.532250616990    -2.190579551249     0.064143389384     1.007825032230

  Basis Set: AUG-CC-PVTZ
    Blend: AUG-CC-PVTZ
  Basis Set: (AUG-CC-PVTZ AUX)
    Blend: AUG-CC-PVTZ-JKFIT
	 Reference Energy          =    -568.4230225091490638 [Eh]
	 Singles Energy            =      -0.0000000000000000 [Eh]
	 Same-Spin Energy          =      -0.6187030288907730 [Eh]
	 Opposite-Spin Energy      =      -1.8950126557862803 [Eh]
	 Correlation Energy        =      -2.5137156846770532 [Eh]
	 Total Energy              =    -570.9367381938261587 [Eh]

	 ================> DF-SCS-MP2 Energies <==================
	-----------------------------------------------------------
	 SCS Same-Spin Scale       =       0.3333333333333333 [-]
	 SCS Opposite-Spin Scale   =       1.2000000000000000 [-]
	 SCS Same-Spin Energy      =      -0.2062343429635910 [Eh]
	 SCS Opposite-Spin Energy  =      -2.2740151869435361 [Eh]
	 SCS Correlation Energy    =      -2.4802495299071272 [Eh]
	 SCS Total Energy          =    -570.9032720390562190 [Eh]
	-----------------------------------------------------------

  Dipole Moment: [D]
     X:    -5.7766      Y:     0.2468      Z:     0.3966     Total:     5.7954

*** Psi4 exiting successfully. Buy a developer a beer!
