                               Psi4 1.3.2 release

  ==> Input File <==

--------------------------------------------------------------------------
#psi4
#
memory 32 gb

molecule  {
0 1
  O        3.1477550    -1.4485350    -0.2143050
  N        0.9062980    -1.2504610    -0.5893500
  N        1.5545360     1.4658350     0.3351760
  C       -0.5886702     0.4222364     0.1061330
  C       -0.3911060    -0.8453020    -0.2363150
  C        0.3345050     1.5654110    -0.0838510
  C        1.9201190     0.2388570     1.0398190
  C       -2.0282860     0.8425430     0.3372020
  C       -1.4126000    -1.8085370    -0.2310830
  C        2.0871850    -0.8915250     0.0446260
  C       -0.0584500     2.8482670    -0.7690020
  C       -3.0319510    -0.1194250     0.3623450
  C       -2.7230760    -1.4503270     0.0616580
  H        0.9974690    -2.0891180    -1.1576180
  H        1.1650960    -0.0456930     1.7889680
  H        2.8821530     0.3846540     1.5322680
  H       -2.2754030     1.8777800     0.5574090
  H       -1.1609050    -2.8458310    -0.4446670
  H       -0.7945500     3.4046450    -0.1790500
  H       -0.5037450     2.6486950    -1.7485080
  H        0.8332190     3.4662990    -0.8854880
  H       -4.0517820     0.1644530     0.6082680
  H       -3.5008180    -2.2099170     0.0672390
units angstrom
no_reorient  #important for SAPT in psi4, default
symmetry c1  #important for SAPT in psi4, default
}

set PROPERTIES_ORIGIN ["COM"]
properties('MP2/aug-cc-pvtz', properties = ['dipole'])
--------------------------------------------------------------------------

    Molecular point group: c1
  Charge       = 0
  Multiplicity = 1
  Basis Set: AUG-CC-PVTZ
    Blend: AUG-CC-PVTZ
  Basis Set: (AUG-CC-PVTZ AUX)
    Blend: AUG-CC-PVTZ-JKFIT

    Orbital Energies [Eh]
    ---------------------

    Doubly Occupied:

       1A    -20.530291     2A    -15.603554     3A    -15.563839
       4A    -11.361337     5A    -11.305705     6A    -11.302028
       7A    -11.274875     8A    -11.267180     9A    -11.265433
      10A    -11.263911    11A    -11.259391    12A    -11.254155
      13A    -11.238779    14A     -1.386068    15A     -1.279351
      16A     -1.232829    17A     -1.159903    18A     -1.062842
      19A     -1.031503    20A     -1.016675    21A     -0.951508
      22A     -0.887667    23A     -0.857141    24A     -0.794398
      25A     -0.766353    26A     -0.728797    27A     -0.689435
      28A     -0.676667    29A     -0.658288    30A     -0.651349
      31A     -0.621256    32A     -0.615205    33A     -0.603695
      34A     -0.587712    35A     -0.566664    36A     -0.559540
      37A     -0.543928    38A     -0.530678    39A     -0.526624
      40A     -0.524690    41A     -0.455043    42A     -0.443772
      43A     -0.416037    44A     -0.400410    45A     -0.347424
      46A     -0.340257

  @DF-RHF Final Energy:  -568.44577735240705

   => Energetics <=

    Nuclear Repulsion Energy =            761.6591574384453907
    One-Electron Energy =               -2283.4014979646995016
    Two-Electron Energy =                 953.2965631738470620
    Total Energy =                       -568.4457773524070490
  Basis Set: (AUG-CC-PVTZ AUX)
    Blend: AUG-CC-PVTZ-RI
    Molecular point group: c1

    Geometry (in Angstrom), charge = 0, multiplicity = 1:

       Center              X                  Y                   Z               Mass
    ------------   -----------------  -----------------  -----------------  -----------------
         O            3.103867349937    -1.415597529742    -0.218505865438    15.994914619570
         N            0.862410349937    -1.217523529742    -0.593550865438    14.003074004430
         N            1.510648349937     1.498772470258     0.330975134562    14.003074004430
         C           -0.632557850063     0.455173870258     0.101932134562    12.000000000000
         C           -0.434993650063    -0.812364529742    -0.240515865438    12.000000000000
         C            0.290617349937     1.598348470258    -0.088051865438    12.000000000000
         C            1.876231349937     0.271794470258     1.035618134562    12.000000000000
         C           -2.072173650063     0.875480470258     0.333001134562    12.000000000000
         C           -1.456487650063    -1.775599529742    -0.235283865438    12.000000000000
         C            2.043297349937    -0.858587529742     0.040425134562    12.000000000000
         C           -0.102337650063     2.881204470258    -0.773202865438    12.000000000000
         C           -3.075838650063    -0.086487529742     0.358144134562    12.000000000000
         C           -2.766963650063    -1.417389529742     0.057457134562    12.000000000000
         H            0.953581349937    -2.056180529742    -1.161818865438     1.007825032230
         H            1.121208349937    -0.012755529742     1.784767134562     1.007825032230
         H            2.838265349937     0.417591470258     1.528067134562     1.007825032230
         H           -2.319290650063     1.910717470258     0.553208134562     1.007825032230
         H           -1.204792650063    -2.812893529742    -0.448867865438     1.007825032230
         H           -0.838437650063     3.437582470258    -0.183250865438     1.007825032230
         H           -0.547632650063     2.681632470258    -1.752708865438     1.007825032230
         H            0.789331349937     3.499236470258    -0.889688865438     1.007825032230
         H           -4.095669650063     0.197390470258     0.604067134562     1.007825032230
         H           -3.544705650063    -2.176979529742     0.063038134562     1.007825032230

  Basis Set: AUG-CC-PVTZ
    Blend: AUG-CC-PVTZ
  Basis Set: (AUG-CC-PVTZ AUX)
    Blend: AUG-CC-PVTZ-JKFIT
	 Reference Energy          =    -568.4457773524070490 [Eh]
	 Singles Energy            =      -0.0000000000000000 [Eh]
	 Same-Spin Energy          =      -0.6143444278964740 [Eh]
	 Opposite-Spin Energy      =      -1.8886356604833705 [Eh]
	 Correlation Energy        =      -2.5029800883798448 [Eh]
	 Total Energy              =    -570.9487574407869488 [Eh]

	 ================> DF-SCS-MP2 Energies <==================
	-----------------------------------------------------------
	 SCS Same-Spin Scale       =       0.3333333333333333 [-]
	 SCS Opposite-Spin Scale   =       1.2000000000000000 [-]
	 SCS Same-Spin Energy      =      -0.2047814759654913 [Eh]
	 SCS Opposite-Spin Energy  =      -2.2663627925800447 [Eh]
	 SCS Correlation Energy    =      -2.4711442685455358 [Eh]
	 SCS Total Energy          =    -570.9169216209526212 [Eh]
	-----------------------------------------------------------

  Dipole Moment: [D]
     X:    -5.2424      Y:    -0.1753      Z:     0.1693     Total:     5.2481

*** Psi4 exiting successfully. Buy a developer a beer!
