                               Psi4 1.3.2 release

  ==> Input File <==

--------------------------------------------------------------------------
#psi4
#
memory 32 gb

molecule  {
0 1
  O        3.1477550    -1.4485350    -0.2143050
  N        0.9062980    -1.2504610    -0.5893500
  N        1.5731725     1.5917579     0.2889535
  C       -0.6961080     0.5074870     0.0337420
  C       -0.3911060    -0.8453020    -0.2363150
  C        0.3345050     1.5654110    -0.0838510
  C        1.9201190     0.2388570     1.0398190
  C       -2.0282860     0.8425430     0.3372020
  C       -1.4126000    -1.8085370    -0.2310830
  C        2.0871850    -0.8915250     0.0446260
  C       -0.0584500     2.8482670    -0.7690020
  C       -3.0319510    -0.1194250     0.3623450
  C       -2.7230760    -1.4503270     0.0616580
  H        0.9974690    -2.0891180    -1.1576180
  H        1.1650960    -0.0456930     1.7889680
  H        2.8821530     0.3846540     1.5322680
  H       -2.2754030     1.8777800     0.5574090
  H       -1.1609050    -2.8458310    -0.4446670
  H       -0.7945500     3.4046450    -0.1790500
  H       -0.5037450     2.6486950    -1.7485080
  H        0.8332190     3.4662990    -0.8854880
  H       -4.0517820     0.1644530     0.6082680
  H       -3.5008180    -2.2099170     0.0672390
units angstrom
no_reorient  #important for SAPT in psi4, default
symmetry c1  #important for SAPT in psi4, default
}

set PROPERTIES_ORIGIN ["COM"]
properties('MP2/aug-cc-pvtz', properties = ['dipole'])
--------------------------------------------------------------------------

    Molecular point group: c1
  Charge       = 0
  Multiplicity = 1
  Basis Set: AUG-CC-PVTZ
    Blend: AUG-CC-PVTZ
  Basis Set: (AUG-CC-PVTZ AUX)
    Blend: AUG-CC-PVTZ-JKFIT

    Orbital Energies [Eh]
    ---------------------

    Doubly Occupied:

       1A    -20.532920     2A    -15.608089     3A    -15.579646
       4A    -11.363982     5A    -11.316604     6A    -11.301627
       7A    -11.271023     8A    -11.270646     9A    -11.268909
      10A    -11.267506    11A    -11.259776    12A    -11.255479
      13A    -11.229338    14A     -1.387795    15A     -1.273920
      16A     -1.224393    17A     -1.165393    18A     -1.060028
      19A     -1.036240    20A     -1.008615    21A     -0.951752
      22A     -0.885238    23A     -0.859879    24A     -0.795799
      25A     -0.763482    26A     -0.729936    27A     -0.685185
      28A     -0.674702    29A     -0.658073    30A     -0.644302
      31A     -0.627576    32A     -0.611955    33A     -0.600432
      34A     -0.584913    35A     -0.567802    36A     -0.558456
      37A     -0.542678    38A     -0.534194    39A     -0.525193
      40A     -0.512100    41A     -0.456177    42A     -0.445439
      43A     -0.424467    44A     -0.410564    45A     -0.358296
      46A     -0.333852

  @DF-RHF Final Energy:  -568.45095271626087

   => Energetics <=

    Nuclear Repulsion Energy =            758.0639826096348770
    One-Electron Energy =               -2276.1811282274525183
    Two-Electron Energy =                 949.6661929015567694
    Total Energy =                       -568.4509527162608720
  Basis Set: (AUG-CC-PVTZ AUX)
    Blend: AUG-CC-PVTZ-RI
    Molecular point group: c1

    Geometry (in Angstrom), charge = 0, multiplicity = 1:

       Center              X                  Y                   Z               Mass
    ------------   -----------------  -----------------  -----------------  -----------------
         O            3.109774343100    -1.431603537810    -0.209797483825    15.994914619570
         N            0.868317343100    -1.233529537810    -0.584842483825    14.003074004430
         N            1.535191843100     1.608689362190     0.293461016175    14.003074004430
         C           -0.734088656900     0.524418462190     0.038249516175    12.000000000000
         C           -0.429086656900    -0.828370537810    -0.231807483825    12.000000000000
         C            0.296524343100     1.582342462190    -0.079343483825    12.000000000000
         C            1.882138343100     0.255788462190     1.044326516175    12.000000000000
         C           -2.066266656900     0.859474462190     0.341709516175    12.000000000000
         C           -1.450580656900    -1.791605537810    -0.226575483825    12.000000000000
         C            2.049204343100    -0.874593537810     0.049133516175    12.000000000000
         C           -0.096430656900     2.865198462190    -0.764494483825    12.000000000000
         C           -3.069931656900    -0.102493537810     0.366852516175    12.000000000000
         C           -2.761056656900    -1.433395537810     0.066165516175    12.000000000000
         H            0.959488343100    -2.072186537810    -1.153110483825     1.007825032230
         H            1.127115343100    -0.028761537810     1.793475516175     1.007825032230
         H            2.844172343100     0.401585462190     1.536775516175     1.007825032230
         H           -2.313383656900     1.894711462190     0.561916516175     1.007825032230
         H           -1.198885656900    -2.828899537810    -0.440159483825     1.007825032230
         H           -0.832530656900     3.421576462190    -0.174542483825     1.007825032230
         H           -0.541725656900     2.665626462190    -1.744000483825     1.007825032230
         H            0.795238343100     3.483230462190    -0.880980483825     1.007825032230
         H           -4.089762656900     0.181384462190     0.612775516175     1.007825032230
         H           -3.538798656900    -2.192985537810     0.071746516175     1.007825032230

  Basis Set: AUG-CC-PVTZ
    Blend: AUG-CC-PVTZ
  Basis Set: (AUG-CC-PVTZ AUX)
    Blend: AUG-CC-PVTZ-JKFIT
	 Reference Energy          =    -568.4509527162608720 [Eh]
	 Singles Energy            =      -0.0000000000000000 [Eh]
	 Same-Spin Energy          =      -0.6148640817331845 [Eh]
	 Opposite-Spin Energy      =      -1.8903969588299732 [Eh]
	 Correlation Energy        =      -2.5052610405631577 [Eh]
	 Total Energy              =    -570.9562137568240132 [Eh]

	 ================> DF-SCS-MP2 Energies <==================
	-----------------------------------------------------------
	 SCS Same-Spin Scale       =       0.3333333333333333 [-]
	 SCS Opposite-Spin Scale   =       1.2000000000000000 [-]
	 SCS Same-Spin Energy      =      -0.2049546939110615 [Eh]
	 SCS Opposite-Spin Energy  =      -2.2684763505959675 [Eh]
	 SCS Correlation Energy    =      -2.4734310445070289 [Eh]
	 SCS Total Energy          =    -570.9243837607679097 [Eh]
	-----------------------------------------------------------

  Dipole Moment: [D]
     X:    -5.2210      Y:    -0.4326      Z:     0.2985     Total:     5.2474

*** Psi4 exiting successfully. Buy a developer a beer!
