                               Psi4 1.3.2 release

  ==> Input File <==

--------------------------------------------------------------------------
#psi4
#
memory 32 gb

molecule  {
0 1
  O        3.1477550    -1.4485350    -0.2143050
  N        0.9062980    -1.2504610    -0.5893500
  N        1.5545360     1.4658350     0.3351760
  C       -0.6961080     0.5074870     0.0337420
  C       -0.4144352    -0.8513725    -0.2311286
  C        0.3345050     1.5654110    -0.0838510
  C        1.9201190     0.2388570     1.0398190
  C       -2.0282860     0.8425430     0.3372020
  C       -1.4126000    -1.8085370    -0.2310830
  C        2.0871850    -0.8915250     0.0446260
  C       -0.0584500     2.8482670    -0.7690020
  C       -3.0319510    -0.1194250     0.3623450
  C       -2.7230760    -1.4503270     0.0616580
  H        0.9974690    -2.0891180    -1.1576180
  H        1.1650960    -0.0456930     1.7889680
  H        2.8821530     0.3846540     1.5322680
  H       -2.2754030     1.8777800     0.5574090
  H       -1.1609050    -2.8458310    -0.4446670
  H       -0.7945500     3.4046450    -0.1790500
  H       -0.5037450     2.6486950    -1.7485080
  H        0.8332190     3.4662990    -0.8854880
  H       -4.0517820     0.1644530     0.6082680
  H       -3.5008180    -2.2099170     0.0672390
units angstrom
no_reorient  #important for SAPT in psi4, default
symmetry c1  #important for SAPT in psi4, default
}

set PROPERTIES_ORIGIN ["COM"]
properties('MP2/aug-cc-pvtz', properties = ['dipole'])
--------------------------------------------------------------------------

    Molecular point group: c1
  Charge       = 0
  Multiplicity = 1
  Basis Set: AUG-CC-PVTZ
    Blend: AUG-CC-PVTZ
  Basis Set: (AUG-CC-PVTZ AUX)
    Blend: AUG-CC-PVTZ-JKFIT

    Orbital Energies [Eh]
    ---------------------

    Doubly Occupied:

       1A    -20.530771     2A    -15.604933     3A    -15.567399
       4A    -11.361309     5A    -11.313251     6A    -11.302987
       7A    -11.267489     8A    -11.266574     9A    -11.266342
      10A    -11.266143    11A    -11.256977    12A    -11.254532
      13A    -11.234574    14A     -1.385617    15A     -1.271966
      16A     -1.231028    17A     -1.166368    18A     -1.066167
      19A     -1.037777    20A     -1.011422    21A     -0.951280
      22A     -0.886030    23A     -0.856404    24A     -0.794360
      25A     -0.768897    26A     -0.726284    27A     -0.690174
      28A     -0.677050    29A     -0.657709    30A     -0.648870
      31A     -0.627397    32A     -0.618021    33A     -0.603090
      34A     -0.586649    35A     -0.565595    36A     -0.558978
      37A     -0.544343    38A     -0.538319    39A     -0.528636
      40A     -0.517002    41A     -0.456536    42A     -0.442425
      43A     -0.418169    44A     -0.405242    45A     -0.355535
      46A     -0.334841

  @DF-RHF Final Energy:  -568.46502745287978

   => Energetics <=

    Nuclear Repulsion Energy =            760.6398551269289783
    One-Electron Energy =               -2281.3668426286881186
    Two-Electron Energy =                 952.2619600488793594
    Total Energy =                       -568.4650274528797809
  Basis Set: (AUG-CC-PVTZ AUX)
    Blend: AUG-CC-PVTZ-RI
    Molecular point group: c1

    Geometry (in Angstrom), charge = 0, multiplicity = 1:

       Center              X                  Y                   Z               Mass
    ------------   -----------------  -----------------  -----------------  -----------------
         O            3.112881654816    -1.421055738325    -0.213873177117    15.994914619570
         N            0.871424654816    -1.222981738325    -0.588918177117    14.003074004430
         N            1.519662654816     1.493314261675     0.335607822883    14.003074004430
         C           -0.730981345184     0.534966261675     0.034173822883    12.000000000000
         C           -0.449308545184    -0.823893238325    -0.230696777117    12.000000000000
         C            0.299631654816     1.592890261675    -0.083419177117    12.000000000000
         C            1.885245654816     0.266336261675     1.040250822883    12.000000000000
         C           -2.063159345184     0.870022261675     0.337633822883    12.000000000000
         C           -1.447473345184    -1.781057738325    -0.230651177117    12.000000000000
         C            2.052311654816    -0.864045738325     0.045057822883    12.000000000000
         C           -0.093323345184     2.875746261675    -0.768570177117    12.000000000000
         C           -3.066824345184    -0.091945738325     0.362776822883    12.000000000000
         C           -2.757949345184    -1.422847738325     0.062089822883    12.000000000000
         H            0.962595654816    -2.061638738325    -1.157186177117     1.007825032230
         H            1.130222654816    -0.018213738325     1.789399822883     1.007825032230
         H            2.847279654816     0.412133261675     1.532699822883     1.007825032230
         H           -2.310276345184     1.905259261675     0.557840822883     1.007825032230
         H           -1.195778345184    -2.818351738325    -0.444235177117     1.007825032230
         H           -0.829423345184     3.432124261675    -0.178618177117     1.007825032230
         H           -0.538618345184     2.676174261675    -1.748076177117     1.007825032230
         H            0.798345654816     3.493778261675    -0.885056177117     1.007825032230
         H           -4.086655345184     0.191932261675     0.608699822883     1.007825032230
         H           -3.535691345184    -2.182437738325     0.067670822883     1.007825032230

  Basis Set: AUG-CC-PVTZ
    Blend: AUG-CC-PVTZ
  Basis Set: (AUG-CC-PVTZ AUX)
    Blend: AUG-CC-PVTZ-JKFIT
	 Reference Energy          =    -568.4650274528797809 [Eh]
	 Singles Energy            =      -0.0000000000000000 [Eh]
	 Same-Spin Energy          =      -0.6142985384101769 [Eh]
	 Opposite-Spin Energy      =      -1.8870668613452342 [Eh]
	 Correlation Energy        =      -2.5013653997554108 [Eh]
	 Total Energy              =    -570.9663928526351810 [Eh]

	 ================> DF-SCS-MP2 Energies <==================
	-----------------------------------------------------------
	 SCS Same-Spin Scale       =       0.3333333333333333 [-]
	 SCS Opposite-Spin Scale   =       1.2000000000000000 [-]
	 SCS Same-Spin Energy      =      -0.2047661794700590 [Eh]
	 SCS Opposite-Spin Energy  =      -2.2644802336142811 [Eh]
	 SCS Correlation Energy    =      -2.4692464130843401 [Eh]
	 SCS Total Energy          =    -570.9342738659640872 [Eh]
	-----------------------------------------------------------

  Dipole Moment: [D]
     X:    -5.2167      Y:    -0.2149      Z:     0.2491     Total:     5.2270

*** Psi4 exiting successfully. Buy a developer a beer!
