                               Psi4 1.3.2 release

  ==> Input File <==

--------------------------------------------------------------------------
#psi4
#
memory 32 gb

molecule  {
0 1
  O        3.1477550    -1.4485350    -0.2143050
  N        0.9062980    -1.2504610    -0.5893500
  N        1.5545360     1.4658350     0.3351760
  C       -0.6961080     0.5074870     0.0337420
  C       -0.4396513    -0.9619109    -0.3114938
  C        0.3345050     1.5654110    -0.0838510
  C        1.9201190     0.2388570     1.0398190
  C       -2.0282860     0.8425430     0.3372020
  C       -1.4126000    -1.8085370    -0.2310830
  C        2.0871850    -0.8915250     0.0446260
  C       -0.0584500     2.8482670    -0.7690020
  C       -3.0319510    -0.1194250     0.3623450
  C       -2.7230760    -1.4503270     0.0616580
  H        0.9974690    -2.0891180    -1.1576180
  H        1.1650960    -0.0456930     1.7889680
  H        2.8821530     0.3846540     1.5322680
  H       -2.2754030     1.8777800     0.5574090
  H       -1.1609050    -2.8458310    -0.4446670
  H       -0.7945500     3.4046450    -0.1790500
  H       -0.5037450     2.6486950    -1.7485080
  H        0.8332190     3.4662990    -0.8854880
  H       -4.0517820     0.1644530     0.6082680
  H       -3.5008180    -2.2099170     0.0672390
units angstrom
no_reorient  #important for SAPT in psi4, default
symmetry c1  #important for SAPT in psi4, default
}

set PROPERTIES_ORIGIN ["COM"]
properties('MP2/aug-cc-pvtz', properties = ['dipole'])
--------------------------------------------------------------------------

    Molecular point group: c1
  Charge       = 0
  Multiplicity = 1
  Basis Set: AUG-CC-PVTZ
    Blend: AUG-CC-PVTZ
  Basis Set: (AUG-CC-PVTZ AUX)
    Blend: AUG-CC-PVTZ-JKFIT

    Orbital Energies [Eh]
    ---------------------

    Doubly Occupied:

       1A    -20.533914     2A    -15.605218     3A    -15.566823
       4A    -11.366028     5A    -11.311561     6A    -11.303064
       7A    -11.274344     8A    -11.267087     9A    -11.267044
      10A    -11.266126    11A    -11.254382    12A    -11.245316
      13A    -11.234109    14A     -1.388255    15A     -1.273566
      16A     -1.233929    17A     -1.166062    18A     -1.065388
      19A     -1.048800    20A     -1.002150    21A     -0.952433
      22A     -0.891773    23A     -0.849901    24A     -0.800285
      25A     -0.764906    26A     -0.730772    27A     -0.690855
      28A     -0.678749    29A     -0.661070    30A     -0.634773
      31A     -0.629392    32A     -0.618420    33A     -0.605173
      34A     -0.586295    35A     -0.569203    36A     -0.558669
      37A     -0.546166    38A     -0.536855    39A     -0.527683
      40A     -0.504227    41A     -0.458562    42A     -0.445682
      43A     -0.416947    44A     -0.407364    45A     -0.359618
      46A     -0.328462

  @DF-RHF Final Energy:  -568.44076658247980

   => Energetics <=

    Nuclear Repulsion Energy =            759.5509206688390123
    One-Electron Energy =               -2279.1285770862705249
    Two-Electron Energy =                 951.1368898349518304
    Total Energy =                       -568.4407665824797959
  Basis Set: (AUG-CC-PVTZ AUX)
    Blend: AUG-CC-PVTZ-RI
    Molecular point group: c1

    Geometry (in Angstrom), charge = 0, multiplicity = 1:

       Center              X                  Y                   Z               Mass
    ------------   -----------------  -----------------  -----------------  -----------------
         O            3.114619903864    -1.413435873693    -0.208333274738    15.994914619570
         N            0.873162903864    -1.215361873693    -0.583378274738    14.003074004430
         N            1.521400903864     1.500934126307     0.341147725262    14.003074004430
         C           -0.729243096136     0.542586126307     0.039713725262    12.000000000000
         C           -0.472786396136    -0.926811773693    -0.305522074738    12.000000000000
         C            0.301369903864     1.600510126307    -0.077879274738    12.000000000000
         C            1.886983903864     0.273956126307     1.045790725262    12.000000000000
         C           -2.061421096136     0.877642126307     0.343173725262    12.000000000000
         C           -1.445735096136    -1.773437873693    -0.225111274738    12.000000000000
         C            2.054049903864    -0.856425873693     0.050597725262    12.000000000000
         C           -0.091585096136     2.883366126307    -0.763030274738    12.000000000000
         C           -3.065086096136    -0.084325873693     0.368316725262    12.000000000000
         C           -2.756211096136    -1.415227873693     0.067629725262    12.000000000000
         H            0.964333903864    -2.054018873693    -1.151646274738     1.007825032230
         H            1.131960903864    -0.010593873693     1.794939725262     1.007825032230
         H            2.849017903864     0.419753126307     1.538239725262     1.007825032230
         H           -2.308538096136     1.912879126307     0.563380725262     1.007825032230
         H           -1.194040096136    -2.810731873693    -0.438695274738     1.007825032230
         H           -0.827685096136     3.439744126307    -0.173078274738     1.007825032230
         H           -0.536880096136     2.683794126307    -1.742536274738     1.007825032230
         H            0.800083903864     3.501398126307    -0.879516274738     1.007825032230
         H           -4.084917096136     0.199552126307     0.614239725262     1.007825032230
         H           -3.533953096136    -2.174817873693     0.073210725262     1.007825032230

  Basis Set: AUG-CC-PVTZ
    Blend: AUG-CC-PVTZ
  Basis Set: (AUG-CC-PVTZ AUX)
    Blend: AUG-CC-PVTZ-JKFIT
	 Reference Energy          =    -568.4407665824797959 [Eh]
	 Singles Energy            =      -0.0000000000000000 [Eh]
	 Same-Spin Energy          =      -0.6144185853473999 [Eh]
	 Opposite-Spin Energy      =      -1.8884613682487492 [Eh]
	 Correlation Energy        =      -2.5028799535961492 [Eh]
	 Total Energy              =    -570.9436465360759030 [Eh]

	 ================> DF-SCS-MP2 Energies <==================
	-----------------------------------------------------------
	 SCS Same-Spin Scale       =       0.3333333333333333 [-]
	 SCS Opposite-Spin Scale   =       1.2000000000000000 [-]
	 SCS Same-Spin Energy      =      -0.2048061951157999 [Eh]
	 SCS Opposite-Spin Energy  =      -2.2661536418984989 [Eh]
	 SCS Correlation Energy    =      -2.4709598370142989 [Eh]
	 SCS Total Energy          =    -570.9117264194941299 [Eh]
	-----------------------------------------------------------

  Dipole Moment: [D]
     X:    -5.0984      Y:    -0.2457      Z:     0.2563     Total:     5.1108

*** Psi4 exiting successfully. Buy a developer a beer!
