                               Psi4 1.3.2 release

  ==> Input File <==

--------------------------------------------------------------------------
#psi4
#
memory 32 gb

molecule  {
0 1
  O        3.1477550    -1.4485350    -0.2143050
  N        0.9062980    -1.2504610    -0.5893500
  N        1.5545360     1.4658350     0.3351760
  C       -0.6961080     0.5074870     0.0337420
  C       -0.3911060    -0.8453020    -0.2363150
  C        0.3557850     1.6467792    -0.1167419
  C        1.9201190     0.2388570     1.0398190
  C       -2.0282860     0.8425430     0.3372020
  C       -1.4126000    -1.8085370    -0.2310830
  C        2.0871850    -0.8915250     0.0446260
  C       -0.0584500     2.8482670    -0.7690020
  C       -3.0319510    -0.1194250     0.3623450
  C       -2.7230760    -1.4503270     0.0616580
  H        0.9974690    -2.0891180    -1.1576180
  H        1.1650960    -0.0456930     1.7889680
  H        2.8821530     0.3846540     1.5322680
  H       -2.2754030     1.8777800     0.5574090
  H       -1.1609050    -2.8458310    -0.4446670
  H       -0.7945500     3.4046450    -0.1790500
  H       -0.5037450     2.6486950    -1.7485080
  H        0.8332190     3.4662990    -0.8854880
  H       -4.0517820     0.1644530     0.6082680
  H       -3.5008180    -2.2099170     0.0672390
units angstrom
no_reorient  #important for SAPT in psi4, default
symmetry c1  #important for SAPT in psi4, default
}

set PROPERTIES_ORIGIN ["COM"]
properties('MP2/aug-cc-pvtz', properties = ['dipole'])
--------------------------------------------------------------------------

    Molecular point group: c1
  Charge       = 0
  Multiplicity = 1
  Basis Set: AUG-CC-PVTZ
    Blend: AUG-CC-PVTZ
  Basis Set: (AUG-CC-PVTZ AUX)
    Blend: AUG-CC-PVTZ-JKFIT

    Orbital Energies [Eh]
    ---------------------

    Doubly Occupied:

       1A    -20.531999     2A    -15.605138     3A    -15.566180
       4A    -11.362459     5A    -11.311341     6A    -11.306158
       7A    -11.269859     8A    -11.267104     9A    -11.262421
      10A    -11.262086    11A    -11.256302    12A    -11.251403
      13A    -11.234601    14A     -1.386982    15A     -1.272772
      16A     -1.231740    17A     -1.160895    18A     -1.066938
      19A     -1.034239    20A     -1.017513    21A     -0.959242
      22A     -0.876599    23A     -0.855041    24A     -0.791702
      25A     -0.764114    26A     -0.726812    27A     -0.691165
      28A     -0.676783    29A     -0.655127    30A     -0.647744
      31A     -0.626635    32A     -0.625068    33A     -0.604689
      34A     -0.595117    35A     -0.566121    36A     -0.561226
      37A     -0.550648    38A     -0.534875    39A     -0.525949
      40A     -0.516612    41A     -0.456027    42A     -0.443061
      43A     -0.411582    44A     -0.399790    45A     -0.354314
      46A     -0.329583

  @DF-RHF Final Energy:  -568.45758839333257

   => Energetics <=

    Nuclear Repulsion Energy =            759.6951196094553325
    One-Electron Energy =               -2279.4978993650029224
    Two-Electron Energy =                 951.3451913622150187
    Total Energy =                       -568.4575883933325713
  Basis Set: (AUG-CC-PVTZ AUX)
    Blend: AUG-CC-PVTZ-RI
    Molecular point group: c1

    Geometry (in Angstrom), charge = 0, multiplicity = 1:

       Center              X                  Y                   Z               Mass
    ------------   -----------------  -----------------  -----------------  -----------------
         O            3.109806559959    -1.427083246030    -0.211248352879    15.994914619570
         N            0.868349559959    -1.229009246030    -0.586293352879    14.003074004430
         N            1.516587559959     1.487286753970     0.338232647121    14.003074004430
         C           -0.734056440041     0.528938753970     0.036798647121    12.000000000000
         C           -0.429054440041    -0.823850246030    -0.233258352879    12.000000000000
         C            0.317836559959     1.668230953970    -0.113685252879    12.000000000000
         C            1.882170559959     0.260308753970     1.042875647121    12.000000000000
         C           -2.066234440041     0.863994753970     0.340258647121    12.000000000000
         C           -1.450548440041    -1.787085246030    -0.228026352879    12.000000000000
         C            2.049236559959    -0.870073246030     0.047682647121    12.000000000000
         C           -0.096398440041     2.869718753970    -0.765945352879    12.000000000000
         C           -3.069899440041    -0.097973246030     0.365401647121    12.000000000000
         C           -2.761024440041    -1.428875246030     0.064714647121    12.000000000000
         H            0.959520559959    -2.067666246030    -1.154561352879     1.007825032230
         H            1.127147559959    -0.024241246030     1.792024647121     1.007825032230
         H            2.844204559959     0.406105753970     1.535324647121     1.007825032230
         H           -2.313351440041     1.899231753970     0.560465647121     1.007825032230
         H           -1.198853440041    -2.824379246030    -0.441610352879     1.007825032230
         H           -0.832498440041     3.426096753970    -0.175993352879     1.007825032230
         H           -0.541693440041     2.670146753970    -1.745451352879     1.007825032230
         H            0.795270559959     3.487750753970    -0.882431352879     1.007825032230
         H           -4.089730440041     0.185904753970     0.611324647121     1.007825032230
         H           -3.538766440041    -2.188465246030     0.070295647121     1.007825032230

  Basis Set: AUG-CC-PVTZ
    Blend: AUG-CC-PVTZ
  Basis Set: (AUG-CC-PVTZ AUX)
    Blend: AUG-CC-PVTZ-JKFIT
	 Reference Energy          =    -568.4575883933325713 [Eh]
	 Singles Energy            =      -0.0000000000000000 [Eh]
	 Same-Spin Energy          =      -0.6145079885702842 [Eh]
	 Opposite-Spin Energy      =      -1.8870733027109576 [Eh]
	 Correlation Energy        =      -2.5015812912812416 [Eh]
	 Total Energy              =    -570.9591696846138120 [Eh]

	 ================> DF-SCS-MP2 Energies <==================
	-----------------------------------------------------------
	 SCS Same-Spin Scale       =       0.3333333333333333 [-]
	 SCS Opposite-Spin Scale   =       1.2000000000000000 [-]
	 SCS Same-Spin Energy      =      -0.2048359961900947 [Eh]
	 SCS Opposite-Spin Energy  =      -2.2644879632531492 [Eh]
	 SCS Correlation Energy    =      -2.4693239594432441 [Eh]
	 SCS Total Energy          =    -570.9269123527758438 [Eh]
	-----------------------------------------------------------

  Dipole Moment: [D]
     X:    -5.0195      Y:     0.0636      Z:     0.1318     Total:     5.0217

*** Psi4 exiting successfully. Buy a developer a beer!
