                               Psi4 1.3.2 release

  ==> Input File <==

--------------------------------------------------------------------------
#psi4
#
memory 32 gb

molecule  {
0 1
  O        3.1477550    -1.4485350    -0.2143050
  N        0.8510540    -1.3855625    -0.6067226
  N        1.5545360     1.4658350     0.3351760
  C       -0.6961080     0.5074870     0.0337420
  C       -0.3911060    -0.8453020    -0.2363150
  C        0.3345050     1.5654110    -0.0838510
  C        1.9201190     0.2388570     1.0398190
  C       -2.0282860     0.8425430     0.3372020
  C       -1.4126000    -1.8085370    -0.2310830
  C        2.0871850    -0.8915250     0.0446260
  C       -0.0584500     2.8482670    -0.7690020
  C       -3.0319510    -0.1194250     0.3623450
  C       -2.7230760    -1.4503270     0.0616580
  H        0.9974690    -2.0891180    -1.1576180
  H        1.1650960    -0.0456930     1.7889680
  H        2.8821530     0.3846540     1.5322680
  H       -2.2754030     1.8777800     0.5574090
  H       -1.1609050    -2.8458310    -0.4446670
  H       -0.7945500     3.4046450    -0.1790500
  H       -0.5037450     2.6486950    -1.7485080
  H        0.8332190     3.4662990    -0.8854880
  H       -4.0517820     0.1644530     0.6082680
  H       -3.5008180    -2.2099170     0.0672390
units angstrom
no_reorient  #important for SAPT in psi4, default
symmetry c1  #important for SAPT in psi4, default
}

set PROPERTIES_ORIGIN ["COM"]
properties('MP2/aug-cc-pvtz', properties = ['dipole'])
--------------------------------------------------------------------------

    Molecular point group: c1
  Charge       = 0
  Multiplicity = 1
  Basis Set: AUG-CC-PVTZ
    Blend: AUG-CC-PVTZ
  Basis Set: (AUG-CC-PVTZ AUX)
    Blend: AUG-CC-PVTZ-JKFIT

    Orbital Energies [Eh]
    ---------------------

    Doubly Occupied:

       1A    -20.542845     2A    -15.593928     3A    -15.567751
       4A    -11.372574     5A    -11.312405     6A    -11.304012
       7A    -11.273518     8A    -11.266439     9A    -11.265101
      10A    -11.261494    11A    -11.251428    12A    -11.250571
      13A    -11.234754    14A     -1.389092    15A     -1.270922
      16A     -1.235576    17A     -1.160394    18A     -1.064514
      19A     -1.029351    20A     -1.014053    21A     -0.954410
      22A     -0.880713    23A     -0.855844    24A     -0.795552
      25A     -0.771033    26A     -0.734488    27A     -0.688583
      28A     -0.680268    29A     -0.654001    30A     -0.651783
      31A     -0.625173    32A     -0.621575    33A     -0.610498
      34A     -0.586750    35A     -0.561398    36A     -0.557824
      37A     -0.543519    38A     -0.537370    39A     -0.526689
      40A     -0.516363    41A     -0.457865    42A     -0.445419
      43A     -0.418110    44A     -0.408210    45A     -0.353504
      46A     -0.327092

  @DF-RHF Final Energy:  -568.44263906540186

   => Energetics <=

    Nuclear Repulsion Energy =            758.6502094674051477
    One-Electron Energy =               -2277.3361861563853381
    Two-Electron Energy =                 950.2433376235783271
    Total Energy =                       -568.4426390654018633
  Basis Set: (AUG-CC-PVTZ AUX)
    Blend: AUG-CC-PVTZ-RI
    Molecular point group: c1

    Geometry (in Angstrom), charge = 0, multiplicity = 1:

       Center              X                  Y                   Z               Mass
    ------------   -----------------  -----------------  -----------------  -----------------
         O            3.115717347420    -1.410606534041    -0.212118192000    15.994914619570
         N            0.819016347420    -1.347634034041    -0.604535792000    14.003074004430
         N            1.522498347420     1.503763465959     0.337362808000    14.003074004430
         C           -0.728145652580     0.545415465959     0.035928808000    12.000000000000
         C           -0.423143652580    -0.807373534041    -0.234128192000    12.000000000000
         C            0.302467347420     1.603339465959    -0.081664192000    12.000000000000
         C            1.888081347420     0.276785465959     1.042005808000    12.000000000000
         C           -2.060323652580     0.880471465959     0.339388808000    12.000000000000
         C           -1.444637652580    -1.770608534041    -0.228896192000    12.000000000000
         C            2.055147347420    -0.853596534041     0.046812808000    12.000000000000
         C           -0.090487652580     2.886195465959    -0.766815192000    12.000000000000
         C           -3.063988652580    -0.081496534041     0.364531808000    12.000000000000
         C           -2.755113652580    -1.412398534041     0.063844808000    12.000000000000
         H            0.965431347420    -2.051189534041    -1.155431192000     1.007825032230
         H            1.133058347420    -0.007764534041     1.791154808000     1.007825032230
         H            2.850115347420     0.422582465959     1.534454808000     1.007825032230
         H           -2.307440652580     1.915708465959     0.559595808000     1.007825032230
         H           -1.192942652580    -2.807902534041    -0.442480192000     1.007825032230
         H           -0.826587652580     3.442573465959    -0.176863192000     1.007825032230
         H           -0.535782652580     2.686623465959    -1.746321192000     1.007825032230
         H            0.801181347420     3.504227465959    -0.883301192000     1.007825032230
         H           -4.083819652580     0.202381465959     0.610454808000     1.007825032230
         H           -3.532855652580    -2.171988534041     0.069425808000     1.007825032230

  Basis Set: AUG-CC-PVTZ
    Blend: AUG-CC-PVTZ
  Basis Set: (AUG-CC-PVTZ AUX)
    Blend: AUG-CC-PVTZ-JKFIT
	 Reference Energy          =    -568.4426390654018633 [Eh]
	 Singles Energy            =      -0.0000000000000000 [Eh]
	 Same-Spin Energy          =      -0.6137895690936892 [Eh]
	 Opposite-Spin Energy      =      -1.8872262789764847 [Eh]
	 Correlation Energy        =      -2.5010158480701739 [Eh]
	 Total Energy              =    -570.9436549134720735 [Eh]

	 ================> DF-SCS-MP2 Energies <==================
	-----------------------------------------------------------
	 SCS Same-Spin Scale       =       0.3333333333333333 [-]
	 SCS Opposite-Spin Scale   =       1.2000000000000000 [-]
	 SCS Same-Spin Energy      =      -0.2045965230312297 [Eh]
	 SCS Opposite-Spin Energy  =      -2.2646715347717814 [Eh]
	 SCS Correlation Energy    =      -2.4692680578030113 [Eh]
	 SCS Total Energy          =    -570.9119071232048555 [Eh]
	-----------------------------------------------------------

  Dipole Moment: [D]
     X:    -4.6055      Y:    -0.0888      Z:     0.2787     Total:     4.6148

*** Psi4 exiting successfully. Buy a developer a beer!
