                               Psi4 1.3.2 release

  ==> Input File <==

--------------------------------------------------------------------------
#psi4
#
memory 32 gb

molecule  {
0 1
  O        3.1477550    -1.4485350    -0.2143050
  N        0.9062980    -1.2504610    -0.5893500
  N        1.5545360     1.4658350     0.3351760
  C       -0.7099928     0.4606875     0.0284332
  C       -0.3911060    -0.8453020    -0.2363150
  C        0.3345050     1.5654110    -0.0838510
  C        1.9201190     0.2388570     1.0398190
  C       -2.0282860     0.8425430     0.3372020
  C       -1.4126000    -1.8085370    -0.2310830
  C        2.0871850    -0.8915250     0.0446260
  C       -0.0584500     2.8482670    -0.7690020
  C       -3.0319510    -0.1194250     0.3623450
  C       -2.7230760    -1.4503270     0.0616580
  H        0.9974690    -2.0891180    -1.1576180
  H        1.1650960    -0.0456930     1.7889680
  H        2.8821530     0.3846540     1.5322680
  H       -2.2754030     1.8777800     0.5574090
  H       -1.1609050    -2.8458310    -0.4446670
  H       -0.7945500     3.4046450    -0.1790500
  H       -0.5037450     2.6486950    -1.7485080
  H        0.8332190     3.4662990    -0.8854880
  H       -4.0517820     0.1644530     0.6082680
  H       -3.5008180    -2.2099170     0.0672390
units angstrom
no_reorient  #important for SAPT in psi4, default
symmetry c1  #important for SAPT in psi4, default
}

set PROPERTIES_ORIGIN ["COM"]
properties('MP2/aug-cc-pvtz', properties = ['dipole'])
--------------------------------------------------------------------------

    Molecular point group: c1
  Charge       = 0
  Multiplicity = 1
  Basis Set: AUG-CC-PVTZ
    Blend: AUG-CC-PVTZ
  Basis Set: (AUG-CC-PVTZ AUX)
    Blend: AUG-CC-PVTZ-JKFIT

    Orbital Energies [Eh]
    ---------------------

    Doubly Occupied:

       1A    -20.531915     2A    -15.606241     3A    -15.566836
       4A    -11.362260     5A    -11.308512     6A    -11.304686
       7A    -11.266964     8A    -11.265654     9A    -11.264038
      10A    -11.263944    11A    -11.258335    12A    -11.253860
      13A    -11.234974    14A     -1.387172    15A     -1.276277
      16A     -1.231555    17A     -1.166939    18A     -1.062598
      19A     -1.035876    20A     -1.014595    21A     -0.951451
      22A     -0.881653    23A     -0.860186    24A     -0.794208
      25A     -0.767911    26A     -0.726830    27A     -0.690717
      28A     -0.677359    29A     -0.655494    30A     -0.650992
      31A     -0.626968    32A     -0.617913    33A     -0.604647
      34A     -0.586286    35A     -0.567211    36A     -0.558902
      37A     -0.541912    38A     -0.538772    39A     -0.529280
      40A     -0.517037    41A     -0.457154    42A     -0.444278
      43A     -0.415870    44A     -0.403199    45A     -0.355674
      46A     -0.335480

  @DF-RHF Final Energy:  -568.46424349801759

   => Energetics <=

    Nuclear Repulsion Energy =            760.9694608075295719
    One-Electron Energy =               -2282.0261777472633185
    Two-Electron Energy =                 952.5924734417160380
    Total Energy =                       -568.4642434980175949
  Basis Set: (AUG-CC-PVTZ AUX)
    Blend: AUG-CC-PVTZ-RI
    Molecular point group: c1

    Geometry (in Angstrom), charge = 0, multiplicity = 1:

       Center              X                  Y                   Z               Mass
    ------------   -----------------  -----------------  -----------------  -----------------
         O            3.112230613644    -1.418248121546    -0.213149699997    15.994914619570
         N            0.870773613644    -1.220174121546    -0.588194699997    14.003074004430
         N            1.519011613644     1.496121878454     0.336331300003    14.003074004430
         C           -0.745517186356     0.490974378454     0.029588500003    12.000000000000
         C           -0.426630386356    -0.815015121546    -0.235159699997    12.000000000000
         C            0.298980613644     1.595697878454    -0.082695699997    12.000000000000
         C            1.884594613644     0.269143878454     1.040974300003    12.000000000000
         C           -2.063810386356     0.872829878454     0.338357300003    12.000000000000
         C           -1.448124386356    -1.778250121546    -0.229927699997    12.000000000000
         C            2.051660613644    -0.861238121546     0.045781300003    12.000000000000
         C           -0.093974386356     2.878553878454    -0.767846699997    12.000000000000
         C           -3.067475386356    -0.089138121546     0.363500300003    12.000000000000
         C           -2.758600386356    -1.420040121546     0.062813300003    12.000000000000
         H            0.961944613644    -2.058831121546    -1.156462699997     1.007825032230
         H            1.129571613644    -0.015406121546     1.790123300003     1.007825032230
         H            2.846628613644     0.414940878454     1.533423300003     1.007825032230
         H           -2.310927386356     1.908066878454     0.558564300003     1.007825032230
         H           -1.196429386356    -2.815544121546    -0.443511699997     1.007825032230
         H           -0.830074386356     3.434931878454    -0.177894699997     1.007825032230
         H           -0.539269386356     2.678981878454    -1.747352699997     1.007825032230
         H            0.797694613644     3.496585878454    -0.884332699997     1.007825032230
         H           -4.087306386356     0.194739878454     0.609423300003     1.007825032230
         H           -3.536342386356    -2.179630121546     0.068394300003     1.007825032230

  Basis Set: AUG-CC-PVTZ
    Blend: AUG-CC-PVTZ
  Basis Set: (AUG-CC-PVTZ AUX)
    Blend: AUG-CC-PVTZ-JKFIT
	 Reference Energy          =    -568.4642434980175949 [Eh]
	 Singles Energy            =      -0.0000000000000000 [Eh]
	 Same-Spin Energy          =      -0.6138680897180280 [Eh]
	 Opposite-Spin Energy      =      -1.8865585942047516 [Eh]
	 Correlation Energy        =      -2.5004266839227798 [Eh]
	 Total Energy              =    -570.9646701819403916 [Eh]

	 ================> DF-SCS-MP2 Energies <==================
	-----------------------------------------------------------
	 SCS Same-Spin Scale       =       0.3333333333333333 [-]
	 SCS Opposite-Spin Scale   =       1.2000000000000000 [-]
	 SCS Same-Spin Energy      =      -0.2046226965726760 [Eh]
	 SCS Opposite-Spin Energy  =      -2.2638703130457016 [Eh]
	 SCS Correlation Energy    =      -2.4684930096183777 [Eh]
	 SCS Total Energy          =    -570.9327365076359229 [Eh]
	-----------------------------------------------------------

  Dipole Moment: [D]
     X:    -5.1144      Y:    -0.1873      Z:     0.2283     Total:     5.1229

*** Psi4 exiting successfully. Buy a developer a beer!
