                               Psi4 1.3.2 release

  ==> Input File <==

--------------------------------------------------------------------------
#psi4
#
memory 32 gb

molecule  {
0 1
  O        3.1477550    -1.4485350    -0.2143050
  N        0.9183638    -1.2673816    -0.6017822
  N        1.5545360     1.4658350     0.3351760
  C       -0.6961080     0.5074870     0.0337420
  C       -0.3911060    -0.8453020    -0.2363150
  C        0.3345050     1.5654110    -0.0838510
  C        1.9201190     0.2388570     1.0398190
  C       -2.0282860     0.8425430     0.3372020
  C       -1.4126000    -1.8085370    -0.2310830
  C        2.0871850    -0.8915250     0.0446260
  C       -0.0584500     2.8482670    -0.7690020
  C       -3.0319510    -0.1194250     0.3623450
  C       -2.7230760    -1.4503270     0.0616580
  H        0.9974690    -2.0891180    -1.1576180
  H        1.1650960    -0.0456930     1.7889680
  H        2.8821530     0.3846540     1.5322680
  H       -2.2754030     1.8777800     0.5574090
  H       -1.1609050    -2.8458310    -0.4446670
  H       -0.7945500     3.4046450    -0.1790500
  H       -0.5037450     2.6486950    -1.7485080
  H        0.8332190     3.4662990    -0.8854880
  H       -4.0517820     0.1644530     0.6082680
  H       -3.5008180    -2.2099170     0.0672390
units angstrom
no_reorient  #important for SAPT in psi4, default
symmetry c1  #important for SAPT in psi4, default
}

set PROPERTIES_ORIGIN ["COM"]
properties('MP2/aug-cc-pvtz', properties = ['dipole'])
--------------------------------------------------------------------------

    Molecular point group: c1
  Charge       = 0
  Multiplicity = 1
  Basis Set: AUG-CC-PVTZ
    Blend: AUG-CC-PVTZ
  Basis Set: (AUG-CC-PVTZ AUX)
    Blend: AUG-CC-PVTZ-JKFIT

    Orbital Energies [Eh]
    ---------------------

    Doubly Occupied:

       1A    -20.530357     2A    -15.604930     3A    -15.567357
       4A    -11.361394     5A    -11.315333     6A    -11.302778
       7A    -11.267733     8A    -11.267645     9A    -11.266439
      10A    -11.265668    11A    -11.258797    12A    -11.254520
      13A    -11.234457    14A     -1.386566    15A     -1.272637
      16A     -1.232405    17A     -1.165087    18A     -1.065784
      19A     -1.034986    20A     -1.012316    21A     -0.952005
      22A     -0.884975    23A     -0.856583    24A     -0.797549
      25A     -0.768842    26A     -0.728022    27A     -0.691240
      28A     -0.677305    29A     -0.657281    30A     -0.649564
      31A     -0.626384    32A     -0.619112    33A     -0.604093
      34A     -0.586616    35A     -0.566143    36A     -0.558971
      37A     -0.543710    38A     -0.539098    39A     -0.527977
      40A     -0.516530    41A     -0.456511    42A     -0.442774
      43A     -0.417746    44A     -0.405474    45A     -0.355283
      46A     -0.333702

  @DF-RHF Final Energy:  -568.46564451816892

   => Energetics <=

    Nuclear Repulsion Energy =            760.2620694098746981
    One-Electron Energy =               -2280.5940672720207658
    Two-Electron Energy =                 951.8663533439772664
    Total Energy =                       -568.4656445181689151
  Basis Set: (AUG-CC-PVTZ AUX)
    Blend: AUG-CC-PVTZ-RI
    Molecular point group: c1

    Geometry (in Angstrom), charge = 0, multiplicity = 1:

       Center              X                  Y                   Z               Mass
    ------------   -----------------  -----------------  -----------------  -----------------
         O            3.110302895268    -1.420113096657    -0.212515601581    15.994914619570
         N            0.880911695268    -1.238959696657    -0.599992801581    14.003074004430
         N            1.517083895268     1.494256903343     0.336965398419    14.003074004430
         C           -0.733560104732     0.535908903343     0.035531398419    12.000000000000
         C           -0.428558104732    -0.816880096657    -0.234525601581    12.000000000000
         C            0.297052895268     1.593832903343    -0.082061601581    12.000000000000
         C            1.882666895268     0.267278903343     1.041608398419    12.000000000000
         C           -2.065738104732     0.870964903343     0.338991398419    12.000000000000
         C           -1.450052104732    -1.780115096657    -0.229293601581    12.000000000000
         C            2.049732895268    -0.863103096657     0.046415398419    12.000000000000
         C           -0.095902104732     2.876688903343    -0.767212601581    12.000000000000
         C           -3.069403104732    -0.091003096657     0.364134398419    12.000000000000
         C           -2.760528104732    -1.421905096657     0.063447398419    12.000000000000
         H            0.960016895268    -2.060696096657    -1.155828601581     1.007825032230
         H            1.127643895268    -0.017271096657     1.790757398419     1.007825032230
         H            2.844700895268     0.413075903343     1.534057398419     1.007825032230
         H           -2.312855104732     1.906201903343     0.559198398419     1.007825032230
         H           -1.198357104732    -2.817409096657    -0.442877601581     1.007825032230
         H           -0.832002104732     3.433066903343    -0.177260601581     1.007825032230
         H           -0.541197104732     2.677116903343    -1.746718601581     1.007825032230
         H            0.795766895268     3.494720903343    -0.883698601581     1.007825032230
         H           -4.089234104732     0.192874903343     0.610057398419     1.007825032230
         H           -3.538270104732    -2.181495096657     0.069028398419     1.007825032230

  Basis Set: AUG-CC-PVTZ
    Blend: AUG-CC-PVTZ
  Basis Set: (AUG-CC-PVTZ AUX)
    Blend: AUG-CC-PVTZ-JKFIT
	 Reference Energy          =    -568.4656445181689151 [Eh]
	 Singles Energy            =      -0.0000000000000000 [Eh]
	 Same-Spin Energy          =      -0.6140247286017831 [Eh]
	 Opposite-Spin Energy      =      -1.8866856969234584 [Eh]
	 Correlation Energy        =      -2.5007104255252415 [Eh]
	 Total Energy              =    -570.9663549436941139 [Eh]

	 ================> DF-SCS-MP2 Energies <==================
	-----------------------------------------------------------
	 SCS Same-Spin Scale       =       0.3333333333333333 [-]
	 SCS Opposite-Spin Scale   =       1.2000000000000000 [-]
	 SCS Same-Spin Energy      =      -0.2046749095339277 [Eh]
	 SCS Opposite-Spin Energy  =      -2.2640228363081500 [Eh]
	 SCS Correlation Energy    =      -2.4686977458420776 [Eh]
	 SCS Total Energy          =    -570.9343422640109793 [Eh]
	-----------------------------------------------------------

  Dipole Moment: [D]
     X:    -5.1760      Y:    -0.2042      Z:     0.2531     Total:     5.1862

*** Psi4 exiting successfully. Buy a developer a beer!
