                               Psi4 1.3.2 release

  ==> Input File <==

--------------------------------------------------------------------------
#psi4
#
memory 32 gb

molecule  {
0 1
  O        3.1477550    -1.4485350    -0.2143050
  N        0.9062980    -1.2504610    -0.5893500
  N        1.5545360     1.4658350     0.3351760
  C       -0.5520814     0.5355448     0.0153674
  C       -0.3911060    -0.8453020    -0.2363150
  C        0.3345050     1.5654110    -0.0838510
  C        1.9201190     0.2388570     1.0398190
  C       -2.0282860     0.8425430     0.3372020
  C       -1.4126000    -1.8085370    -0.2310830
  C        2.0871850    -0.8915250     0.0446260
  C       -0.0584500     2.8482670    -0.7690020
  C       -3.0319510    -0.1194250     0.3623450
  C       -2.7230760    -1.4503270     0.0616580
  H        0.9974690    -2.0891180    -1.1576180
  H        1.1650960    -0.0456930     1.7889680
  H        2.8821530     0.3846540     1.5322680
  H       -2.2754030     1.8777800     0.5574090
  H       -1.1609050    -2.8458310    -0.4446670
  H       -0.7945500     3.4046450    -0.1790500
  H       -0.5037450     2.6486950    -1.7485080
  H        0.8332190     3.4662990    -0.8854880
  H       -4.0517820     0.1644530     0.6082680
  H       -3.5008180    -2.2099170     0.0672390
units angstrom
no_reorient  #important for SAPT in psi4, default
symmetry c1  #important for SAPT in psi4, default
}

set PROPERTIES_ORIGIN ["COM"]
properties('MP2/aug-cc-pvtz', properties = ['dipole'])
--------------------------------------------------------------------------

    Molecular point group: c1
  Charge       = 0
  Multiplicity = 1
  Basis Set: AUG-CC-PVTZ
    Blend: AUG-CC-PVTZ
  Basis Set: (AUG-CC-PVTZ AUX)
    Blend: AUG-CC-PVTZ-JKFIT

    Orbital Energies [Eh]
    ---------------------

    Doubly Occupied:

       1A    -20.530569     2A    -15.604499     3A    -15.564393
       4A    -11.361517     5A    -11.319473     6A    -11.292133
       7A    -11.279958     8A    -11.271362     9A    -11.267953
      10A    -11.265546    11A    -11.261025    12A    -11.255699
      13A    -11.235019    14A     -1.386364    15A     -1.279747
      16A     -1.236719    17A     -1.155637    18A     -1.071534
      19A     -1.030864    20A     -1.008360    21A     -0.951481
      22A     -0.901823    23A     -0.853735    24A     -0.799200
      25A     -0.768588    26A     -0.732461    27A     -0.691436
      28A     -0.677545    29A     -0.661629    30A     -0.651097
      31A     -0.622604    32A     -0.611180    33A     -0.604104
      34A     -0.587629    35A     -0.565788    36A     -0.558025
      37A     -0.549305    38A     -0.537495    39A     -0.523918
      40A     -0.512569    41A     -0.453508    42A     -0.443572
      43A     -0.423045    44A     -0.402754    45A     -0.343572
      46A     -0.334039

  @DF-RHF Final Energy:  -568.43516171295300

   => Energetics <=

    Nuclear Repulsion Energy =            761.4457070666423988
    One-Electron Energy =               -2282.8807908609019250
    Two-Electron Energy =                 952.9999220813065222
    Total Energy =                       -568.4351617129530041
  Basis Set: (AUG-CC-PVTZ AUX)
    Blend: AUG-CC-PVTZ-RI
    Molecular point group: c1

    Geometry (in Angstrom), charge = 0, multiplicity = 1:

       Center              X                  Y                   Z               Mass
    ------------   -----------------  -----------------  -----------------  -----------------
         O            3.101345134100    -1.423408341820    -0.212249020891    15.994914619570
         N            0.859888134100    -1.225334341820    -0.587294020891    14.003074004430
         N            1.508126134100     1.490961658180     0.337231979109    14.003074004430
         C           -0.598491265900     0.560671458180     0.017423379109    12.000000000000
         C           -0.437515865900    -0.820175341820    -0.234259020891    12.000000000000
         C            0.288095134100     1.590537658180    -0.081795020891    12.000000000000
         C            1.873709134100     0.263983658180     1.041874979109    12.000000000000
         C           -2.074695865900     0.867669658180     0.339257979109    12.000000000000
         C           -1.459009865900    -1.783410341820    -0.229027020891    12.000000000000
         C            2.040775134100    -0.866398341820     0.046681979109    12.000000000000
         C           -0.104859865900     2.873393658180    -0.766946020891    12.000000000000
         C           -3.078360865900    -0.094298341820     0.364400979109    12.000000000000
         C           -2.769485865900    -1.425200341820     0.063713979109    12.000000000000
         H            0.951059134100    -2.063991341820    -1.155562020891     1.007825032230
         H            1.118686134100    -0.020566341820     1.791023979109     1.007825032230
         H            2.835743134100     0.409780658180     1.534323979109     1.007825032230
         H           -2.321812865900     1.902906658180     0.559464979109     1.007825032230
         H           -1.207314865900    -2.820704341820    -0.442611020891     1.007825032230
         H           -0.840959865900     3.429771658180    -0.176994020891     1.007825032230
         H           -0.550154865900     2.673821658180    -1.746452020891     1.007825032230
         H            0.786809134100     3.491425658180    -0.883432020891     1.007825032230
         H           -4.098191865900     0.189579658180     0.610323979109     1.007825032230
         H           -3.547227865900    -2.184790341820     0.069294979109     1.007825032230

  Basis Set: AUG-CC-PVTZ
    Blend: AUG-CC-PVTZ
  Basis Set: (AUG-CC-PVTZ AUX)
    Blend: AUG-CC-PVTZ-JKFIT
	 Reference Energy          =    -568.4351617129530041 [Eh]
	 Singles Energy            =      -0.0000000000000000 [Eh]
	 Same-Spin Energy          =      -0.6169346013165367 [Eh]
	 Opposite-Spin Energy      =      -1.8914637560784013 [Eh]
	 Correlation Energy        =      -2.5083983573949382 [Eh]
	 Total Energy              =    -570.9435600703479849 [Eh]

	 ================> DF-SCS-MP2 Energies <==================
	-----------------------------------------------------------
	 SCS Same-Spin Scale       =       0.3333333333333333 [-]
	 SCS Opposite-Spin Scale   =       1.2000000000000000 [-]
	 SCS Same-Spin Energy      =      -0.2056448671055122 [Eh]
	 SCS Opposite-Spin Energy  =      -2.2697565072940815 [Eh]
	 SCS Correlation Energy    =      -2.4754013743995937 [Eh]
	 SCS Total Energy          =    -570.9105630873525570 [Eh]
	-----------------------------------------------------------

  Dipole Moment: [D]
     X:    -5.2456      Y:    -0.3417      Z:     0.1817     Total:     5.2598

*** Psi4 exiting successfully. Buy a developer a beer!
