                               Psi4 1.3.2 release

  ==> Input File <==

--------------------------------------------------------------------------
#psi4
#
memory 32 gb

molecule  {
0 1
  O        3.1477550    -1.4485350    -0.2143050
  N        0.9062980    -1.2504610    -0.5893500
  N        1.5545360     1.4658350     0.3351760
  C       -0.6961080     0.5074870     0.0337420
  C       -0.3911060    -0.8453020    -0.2363150
  C        0.3345050     1.5654110    -0.0838510
  C        1.9201190     0.2388570     1.0398190
  C       -2.0282860     0.8425430     0.3372020
  C       -1.4126000    -1.8085370    -0.2310830
  C        2.0020782    -0.9173936    -0.0010648
  C       -0.0584500     2.8482670    -0.7690020
  C       -3.0319510    -0.1194250     0.3623450
  C       -2.7230760    -1.4503270     0.0616580
  H        0.9974690    -2.0891180    -1.1576180
  H        1.1650960    -0.0456930     1.7889680
  H        2.8821530     0.3846540     1.5322680
  H       -2.2754030     1.8777800     0.5574090
  H       -1.1609050    -2.8458310    -0.4446670
  H       -0.7945500     3.4046450    -0.1790500
  H       -0.5037450     2.6486950    -1.7485080
  H        0.8332190     3.4662990    -0.8854880
  H       -4.0517820     0.1644530     0.6082680
  H       -3.5008180    -2.2099170     0.0672390
units angstrom
no_reorient  #important for SAPT in psi4, default
symmetry c1  #important for SAPT in psi4, default
}

set PROPERTIES_ORIGIN ["COM"]
properties('MP2/aug-cc-pvtz', properties = ['dipole'])
--------------------------------------------------------------------------

    Molecular point group: c1
  Charge       = 0
  Multiplicity = 1
  Basis Set: AUG-CC-PVTZ
    Blend: AUG-CC-PVTZ
  Basis Set: (AUG-CC-PVTZ AUX)
    Blend: AUG-CC-PVTZ-JKFIT

    Orbital Energies [Eh]
    ---------------------

    Doubly Occupied:

       1A    -20.511695     2A    -15.622177     3A    -15.567724
       4A    -11.355912     5A    -11.321347     6A    -11.302183
       7A    -11.273377     8A    -11.270636     9A    -11.270370
      10A    -11.266538    11A    -11.266136    12A    -11.260376
      13A    -11.235169    14A     -1.368796    15A     -1.279014
      16A     -1.239018    17A     -1.173377    18A     -1.067536
      19A     -1.045355    20A     -1.014633    21A     -0.944874
      22A     -0.897696    23A     -0.868834    24A     -0.810536
      25A     -0.774072    26A     -0.738476    27A     -0.692476
      28A     -0.668227    29A     -0.663957    30A     -0.652503
      31A     -0.630400    32A     -0.622267    33A     -0.590641
      34A     -0.585544    35A     -0.567852    36A     -0.559487
      37A     -0.545188    38A     -0.541188    39A     -0.527531
      40A     -0.519855    41A     -0.447721    42A     -0.433556
      43A     -0.416797    44A     -0.396769    45A     -0.357562
      46A     -0.340881

  @DF-RHF Final Energy:  -568.45014139858984

   => Energetics <=

    Nuclear Repulsion Energy =            761.5808898212005715
    One-Electron Energy =               -2283.0495419936705730
    Two-Electron Energy =                 953.0185107738801662
    Total Energy =                       -568.4501413985898353
  Basis Set: (AUG-CC-PVTZ AUX)
    Blend: AUG-CC-PVTZ-RI
    Molecular point group: c1

    Geometry (in Angstrom), charge = 0, multiplicity = 1:

       Center              X                  Y                   Z               Mass
    ------------   -----------------  -----------------  -----------------  -----------------
         O            3.117140237800    -1.419690974207    -0.210366003349    15.994914619570
         N            0.875683237800    -1.221616974207    -0.585411003349    14.003074004430
         N            1.523921237800     1.494679025793     0.339114996651    14.003074004430
         C           -0.726722762200     0.536331025793     0.037680996651    12.000000000000
         C           -0.421720762200    -0.816457974207    -0.232376003349    12.000000000000
         C            0.303890237800     1.594255025793    -0.079912003349    12.000000000000
         C            1.889504237800     0.267701025793     1.043757996651    12.000000000000
         C           -2.058900762200     0.871387025793     0.341140996651    12.000000000000
         C           -1.443214762200    -1.779692974207    -0.227144003349    12.000000000000
         C            1.971463437800    -0.888549574207     0.002874196651    12.000000000000
         C           -0.089064762200     2.877111025793    -0.765063003349    12.000000000000
         C           -3.062565762200    -0.090580974207     0.366283996651    12.000000000000
         C           -2.753690762200    -1.421482974207     0.065596996651    12.000000000000
         H            0.966854237800    -2.060273974207    -1.153679003349     1.007825032230
         H            1.134481237800    -0.016848974207     1.792906996651     1.007825032230
         H            2.851538237800     0.413498025793     1.536206996651     1.007825032230
         H           -2.306017762200     1.906624025793     0.561347996651     1.007825032230
         H           -1.191519762200    -2.816986974207    -0.440728003349     1.007825032230
         H           -0.825164762200     3.433489025793    -0.175111003349     1.007825032230
         H           -0.534359762200     2.677539025793    -1.744569003349     1.007825032230
         H            0.802604237800     3.495143025793    -0.881549003349     1.007825032230
         H           -4.082396762200     0.193297025793     0.612206996651     1.007825032230
         H           -3.531432762200    -2.181072974207     0.071177996651     1.007825032230

  Basis Set: AUG-CC-PVTZ
    Blend: AUG-CC-PVTZ
  Basis Set: (AUG-CC-PVTZ AUX)
    Blend: AUG-CC-PVTZ-JKFIT
	 Reference Energy          =    -568.4501413985898353 [Eh]
	 Singles Energy            =      -0.0000000000000000 [Eh]
	 Same-Spin Energy          =      -0.6152962967944505 [Eh]
	 Opposite-Spin Energy      =      -1.8888847863115852 [Eh]
	 Correlation Energy        =      -2.5041810831060358 [Eh]
	 Total Energy              =    -570.9543224816958400 [Eh]

	 ================> DF-SCS-MP2 Energies <==================
	-----------------------------------------------------------
	 SCS Same-Spin Scale       =       0.3333333333333333 [-]
	 SCS Opposite-Spin Scale   =       1.2000000000000000 [-]
	 SCS Same-Spin Energy      =      -0.2050987655981502 [Eh]
	 SCS Opposite-Spin Energy  =      -2.2666617435739020 [Eh]
	 SCS Correlation Energy    =      -2.4717605091720523 [Eh]
	 SCS Total Energy          =    -570.9219019077619350 [Eh]
	-----------------------------------------------------------

  Dipole Moment: [D]
     X:    -6.0767      Y:    -0.1865      Z:     0.0778     Total:     6.0801

*** Psi4 exiting successfully. Buy a developer a beer!
