                               Psi4 1.3.2 release

  ==> Input File <==

--------------------------------------------------------------------------
#psi4
#
memory 32 gb

molecule  {
0 1
  O        3.1477550    -1.4485350    -0.2143050
  N        0.9062980    -1.2504610    -0.5893500
  N        1.5545360     1.4658350     0.3351760
  C       -0.7294660     0.5385295     0.0092857
  C       -0.3911060    -0.8453020    -0.2363150
  C        0.3345050     1.5654110    -0.0838510
  C        1.9201190     0.2388570     1.0398190
  C       -2.0282860     0.8425430     0.3372020
  C       -1.4126000    -1.8085370    -0.2310830
  C        2.0871850    -0.8915250     0.0446260
  C       -0.0584500     2.8482670    -0.7690020
  C       -3.0319510    -0.1194250     0.3623450
  C       -2.7230760    -1.4503270     0.0616580
  H        0.9974690    -2.0891180    -1.1576180
  H        1.1650960    -0.0456930     1.7889680
  H        2.8821530     0.3846540     1.5322680
  H       -2.2754030     1.8777800     0.5574090
  H       -1.1609050    -2.8458310    -0.4446670
  H       -0.7945500     3.4046450    -0.1790500
  H       -0.5037450     2.6486950    -1.7485080
  H        0.8332190     3.4662990    -0.8854880
  H       -4.0517820     0.1644530     0.6082680
  H       -3.5008180    -2.2099170     0.0672390
units angstrom
no_reorient  #important for SAPT in psi4, default
symmetry c1  #important for SAPT in psi4, default
}

set PROPERTIES_ORIGIN ["COM"]
properties('MP2/aug-cc-pvtz', properties = ['dipole'])
--------------------------------------------------------------------------

    Molecular point group: c1
  Charge       = 0
  Multiplicity = 1
  Basis Set: AUG-CC-PVTZ
    Blend: AUG-CC-PVTZ
  Basis Set: (AUG-CC-PVTZ AUX)
    Blend: AUG-CC-PVTZ-JKFIT

    Orbital Energies [Eh]
    ---------------------

    Doubly Occupied:

       1A    -20.532910     2A    -15.608082     3A    -15.568176
       4A    -11.363015     5A    -11.317191     6A    -11.302871
       7A    -11.267565     8A    -11.266922     9A    -11.265190
      10A    -11.263131    11A    -11.257742    12A    -11.253529
      13A    -11.232809    14A     -1.387979    15A     -1.275151
      16A     -1.233085    17A     -1.166239    18A     -1.067530
      19A     -1.036558    20A     -1.008716    21A     -0.951933
      22A     -0.885171    23A     -0.857960    24A     -0.795718
      25A     -0.768194    26A     -0.729529    27A     -0.692275
      28A     -0.678245    29A     -0.658650    30A     -0.645705
      31A     -0.628779    32A     -0.617418    33A     -0.604896
      34A     -0.586198    35A     -0.567090    36A     -0.558877
      37A     -0.545244    38A     -0.539173    39A     -0.527838
      40A     -0.510876    41A     -0.458414    42A     -0.444887
      43A     -0.417560    44A     -0.406923    45A     -0.358199
      46A     -0.329319

  @DF-RHF Final Energy:  -568.46305937440616

   => Energetics <=

    Nuclear Repulsion Energy =            760.4171092419358047
    One-Electron Energy =               -2280.8814160009142142
    Two-Electron Energy =                 952.0012473845722525
    Total Energy =                       -568.4630593744061571
  Basis Set: (AUG-CC-PVTZ AUX)
    Blend: AUG-CC-PVTZ-RI
    Molecular point group: c1

    Geometry (in Angstrom), charge = 0, multiplicity = 1:

       Center              X                  Y                   Z               Mass
    ------------   -----------------  -----------------  -----------------  -----------------
         O            3.113572981074    -1.423614089415    -0.211829784402    15.994914619570
         N            0.872115981074    -1.225540089415    -0.586874784402    14.003074004430
         N            1.520353981074     1.490755910585     0.337651215598    14.003074004430
         C           -0.763648018926     0.563450410585     0.011760915598    12.000000000000
         C           -0.425288018926    -0.820381089415    -0.233839784402    12.000000000000
         C            0.300322981074     1.590331910585    -0.081375784402    12.000000000000
         C            1.885936981074     0.263777910585     1.042294215598    12.000000000000
         C           -2.062468018926     0.867463910585     0.339677215598    12.000000000000
         C           -1.446782018926    -1.783616089415    -0.228607784402    12.000000000000
         C            2.053002981074    -0.866604089415     0.047101215598    12.000000000000
         C           -0.092632018926     2.873187910585    -0.766526784402    12.000000000000
         C           -3.066133018926    -0.094504089415     0.364820215598    12.000000000000
         C           -2.757258018926    -1.425406089415     0.064133215598    12.000000000000
         H            0.963286981074    -2.064197089415    -1.155142784402     1.007825032230
         H            1.130913981074    -0.020772089415     1.791443215598     1.007825032230
         H            2.847970981074     0.409574910585     1.534743215598     1.007825032230
         H           -2.309585018926     1.902700910585     0.559884215598     1.007825032230
         H           -1.195087018926    -2.820910089415    -0.442191784402     1.007825032230
         H           -0.828732018926     3.429565910585    -0.176574784402     1.007825032230
         H           -0.537927018926     2.673615910585    -1.746032784402     1.007825032230
         H            0.799036981074     3.491219910585    -0.883012784402     1.007825032230
         H           -4.085964018926     0.189373910585     0.610743215598     1.007825032230
         H           -3.535000018926    -2.184996089415     0.069714215598     1.007825032230

  Basis Set: AUG-CC-PVTZ
    Blend: AUG-CC-PVTZ
  Basis Set: (AUG-CC-PVTZ AUX)
    Blend: AUG-CC-PVTZ-JKFIT
	 Reference Energy          =    -568.4630593744061571 [Eh]
	 Singles Energy            =      -0.0000000000000000 [Eh]
	 Same-Spin Energy          =      -0.6145354897808959 [Eh]
	 Opposite-Spin Energy      =      -1.8872975868621289 [Eh]
	 Correlation Energy        =      -2.5018330766430248 [Eh]
	 Total Energy              =    -570.9648924510491952 [Eh]

	 ================> DF-SCS-MP2 Energies <==================
	-----------------------------------------------------------
	 SCS Same-Spin Scale       =       0.3333333333333333 [-]
	 SCS Opposite-Spin Scale   =       1.2000000000000000 [-]
	 SCS Same-Spin Energy      =      -0.2048451632602986 [Eh]
	 SCS Opposite-Spin Energy  =      -2.2647571042345547 [Eh]
	 SCS Correlation Energy    =      -2.4696022674948535 [Eh]
	 SCS Total Energy          =    -570.9326616419010634 [Eh]
	-----------------------------------------------------------

  Dipole Moment: [D]
     X:    -5.0780      Y:    -0.2653      Z:     0.2460     Total:     5.0909

*** Psi4 exiting successfully. Buy a developer a beer!
