                               Psi4 1.4a3.dev225

  ==> Input File <==

--------------------------------------------------------------------------
#psi4
#
memory 32 gb

molecule  {
0 1
  O        3.1477550    -1.4485350    -0.2143050
  N        0.9062980    -1.2504610    -0.5893500
  N        1.5545360     1.4658350     0.3351760
  C       -0.6961080     0.5074870     0.0337420
  C       -0.3911060    -0.8453020    -0.2363150
  C        0.3205930     1.5511304    -0.0822636
  C        1.9201190     0.2388570     1.0398190
  C       -2.0282860     0.8425430     0.3372020
  C       -1.4126000    -1.8085370    -0.2310830
  C        2.0871850    -0.8915250     0.0446260
  C       -0.0584500     2.8482670    -0.7690020
  C       -3.0319510    -0.1194250     0.3623450
  C       -2.7230760    -1.4503270     0.0616580
  H        0.9974690    -2.0891180    -1.1576180
  H        1.1650960    -0.0456930     1.7889680
  H        2.8821530     0.3846540     1.5322680
  H       -2.2754030     1.8777800     0.5574090
  H       -1.1609050    -2.8458310    -0.4446670
  H       -0.7945500     3.4046450    -0.1790500
  H       -0.5037450     2.6486950    -1.7485080
  H        0.8332190     3.4662990    -0.8854880
  H       -4.0517820     0.1644530     0.6082680
  H       -3.5008180    -2.2099170     0.0672390
units angstrom
no_reorient  #important for SAPT in psi4, default
symmetry c1  #important for SAPT in psi4, default
}

set PROPERTIES_ORIGIN ["COM"]
properties('MP2/aug-cc-pvtz', properties = ['dipole'])
--------------------------------------------------------------------------

    Molecular point group: c1
  Charge       = 0
  Multiplicity = 1
  Basis Set: AUG-CC-PVTZ
    Blend: AUG-CC-PVTZ
  Basis Set: (AUG-CC-PVTZ AUX)
    Blend: AUG-CC-PVTZ-JKFIT

    Orbital Energies [Eh]
    ---------------------

    Doubly Occupied:

       1A    -20.532075     2A    -15.607424     3A    -15.567822
       4A    -11.362368     5A    -11.315445     6A    -11.302644
       7A    -11.267541     8A    -11.266423     9A    -11.265989
      10A    -11.265483    11A    -11.258843    12A    -11.254367
      13A    -11.234388    14A     -1.387369    15A     -1.276017
      16A     -1.229947    17A     -1.165549    18A     -1.067255
      19A     -1.035558    20A     -1.010029    21A     -0.949223
      22A     -0.888402    23A     -0.858869    24A     -0.796205
      25A     -0.769221    26A     -0.729667    27A     -0.690952
      28A     -0.677593    29A     -0.658151    30A     -0.648697
      31A     -0.626600    32A     -0.616792    33A     -0.604338
      34A     -0.585547    35A     -0.567129    36A     -0.559144
      37A     -0.543577    38A     -0.538404    39A     -0.528046
      40A     -0.514723    41A     -0.456752    42A     -0.444801
      43A     -0.418522    44A     -0.405175    45A     -0.354331
      46A     -0.332785

  @DF-RHF Final Energy:  -568.46375374925549

   => Energetics <=

    Nuclear Repulsion Energy =            760.8970750540856898
    One-Electron Energy =               -2281.8492889223257407
    Two-Electron Energy =                 952.4884601189845625
    Total Energy =                       -568.4637537492554884
  Basis Set: (AUG-CC-PVTZ AUX)
    Blend: AUG-CC-PVTZ-RI
    Molecular point group: c1

    Geometry (in Angstrom), charge = 0, multiplicity = 1:

       Center              X                  Y                   Z               Mass
    ------------   -----------------  -----------------  -----------------  -----------------
         O            3.112232488651    -1.420489782507    -0.213625083307    15.994914619570
         N            0.870775488651    -1.222415782507    -0.588670083307    14.003074004430
         N            1.519013488651     1.493880217493     0.335855916693    14.003074004430
         C           -0.731630511349     0.535532217493     0.034421916693    12.000000000000
         C           -0.426628511349    -0.817256782507    -0.235635083307    12.000000000000
         C            0.285070488651     1.579175617493    -0.081583683307    12.000000000000
         C            1.884596488651     0.266902217493     1.040498916693    12.000000000000
         C           -2.063808511349     0.870588217493     0.337881916693    12.000000000000
         C           -1.448122511349    -1.780491782507    -0.230403083307    12.000000000000
         C            2.051662488651    -0.863479782507     0.045305916693    12.000000000000
         C           -0.093972511349     2.876312217493    -0.768322083307    12.000000000000
         C           -3.067473511349    -0.091379782507     0.363024916693    12.000000000000
         C           -2.758598511349    -1.422281782507     0.062337916693    12.000000000000
         H            0.961946488651    -2.061072782507    -1.156938083307     1.007825032230
         H            1.129573488651    -0.017647782507     1.789647916693     1.007825032230
         H            2.846630488651     0.412699217493     1.532947916693     1.007825032230
         H           -2.310925511349     1.905825217493     0.558088916693     1.007825032230
         H           -1.196427511349    -2.817785782507    -0.443987083307     1.007825032230
         H           -0.830072511349     3.432690217493    -0.178370083307     1.007825032230
         H           -0.539267511349     2.676740217493    -1.747828083307     1.007825032230
         H            0.797696488651     3.494344217493    -0.884808083307     1.007825032230
         H           -4.087304511349     0.192498217493     0.608947916693     1.007825032230
         H           -3.536340511349    -2.181871782507     0.067918916693     1.007825032230

  Basis Set: AUG-CC-PVTZ
    Blend: AUG-CC-PVTZ
  Basis Set: (AUG-CC-PVTZ AUX)
    Blend: AUG-CC-PVTZ-JKFIT
	 Reference Energy          =    -568.4637537492554884 [Eh]
	 Singles Energy            =      -0.0000000000000000 [Eh]
	 Same-Spin Energy          =      -0.6149237118323396 [Eh]
	 Opposite-Spin Energy      =      -1.8880078928750386 [Eh]
	 Correlation Energy        =      -2.5029316047073782 [Eh]
	 Total Energy              =    -570.9666853539628164 [Eh]

	 ================> DF-SCS-MP2 Energies <==================
	-----------------------------------------------------------
	 SCS Same-Spin Scale       =       0.3333333333333333 [-]
	 SCS Opposite-Spin Scale   =       1.2000000000000000 [-]
	 SCS Same-Spin Energy      =      -0.2049745706107799 [Eh]
	 SCS Opposite-Spin Energy  =      -2.2656094714500461 [Eh]
	 SCS Correlation Energy    =      -2.4705840420608260 [Eh]
	 SCS Total Energy          =    -570.9343377913163522 [Eh]
	-----------------------------------------------------------

  Dipole Moment: [D]
     X:    -5.1524      Y:    -0.2966      Z:     0.2334     Total:     5.1662

*** Psi4 exiting successfully. Buy a developer a beer!
