                               Psi4 1.3.2 release

  ==> Input File <==

--------------------------------------------------------------------------
#psi4
#
memory 32 gb

molecule  {
0 1
  O        3.1477550    -1.4485350    -0.2143050
  N        0.9062980    -1.2504610    -0.5893500
  N        1.5545360     1.4658350     0.3351760
  C       -0.7198297     0.5013590     0.0365217
  C       -0.3911060    -0.8453020    -0.2363150
  C        0.3345050     1.5654110    -0.0838510
  C        1.9201190     0.2388570     1.0398190
  C       -2.0282860     0.8425430     0.3372020
  C       -1.4126000    -1.8085370    -0.2310830
  C        2.0871850    -0.8915250     0.0446260
  C       -0.0584500     2.8482670    -0.7690020
  C       -3.0319510    -0.1194250     0.3623450
  C       -2.7230760    -1.4503270     0.0616580
  H        0.9974690    -2.0891180    -1.1576180
  H        1.1650960    -0.0456930     1.7889680
  H        2.8821530     0.3846540     1.5322680
  H       -2.2754030     1.8777800     0.5574090
  H       -1.1609050    -2.8458310    -0.4446670
  H       -0.7945500     3.4046450    -0.1790500
  H       -0.5037450     2.6486950    -1.7485080
  H        0.8332190     3.4662990    -0.8854880
  H       -4.0517820     0.1644530     0.6082680
  H       -3.5008180    -2.2099170     0.0672390
units angstrom
no_reorient  #important for SAPT in psi4, default
symmetry c1  #important for SAPT in psi4, default
}

set PROPERTIES_ORIGIN ["COM"]
properties('MP2/aug-cc-pvtz', properties = ['dipole'])
--------------------------------------------------------------------------

    Molecular point group: c1
  Charge       = 0
  Multiplicity = 1
  Basis Set: AUG-CC-PVTZ
    Blend: AUG-CC-PVTZ
  Basis Set: (AUG-CC-PVTZ AUX)
    Blend: AUG-CC-PVTZ-JKFIT

    Orbital Energies [Eh]
    ---------------------

    Doubly Occupied:

       1A    -20.532535     2A    -15.607532     3A    -15.567388
       4A    -11.362770     5A    -11.313793     6A    -11.303763
       7A    -11.267251     8A    -11.265839     9A    -11.264514
      10A    -11.263556    11A    -11.257866    12A    -11.253467
      13A    -11.234083    14A     -1.387693    15A     -1.275628
      16A     -1.232397    17A     -1.166578    18A     -1.064803
      19A     -1.036253    20A     -1.011444    21A     -0.951686
      22A     -0.883261    23A     -0.859059    24A     -0.795097
      25A     -0.767863    26A     -0.728163    27A     -0.691657
      28A     -0.677802    29A     -0.657060    30A     -0.647703
      31A     -0.628343    32A     -0.617864    33A     -0.604778
      34A     -0.586278    35A     -0.567208    36A     -0.559020
      37A     -0.543123    38A     -0.539310    39A     -0.528593
      40A     -0.514354    41A     -0.458037    42A     -0.444856
      43A     -0.416361    44A     -0.405516    45A     -0.357292
      46A     -0.331558

  @DF-RHF Final Energy:  -568.46545297786042

   => Energetics <=

    Nuclear Repulsion Energy =            760.6666698415056089
    One-Electron Energy =               -2281.4022567125512069
    Two-Electron Energy =                 952.2701338931851751
    Total Energy =                       -568.4654529778604228
  Basis Set: (AUG-CC-PVTZ AUX)
    Blend: AUG-CC-PVTZ-RI
    Molecular point group: c1

    Geometry (in Angstrom), charge = 0, multiplicity = 1:

       Center              X                  Y                   Z               Mass
    ------------   -----------------  -----------------  -----------------  -----------------
         O            3.112908711449    -1.421051774615    -0.213707273429    15.994914619570
         N            0.871451711449    -1.222977774615    -0.588752273429    14.003074004430
         N            1.519689711449     1.493318225385     0.335773726571    14.003074004430
         C           -0.754675988551     0.528842225385     0.037119426571    12.000000000000
         C           -0.425952288551    -0.817818774615    -0.235717273429    12.000000000000
         C            0.299658711449     1.592894225385    -0.083253273429    12.000000000000
         C            1.885272711449     0.266340225385     1.040416726571    12.000000000000
         C           -2.063132288551     0.870026225385     0.337799726571    12.000000000000
         C           -1.447446288551    -1.781053774615    -0.230485273429    12.000000000000
         C            2.052338711449    -0.864041774615     0.045223726571    12.000000000000
         C           -0.093296288551     2.875750225385    -0.768404273429    12.000000000000
         C           -3.066797288551    -0.091941774615     0.362942726571    12.000000000000
         C           -2.757922288551    -1.422843774615     0.062255726571    12.000000000000
         H            0.962622711449    -2.061634774615    -1.157020273429     1.007825032230
         H            1.130249711449    -0.018209774615     1.789565726571     1.007825032230
         H            2.847306711449     0.412137225385     1.532865726571     1.007825032230
         H           -2.310249288551     1.905263225385     0.558006726571     1.007825032230
         H           -1.195751288551    -2.818347774615    -0.444069273429     1.007825032230
         H           -0.829396288551     3.432128225385    -0.178452273429     1.007825032230
         H           -0.538591288551     2.676178225385    -1.747910273429     1.007825032230
         H            0.798372711449     3.493782225385    -0.884890273429     1.007825032230
         H           -4.086628288551     0.191936225385     0.608865726571     1.007825032230
         H           -3.535664288551    -2.182433774615     0.067836726571     1.007825032230

  Basis Set: AUG-CC-PVTZ
    Blend: AUG-CC-PVTZ
  Basis Set: (AUG-CC-PVTZ AUX)
    Blend: AUG-CC-PVTZ-JKFIT
	 Reference Energy          =    -568.4654529778604228 [Eh]
	 Singles Energy            =      -0.0000000000000000 [Eh]
	 Same-Spin Energy          =      -0.6142279222300451 [Eh]
	 Opposite-Spin Energy      =      -1.8868465286728897 [Eh]
	 Correlation Energy        =      -2.5010744509029346 [Eh]
	 Total Energy              =    -570.9665274287633565 [Eh]

	 ================> DF-SCS-MP2 Energies <==================
	-----------------------------------------------------------
	 SCS Same-Spin Scale       =       0.3333333333333333 [-]
	 SCS Opposite-Spin Scale   =       1.2000000000000000 [-]
	 SCS Same-Spin Energy      =      -0.2047426407433484 [Eh]
	 SCS Opposite-Spin Energy  =      -2.2642158344074677 [Eh]
	 SCS Correlation Energy    =      -2.4689584751508162 [Eh]
	 SCS Total Energy          =    -570.9344114530111938 [Eh]
	-----------------------------------------------------------

  Dipole Moment: [D]
     X:    -5.0881      Y:    -0.2241      Z:     0.2344     Total:     5.0984

*** Psi4 exiting successfully. Buy a developer a beer!
