                               Psi4 1.3.2 release

  ==> Input File <==

--------------------------------------------------------------------------
#psi4
#
memory 32 gb

molecule  {
0 1
  O        3.1477550    -1.4485350    -0.2143050
  N        0.9062980    -1.2504610    -0.5893500
  N        1.5545360     1.4658350     0.3351760
  C       -0.6961080     0.5074870     0.0337420
  C       -0.3911060    -0.8453020    -0.2363150
  C        0.4736249     1.7082175    -0.0997246
  C        1.9201190     0.2388570     1.0398190
  C       -2.0282860     0.8425430     0.3372020
  C       -1.4126000    -1.8085370    -0.2310830
  C        2.0871850    -0.8915250     0.0446260
  C       -0.0584500     2.8482670    -0.7690020
  C       -3.0319510    -0.1194250     0.3623450
  C       -2.7230760    -1.4503270     0.0616580
  H        0.9974690    -2.0891180    -1.1576180
  H        1.1650960    -0.0456930     1.7889680
  H        2.8821530     0.3846540     1.5322680
  H       -2.2754030     1.8777800     0.5574090
  H       -1.1609050    -2.8458310    -0.4446670
  H       -0.7945500     3.4046450    -0.1790500
  H       -0.5037450     2.6486950    -1.7485080
  H        0.8332190     3.4662990    -0.8854880
  H       -4.0517820     0.1644530     0.6082680
  H       -3.5008180    -2.2099170     0.0672390
units angstrom
no_reorient  #important for SAPT in psi4, default
symmetry c1  #important for SAPT in psi4, default
}

set PROPERTIES_ORIGIN ["COM"]
properties('MP2/aug-cc-pvtz', properties = ['dipole'])
--------------------------------------------------------------------------

    Molecular point group: c1
  Charge       = 0
  Multiplicity = 1
  Basis Set: AUG-CC-PVTZ
    Blend: AUG-CC-PVTZ
  Basis Set: (AUG-CC-PVTZ AUX)
    Blend: AUG-CC-PVTZ-JKFIT

    Orbital Energies [Eh]
    ---------------------

    Doubly Occupied:

       1A    -20.534194     2A    -15.603479     3A    -15.561038
       4A    -11.365107     5A    -11.303214     6A    -11.302820
       7A    -11.279116     8A    -11.259954     9A    -11.255360
      10A    -11.255275    11A    -11.251442    12A    -11.246581
      13A    -11.236262    14A     -1.388966    15A     -1.287965
      16A     -1.253946    17A     -1.153979    18A     -1.062599
      19A     -1.030977    20A     -1.012829    21A     -0.978605
      22A     -0.864942    23A     -0.849050    24A     -0.791202
      25A     -0.754644    26A     -0.723354    27A     -0.693480
      28A     -0.680037    29A     -0.654534    30A     -0.642840
      31A     -0.639891    32A     -0.622696    33A     -0.606069
      34A     -0.596952    35A     -0.571620    36A     -0.565612
      37A     -0.552339    38A     -0.527648    39A     -0.522562
      40A     -0.507598    41A     -0.471432    42A     -0.441606
      43A     -0.422954    44A     -0.384215    45A     -0.352147
      46A     -0.324716

  @DF-RHF Final Energy:  -568.43504039896209

   => Energetics <=

    Nuclear Repulsion Energy =            759.3665154505664532
    One-Electron Energy =               -2278.8274158873705346
    Two-Electron Energy =                 951.0258600378418805
    Total Energy =                       -568.4350403989620872
  Basis Set: (AUG-CC-PVTZ AUX)
    Blend: AUG-CC-PVTZ-RI
    Molecular point group: c1

    Geometry (in Angstrom), charge = 0, multiplicity = 1:

       Center              X                  Y                   Z               Mass
    ------------   -----------------  -----------------  -----------------  -----------------
         O            3.101683373027    -1.431318439675    -0.212421425064    15.994914619570
         N            0.860226373027    -1.233244439675    -0.587466425064    14.003074004430
         N            1.508464373027     1.483051560325     0.337059574936    14.003074004430
         C           -0.742179626973     0.524703560325     0.035625574936    12.000000000000
         C           -0.437177626973    -0.828085439675    -0.234431425064    12.000000000000
         C            0.427553273027     1.725434060325    -0.097841025064    12.000000000000
         C            1.874047373027     0.256073560325     1.041702574936    12.000000000000
         C           -2.074357626973     0.859759560325     0.339085574936    12.000000000000
         C           -1.458671626973    -1.791320439675    -0.229199425064    12.000000000000
         C            2.041113373027    -0.874308439675     0.046509574936    12.000000000000
         C           -0.104521626973     2.865483560325    -0.767118425064    12.000000000000
         C           -3.078022626973    -0.102208439675     0.364228574936    12.000000000000
         C           -2.769147626973    -1.433110439675     0.063541574936    12.000000000000
         H            0.951397373027    -2.071901439675    -1.155734425064     1.007825032230
         H            1.119024373027    -0.028476439675     1.790851574936     1.007825032230
         H            2.836081373027     0.401870560325     1.534151574936     1.007825032230
         H           -2.321474626973     1.894996560325     0.559292574936     1.007825032230
         H           -1.206976626973    -2.828614439675    -0.442783425064     1.007825032230
         H           -0.840621626973     3.421861560325    -0.177166425064     1.007825032230
         H           -0.549816626973     2.665911560325    -1.746624425064     1.007825032230
         H            0.787147373027     3.483515560325    -0.883604425064     1.007825032230
         H           -4.097853626973     0.181669560325     0.610151574936     1.007825032230
         H           -3.546889626973    -2.192700439675     0.069122574936     1.007825032230

  Basis Set: AUG-CC-PVTZ
    Blend: AUG-CC-PVTZ
  Basis Set: (AUG-CC-PVTZ AUX)
    Blend: AUG-CC-PVTZ-JKFIT
	 Reference Energy          =    -568.4350403989620872 [Eh]
	 Singles Energy            =      -0.0000000000000000 [Eh]
	 Same-Spin Energy          =      -0.6129912515466012 [Eh]
	 Opposite-Spin Energy      =      -1.8838546416045916 [Eh]
	 Correlation Energy        =      -2.4968458931511925 [Eh]
	 Total Energy              =    -570.9318862921132904 [Eh]

	 ================> DF-SCS-MP2 Energies <==================
	-----------------------------------------------------------
	 SCS Same-Spin Scale       =       0.3333333333333333 [-]
	 SCS Opposite-Spin Scale   =       1.2000000000000000 [-]
	 SCS Same-Spin Energy      =      -0.2043304171822004 [Eh]
	 SCS Opposite-Spin Energy  =      -2.2606255699255100 [Eh]
	 SCS Correlation Energy    =      -2.4649559871077105 [Eh]
	 SCS Total Energy          =    -570.8999963860698017 [Eh]
	-----------------------------------------------------------

  Dipole Moment: [D]
     X:    -4.5061      Y:     0.4089      Z:     0.1767     Total:     4.5281

*** Psi4 exiting successfully. Buy a developer a beer!
