                               Psi4 1.3.2 release

  ==> Input File <==

--------------------------------------------------------------------------
#psi4
#
memory 32 gb

molecule  {
0 1
  O        3.1477550    -1.4485350    -0.2143050
  N        0.9062980    -1.2504610    -0.5893500
  N        1.5545360     1.4658350     0.3351760
  C       -0.6961080     0.5074870     0.0337420
  C       -0.2987177    -0.8741534    -0.2614547
  C        0.3345050     1.5654110    -0.0838510
  C        1.9201190     0.2388570     1.0398190
  C       -2.0282860     0.8425430     0.3372020
  C       -1.4126000    -1.8085370    -0.2310830
  C        2.0871850    -0.8915250     0.0446260
  C       -0.0584500     2.8482670    -0.7690020
  C       -3.0319510    -0.1194250     0.3623450
  C       -2.7230760    -1.4503270     0.0616580
  H        0.9974690    -2.0891180    -1.1576180
  H        1.1650960    -0.0456930     1.7889680
  H        2.8821530     0.3846540     1.5322680
  H       -2.2754030     1.8777800     0.5574090
  H       -1.1609050    -2.8458310    -0.4446670
  H       -0.7945500     3.4046450    -0.1790500
  H       -0.5037450     2.6486950    -1.7485080
  H        0.8332190     3.4662990    -0.8854880
  H       -4.0517820     0.1644530     0.6082680
  H       -3.5008180    -2.2099170     0.0672390
units angstrom
no_reorient  #important for SAPT in psi4, default
symmetry c1  #important for SAPT in psi4, default
}

set PROPERTIES_ORIGIN ["COM"]
properties('MP2/aug-cc-pvtz', properties = ['dipole'])
--------------------------------------------------------------------------

    Molecular point group: c1
  Charge       = 0
  Multiplicity = 1
  Basis Set: AUG-CC-PVTZ
    Blend: AUG-CC-PVTZ
  Basis Set: (AUG-CC-PVTZ AUX)
    Blend: AUG-CC-PVTZ-JKFIT

    Orbital Energies [Eh]
    ---------------------

    Doubly Occupied:

       1A    -20.541120     2A    -15.616649     3A    -15.564849
       4A    -11.370397     5A    -11.320390     6A    -11.299902
       7A    -11.269370     8A    -11.266414     9A    -11.264088
      10A    -11.263295    11A    -11.258489    12A    -11.248898
      13A    -11.232355    14A     -1.398871    15A     -1.303752
      16A     -1.238679    17A     -1.155240    18A     -1.061659
      19A     -1.030028    20A     -1.005133    21A     -0.954135
      22A     -0.891479    23A     -0.862316    24A     -0.801195
      25A     -0.764311    26A     -0.743185    27A     -0.695420
      28A     -0.682073    29A     -0.659575    30A     -0.641890
      31A     -0.622647    32A     -0.619123    33A     -0.611393
      34A     -0.586366    35A     -0.573714    36A     -0.557614
      37A     -0.542276    38A     -0.539083    39A     -0.523552
      40A     -0.504485    41A     -0.463525    42A     -0.454972
      43A     -0.414598    44A     -0.406757    45A     -0.352161
      46A     -0.317873

  @DF-RHF Final Energy:  -568.45004935600809

   => Energetics <=

    Nuclear Repulsion Energy =            760.8511514238286964
    One-Electron Energy =               -2281.6118004988898065
    Two-Electron Energy =                 952.3105997190530161
    Total Energy =                       -568.4500493560080940
  Basis Set: (AUG-CC-PVTZ AUX)
    Blend: AUG-CC-PVTZ-RI
    Molecular point group: c1

    Geometry (in Angstrom), charge = 0, multiplicity = 1:

       Center              X                  Y                   Z               Mass
    ------------   -----------------  -----------------  -----------------  -----------------
         O            3.104904773609    -1.419485357587    -0.211782674841    15.994914619570
         N            0.863447773609    -1.221411357587    -0.586827674841    14.003074004430
         N            1.511685773609     1.494884642413     0.337698325159    14.003074004430
         C           -0.738958226391     0.536536642413     0.036264325159    12.000000000000
         C           -0.341567926391    -0.845103757587    -0.258932374841    12.000000000000
         C            0.291654773609     1.594460642413    -0.081328674841    12.000000000000
         C            1.877268773609     0.267906642413     1.042341325159    12.000000000000
         C           -2.071136226391     0.871592642413     0.339724325159    12.000000000000
         C           -1.455450226391    -1.779487357587    -0.228560674841    12.000000000000
         C            2.044334773609    -0.862475357587     0.047148325159    12.000000000000
         C           -0.101300226391     2.877316642413    -0.766479674841    12.000000000000
         C           -3.074801226391    -0.090375357587     0.364867325159    12.000000000000
         C           -2.765926226391    -1.421277357587     0.064180325159    12.000000000000
         H            0.954618773609    -2.060068357587    -1.155095674841     1.007825032230
         H            1.122245773609    -0.016643357587     1.791490325159     1.007825032230
         H            2.839302773609     0.413703642413     1.534790325159     1.007825032230
         H           -2.318253226391     1.906829642413     0.559931325159     1.007825032230
         H           -1.203755226391    -2.816781357587    -0.442144674841     1.007825032230
         H           -0.837400226391     3.433694642413    -0.176527674841     1.007825032230
         H           -0.546595226391     2.677744642413    -1.745985674841     1.007825032230
         H            0.790368773609     3.495348642413    -0.882965674841     1.007825032230
         H           -4.094632226391     0.193502642413     0.610790325159     1.007825032230
         H           -3.543668226391    -2.180867357587     0.069761325159     1.007825032230

  Basis Set: AUG-CC-PVTZ
    Blend: AUG-CC-PVTZ
  Basis Set: (AUG-CC-PVTZ AUX)
    Blend: AUG-CC-PVTZ-JKFIT
	 Reference Energy          =    -568.4500493560080940 [Eh]
	 Singles Energy            =      -0.0000000000000000 [Eh]
	 Same-Spin Energy          =      -0.6159737300444095 [Eh]
	 Opposite-Spin Energy      =      -1.8887745630910877 [Eh]
	 Correlation Energy        =      -2.5047482931354974 [Eh]
	 Total Energy              =    -570.9547976491436430 [Eh]

	 ================> DF-SCS-MP2 Energies <==================
	-----------------------------------------------------------
	 SCS Same-Spin Scale       =       0.3333333333333333 [-]
	 SCS Opposite-Spin Scale   =       1.2000000000000000 [-]
	 SCS Same-Spin Energy      =      -0.2053245766814698 [Eh]
	 SCS Opposite-Spin Energy  =      -2.2665294757093051 [Eh]
	 SCS Correlation Energy    =      -2.4718540523907748 [Eh]
	 SCS Total Energy          =    -570.9219034083988618 [Eh]
	-----------------------------------------------------------

  Dipole Moment: [D]
     X:    -4.5852      Y:    -0.3986      Z:     0.1305     Total:     4.6044

*** Psi4 exiting successfully. Buy a developer a beer!
