                               Psi4 1.4a3.dev225

  ==> Input File <==

--------------------------------------------------------------------------
#psi4
#
memory 32 gb

molecule  {
0 1
  O        3.1477550    -1.4485350    -0.2143050
  N        0.9062980    -1.2504610    -0.5893500
  N        1.5545360     1.4658350     0.3351760
  C       -0.6961080     0.5074870     0.0337420
  C       -0.3911060    -0.8453020    -0.2363150
  C        0.3533643     1.5638717    -0.0773736
  C        1.9201190     0.2388570     1.0398190
  C       -2.0282860     0.8425430     0.3372020
  C       -1.4126000    -1.8085370    -0.2310830
  C        2.0871850    -0.8915250     0.0446260
  C       -0.0584500     2.8482670    -0.7690020
  C       -3.0319510    -0.1194250     0.3623450
  C       -2.7230760    -1.4503270     0.0616580
  H        0.9974690    -2.0891180    -1.1576180
  H        1.1650960    -0.0456930     1.7889680
  H        2.8821530     0.3846540     1.5322680
  H       -2.2754030     1.8777800     0.5574090
  H       -1.1609050    -2.8458310    -0.4446670
  H       -0.7945500     3.4046450    -0.1790500
  H       -0.5037450     2.6486950    -1.7485080
  H        0.8332190     3.4662990    -0.8854880
  H       -4.0517820     0.1644530     0.6082680
  H       -3.5008180    -2.2099170     0.0672390
units angstrom
no_reorient  #important for SAPT in psi4, default
symmetry c1  #important for SAPT in psi4, default
}

set PROPERTIES_ORIGIN ["COM"]
properties('MP2/aug-cc-pvtz', properties = ['dipole'])
--------------------------------------------------------------------------

    Molecular point group: c1
  Charge       = 0
  Multiplicity = 1
  Basis Set: AUG-CC-PVTZ
    Blend: AUG-CC-PVTZ
  Basis Set: (AUG-CC-PVTZ AUX)
    Blend: AUG-CC-PVTZ-JKFIT

    Orbital Energies [Eh]
    ---------------------

    Doubly Occupied:

       1A    -20.532685     2A    -15.607035     3A    -15.566011
       4A    -11.363070     5A    -11.313532     6A    -11.300913
       7A    -11.268053     8A    -11.266606     9A    -11.265444
      10A    -11.264829    11A    -11.257833    12A    -11.253436
      13A    -11.233790    14A     -1.387913    15A     -1.277525
      16A     -1.238433    17A     -1.163973    18A     -1.063595
      19A     -1.035086    20A     -1.010574    21A     -0.953462
      22A     -0.884188    23A     -0.857616    24A     -0.795428
      25A     -0.767210    26A     -0.728279    27A     -0.692487
      28A     -0.678456    29A     -0.657304    30A     -0.647881
      31A     -0.625905    32A     -0.619063    33A     -0.605375
      34A     -0.585502    35A     -0.567086    36A     -0.557387
      37A     -0.545039    38A     -0.538469    39A     -0.527921
      40A     -0.514214    41A     -0.459973    42A     -0.444638
      43A     -0.417812    44A     -0.406774    45A     -0.355820
      46A     -0.331997

  @DF-RHF Final Energy:  -568.46685492799372

   => Energetics <=

    Nuclear Repulsion Energy =            760.8271777630970973
    One-Electron Energy =               -2281.7168267462652693
    Two-Electron Energy =                 952.4227940551744496
    Total Energy =                       -568.4668549279937224
  Basis Set: (AUG-CC-PVTZ AUX)
    Blend: AUG-CC-PVTZ-RI
    Molecular point group: c1

    Geometry (in Angstrom), charge = 0, multiplicity = 1:

       Center              X                  Y                   Z               Mass
    ------------   -----------------  -----------------  -----------------  -----------------
         O            3.109973428724    -1.421368092499    -0.213962171035    15.994914619570
         N            0.868516428724    -1.223294092499    -0.589007171035    14.003074004430
         N            1.516754428724     1.493001907501     0.335518828965    14.003074004430
         C           -0.733889571276     0.534653907501     0.034084828965    12.000000000000
         C           -0.428887571276    -0.818135092499    -0.235972171035    12.000000000000
         C            0.315582728724     1.591038607501    -0.077030771035    12.000000000000
         C            1.882337428724     0.266023907501     1.040161828965    12.000000000000
         C           -2.066067571276     0.869709907501     0.337544828965    12.000000000000
         C           -1.450381571276    -1.781370092499    -0.230740171035    12.000000000000
         C            2.049403428724    -0.864358092499     0.044968828965    12.000000000000
         C           -0.096231571276     2.875433907501    -0.768659171035    12.000000000000
         C           -3.069732571276    -0.092258092499     0.362687828965    12.000000000000
         C           -2.760857571276    -1.423160092499     0.062000828965    12.000000000000
         H            0.959687428724    -2.061951092499    -1.157275171035     1.007825032230
         H            1.127314428724    -0.018526092499     1.789310828965     1.007825032230
         H            2.844371428724     0.411820907501     1.532610828965     1.007825032230
         H           -2.313184571276     1.904946907501     0.557751828965     1.007825032230
         H           -1.198686571276    -2.818664092499    -0.444324171035     1.007825032230
         H           -0.832331571276     3.431811907501    -0.178707171035     1.007825032230
         H           -0.541526571276     2.675861907501    -1.748165171035     1.007825032230
         H            0.795437428724     3.493465907501    -0.885145171035     1.007825032230
         H           -4.089563571276     0.191619907501     0.608610828965     1.007825032230
         H           -3.538599571276    -2.182750092499     0.067581828965     1.007825032230

  Basis Set: AUG-CC-PVTZ
    Blend: AUG-CC-PVTZ
  Basis Set: (AUG-CC-PVTZ AUX)
    Blend: AUG-CC-PVTZ-JKFIT
	 Reference Energy          =    -568.4668549279937224 [Eh]
	 Singles Energy            =      -0.0000000000000000 [Eh]
	 Same-Spin Energy          =      -0.6138769326621738 [Eh]
	 Opposite-Spin Energy      =      -1.8861404271510596 [Eh]
	 Correlation Energy        =      -2.5000173598132331 [Eh]
	 Total Energy              =    -570.9668722878069502 [Eh]

	 ================> DF-SCS-MP2 Energies <==================
	-----------------------------------------------------------
	 SCS Same-Spin Scale       =       0.3333333333333333 [-]
	 SCS Opposite-Spin Scale   =       1.2000000000000000 [-]
	 SCS Same-Spin Energy      =      -0.2046256442207246 [Eh]
	 SCS Opposite-Spin Energy  =      -2.2633685125812715 [Eh]
	 SCS Correlation Energy    =      -2.4679941568019959 [Eh]
	 SCS Total Energy          =    -570.9348490847957009 [Eh]
	-----------------------------------------------------------

  Dipole Moment: [D]
     X:    -5.0676      Y:    -0.2394      Z:     0.2475     Total:     5.0793

*** Psi4 exiting successfully. Buy a developer a beer!
