                               Psi4 1.3.2 release

  ==> Input File <==

--------------------------------------------------------------------------
#psi4
#
memory 32 gb

molecule  {
0 1
  O        3.1477550    -1.4485350    -0.2143050
  N        0.9062980    -1.2504610    -0.5893500
  N        1.5587158     1.4865929     0.3273306
  C       -0.6961080     0.5074870     0.0337420
  C       -0.3911060    -0.8453020    -0.2363150
  C        0.3345050     1.5654110    -0.0838510
  C        1.9201190     0.2388570     1.0398190
  C       -2.0282860     0.8425430     0.3372020
  C       -1.4126000    -1.8085370    -0.2310830
  C        2.0871850    -0.8915250     0.0446260
  C       -0.0584500     2.8482670    -0.7690020
  C       -3.0319510    -0.1194250     0.3623450
  C       -2.7230760    -1.4503270     0.0616580
  H        0.9974690    -2.0891180    -1.1576180
  H        1.1650960    -0.0456930     1.7889680
  H        2.8821530     0.3846540     1.5322680
  H       -2.2754030     1.8777800     0.5574090
  H       -1.1609050    -2.8458310    -0.4446670
  H       -0.7945500     3.4046450    -0.1790500
  H       -0.5037450     2.6486950    -1.7485080
  H        0.8332190     3.4662990    -0.8854880
  H       -4.0517820     0.1644530     0.6082680
  H       -3.5008180    -2.2099170     0.0672390
units angstrom
no_reorient  #important for SAPT in psi4, default
symmetry c1  #important for SAPT in psi4, default
}

set PROPERTIES_ORIGIN ["COM"]
properties('MP2/aug-cc-pvtz', properties = ['dipole'])
--------------------------------------------------------------------------

    Molecular point group: c1
  Charge       = 0
  Multiplicity = 1
  Basis Set: AUG-CC-PVTZ
    Blend: AUG-CC-PVTZ
  Basis Set: (AUG-CC-PVTZ AUX)
    Blend: AUG-CC-PVTZ-JKFIT

    Orbital Energies [Eh]
    ---------------------

    Doubly Occupied:

       1A    -20.532396     2A    -15.607240     3A    -15.569108
       4A    -11.362843     5A    -11.314794     6A    -11.302110
       7A    -11.267817     8A    -11.267414     9A    -11.266268
      10A    -11.265814    11A    -11.258528    12A    -11.254061
      13A    -11.233342    14A     -1.387555    15A     -1.275461
      16A     -1.231159    17A     -1.164689    18A     -1.064363
      19A     -1.035450    20A     -1.010907    21A     -0.951662
      22A     -0.885575    23A     -0.858389    24A     -0.795352
      25A     -0.767267    26A     -0.728999    27A     -0.690332
      28A     -0.677177    29A     -0.657584    30A     -0.647808
      31A     -0.626410    32A     -0.617009    33A     -0.604136
      34A     -0.586158    35A     -0.567064    36A     -0.558713
      37A     -0.542796    38A     -0.537904    39A     -0.527642
      40A     -0.515131    41A     -0.457298    42A     -0.444707
      43A     -0.419549    44A     -0.406636    45A     -0.355566
      46A     -0.332524

  @DF-RHF Final Energy:  -568.46465368637575

   => Energetics <=

    Nuclear Repulsion Energy =            760.2737657140907004
    One-Electron Energy =               -2280.6154214289372248
    Two-Electron Energy =                 951.8770020284708835
    Total Energy =                       -568.4646536863757547
  Basis Set: (AUG-CC-PVTZ AUX)
    Blend: AUG-CC-PVTZ-RI
    Molecular point group: c1

    Geometry (in Angstrom), charge = 0, multiplicity = 1:

       Center              X                  Y                   Z               Mass
    ------------   -----------------  -----------------  -----------------  -----------------
         O            3.110937251182    -1.423143984215    -0.212884567306    15.994914619570
         N            0.869480251182    -1.225069984215    -0.587929567306    14.003074004430
         N            1.521898051182     1.511983915785     0.328751032694    14.003074004430
         C           -0.732925748818     0.532878015785     0.035162432694    12.000000000000
         C           -0.427923748818    -0.819910984215    -0.234894567306    12.000000000000
         C            0.297687251182     1.590802015785    -0.082430567306    12.000000000000
         C            1.883301251182     0.264248015785     1.041239432694    12.000000000000
         C           -2.065103748818     0.867934015785     0.338622432694    12.000000000000
         C           -1.449417748818    -1.783145984215    -0.229662567306    12.000000000000
         C            2.050367251182    -0.866133984215     0.046046432694    12.000000000000
         C           -0.095267748818     2.873658015785    -0.767581567306    12.000000000000
         C           -3.068768748818    -0.094033984215     0.363765432694    12.000000000000
         C           -2.759893748818    -1.424935984215     0.063078432694    12.000000000000
         H            0.960651251182    -2.063726984215    -1.156197567306     1.007825032230
         H            1.128278251182    -0.020301984215     1.790388432694     1.007825032230
         H            2.845335251182     0.410045015785     1.533688432694     1.007825032230
         H           -2.312220748818     1.903171015785     0.558829432694     1.007825032230
         H           -1.197722748818    -2.820439984215    -0.443246567306     1.007825032230
         H           -0.831367748818     3.430036015785    -0.177629567306     1.007825032230
         H           -0.540562748818     2.674086015785    -1.747087567306     1.007825032230
         H            0.796401251182     3.491690015785    -0.884067567306     1.007825032230
         H           -4.088599748818     0.189844015785     0.609688432694     1.007825032230
         H           -3.537635748818    -2.184525984215     0.068659432694     1.007825032230

  Basis Set: AUG-CC-PVTZ
    Blend: AUG-CC-PVTZ
  Basis Set: (AUG-CC-PVTZ AUX)
    Blend: AUG-CC-PVTZ-JKFIT
	 Reference Energy          =    -568.4646536863757547 [Eh]
	 Singles Energy            =      -0.0000000000000000 [Eh]
	 Same-Spin Energy          =      -0.6144337699455971 [Eh]
	 Opposite-Spin Energy      =      -1.8875494533478523 [Eh]
	 Correlation Energy        =      -2.5019832232934496 [Eh]
	 Total Energy              =    -570.9666369096692051 [Eh]

	 ================> DF-SCS-MP2 Energies <==================
	-----------------------------------------------------------
	 SCS Same-Spin Scale       =       0.3333333333333333 [-]
	 SCS Opposite-Spin Scale   =       1.2000000000000000 [-]
	 SCS Same-Spin Energy      =      -0.2048112566485323 [Eh]
	 SCS Opposite-Spin Energy  =      -2.2650593440174225 [Eh]
	 SCS Correlation Energy    =      -2.4698706006659550 [Eh]
	 SCS Total Energy          =    -570.9345242870416541 [Eh]
	-----------------------------------------------------------

  Dipole Moment: [D]
     X:    -5.1350      Y:    -0.2791      Z:     0.2427     Total:     5.1483

*** Psi4 exiting successfully. Buy a developer a beer!
