                               Psi4 1.3.2 release

  ==> Input File <==

--------------------------------------------------------------------------
#psi4
#
memory 32 gb

molecule  {
0 1
  O        3.1477550    -1.4485350    -0.2143050
  N        0.9062980    -1.2504610    -0.5893500
  N        1.5545360     1.4658350     0.3351760
  C       -0.6961080     0.5074870     0.0337420
  C       -0.2511324    -0.8017662    -0.2558231
  C        0.3345050     1.5654110    -0.0838510
  C        1.9201190     0.2388570     1.0398190
  C       -2.0282860     0.8425430     0.3372020
  C       -1.4126000    -1.8085370    -0.2310830
  C        2.0871850    -0.8915250     0.0446260
  C       -0.0584500     2.8482670    -0.7690020
  C       -3.0319510    -0.1194250     0.3623450
  C       -2.7230760    -1.4503270     0.0616580
  H        0.9974690    -2.0891180    -1.1576180
  H        1.1650960    -0.0456930     1.7889680
  H        2.8821530     0.3846540     1.5322680
  H       -2.2754030     1.8777800     0.5574090
  H       -1.1609050    -2.8458310    -0.4446670
  H       -0.7945500     3.4046450    -0.1790500
  H       -0.5037450     2.6486950    -1.7485080
  H        0.8332190     3.4662990    -0.8854880
  H       -4.0517820     0.1644530     0.6082680
  H       -3.5008180    -2.2099170     0.0672390
units angstrom
no_reorient  #important for SAPT in psi4, default
symmetry c1  #important for SAPT in psi4, default
}

set PROPERTIES_ORIGIN ["COM"]
properties('MP2/aug-cc-pvtz', properties = ['dipole'])
--------------------------------------------------------------------------

    Molecular point group: c1
  Charge       = 0
  Multiplicity = 1
  Basis Set: AUG-CC-PVTZ
    Blend: AUG-CC-PVTZ
  Basis Set: (AUG-CC-PVTZ AUX)
    Blend: AUG-CC-PVTZ-JKFIT

    Orbital Energies [Eh]
    ---------------------

    Doubly Occupied:

       1A    -20.541816     2A    -15.619757     3A    -15.564209
       4A    -11.370118     5A    -11.322057     6A    -11.298599
       7A    -11.269752     8A    -11.264258     9A    -11.263740
      10A    -11.261205    11A    -11.261043    12A    -11.248456
      13A    -11.231755    14A     -1.401221    15A     -1.311299
      16A     -1.239355    17A     -1.153738    18A     -1.063442
      19A     -1.022349    20A     -1.008679    21A     -0.954061
      22A     -0.890993    23A     -0.866277    24A     -0.799007
      25A     -0.771321    26A     -0.741810    27A     -0.697872
      28A     -0.683563    29A     -0.658885    30A     -0.646444
      31A     -0.623266    32A     -0.619168    33A     -0.605655
      34A     -0.586408    35A     -0.574264    36A     -0.556811
      37A     -0.540880    38A     -0.540301    39A     -0.523203
      40A     -0.502703    41A     -0.463591    42A     -0.454516
      43A     -0.413010    44A     -0.406177    45A     -0.353394
      46A     -0.314973

  @DF-RHF Final Energy:  -568.43684378111959

   => Energetics <=

    Nuclear Repulsion Energy =            761.6599304313623406
    One-Electron Energy =               -2283.1827501278653472
    Two-Electron Energy =                 953.0859759153835284
    Total Energy =                       -568.4368437811195918
  Basis Set: (AUG-CC-PVTZ AUX)
    Blend: AUG-CC-PVTZ-RI
    Molecular point group: c1

    Geometry (in Angstrom), charge = 0, multiplicity = 1:

       Center              X                  Y                   Z               Mass
    ------------   -----------------  -----------------  -----------------  -----------------
         O            3.101624523990    -1.424475303751    -0.212170884094    15.994914619570
         N            0.860167523990    -1.226401303751    -0.587215884094    14.003074004430
         N            1.508405523990     1.489894696249     0.337310115906    14.003074004430
         C           -0.742238476010     0.531546696249     0.035876115906    12.000000000000
         C           -0.297262876010    -0.777706503751    -0.253688984094    12.000000000000
         C            0.288374523990     1.589470696249    -0.081716884094    12.000000000000
         C            1.873988523990     0.262916696249     1.041953115906    12.000000000000
         C           -2.074416476010     0.866602696249     0.339336115906    12.000000000000
         C           -1.458730476010    -1.784477303751    -0.228948884094    12.000000000000
         C            2.041054523990    -0.867465303751     0.046760115906    12.000000000000
         C           -0.104580476010     2.872326696249    -0.766867884094    12.000000000000
         C           -3.078081476010    -0.095365303751     0.364479115906    12.000000000000
         C           -2.769206476010    -1.426267303751     0.063792115906    12.000000000000
         H            0.951338523990    -2.065058303751    -1.155483884094     1.007825032230
         H            1.118965523990    -0.021633303751     1.791102115906     1.007825032230
         H            2.836022523990     0.408713696249     1.534402115906     1.007825032230
         H           -2.321533476010     1.901839696249     0.559543115906     1.007825032230
         H           -1.207035476010    -2.821771303751    -0.442532884094     1.007825032230
         H           -0.840680476010     3.428704696249    -0.176915884094     1.007825032230
         H           -0.549875476010     2.672754696249    -1.746373884094     1.007825032230
         H            0.787088523990     3.490358696249    -0.883353884094     1.007825032230
         H           -4.097912476010     0.188512696249     0.610402115906     1.007825032230
         H           -3.546948476010    -2.185857303751     0.069373115906     1.007825032230

  Basis Set: AUG-CC-PVTZ
    Blend: AUG-CC-PVTZ
  Basis Set: (AUG-CC-PVTZ AUX)
    Blend: AUG-CC-PVTZ-JKFIT
	 Reference Energy          =    -568.4368437811195918 [Eh]
	 Singles Energy            =      -0.0000000000000000 [Eh]
	 Same-Spin Energy          =      -0.6160679979240146 [Eh]
	 Opposite-Spin Energy      =      -1.8895886285793386 [Eh]
	 Correlation Energy        =      -2.5056566265033533 [Eh]
	 Total Energy              =    -570.9425004076229015 [Eh]

	 ================> DF-SCS-MP2 Energies <==================
	-----------------------------------------------------------
	 SCS Same-Spin Scale       =       0.3333333333333333 [-]
	 SCS Opposite-Spin Scale   =       1.2000000000000000 [-]
	 SCS Same-Spin Energy      =      -0.2053559993080049 [Eh]
	 SCS Opposite-Spin Energy  =      -2.2675063542952061 [Eh]
	 SCS Correlation Energy    =      -2.4728623536032108 [Eh]
	 SCS Total Energy          =    -570.9097061347227964 [Eh]
	-----------------------------------------------------------

  Dipole Moment: [D]
     X:    -4.4948      Y:    -0.4301      Z:     0.0887     Total:     4.5162

*** Psi4 exiting successfully. Buy a developer a beer!
