                               Psi4 1.3.2 release

  ==> Input File <==

--------------------------------------------------------------------------
#psi4
#
memory 32 gb

molecule  {
0 1
  O        3.1477550    -1.4485350    -0.2143050
  N        0.9062980    -1.2504610    -0.5893500
  N        1.5545360     1.4658350     0.3351760
  C       -0.6961080     0.5074870     0.0337420
  C       -0.4126945    -0.7495495    -0.2171999
  C        0.3345050     1.5654110    -0.0838510
  C        1.9201190     0.2388570     1.0398190
  C       -2.0282860     0.8425430     0.3372020
  C       -1.4126000    -1.8085370    -0.2310830
  C        2.0871850    -0.8915250     0.0446260
  C       -0.0584500     2.8482670    -0.7690020
  C       -3.0319510    -0.1194250     0.3623450
  C       -2.7230760    -1.4503270     0.0616580
  H        0.9974690    -2.0891180    -1.1576180
  H        1.1650960    -0.0456930     1.7889680
  H        2.8821530     0.3846540     1.5322680
  H       -2.2754030     1.8777800     0.5574090
  H       -1.1609050    -2.8458310    -0.4446670
  H       -0.7945500     3.4046450    -0.1790500
  H       -0.5037450     2.6486950    -1.7485080
  H        0.8332190     3.4662990    -0.8854880
  H       -4.0517820     0.1644530     0.6082680
  H       -3.5008180    -2.2099170     0.0672390
units angstrom
no_reorient  #important for SAPT in psi4, default
symmetry c1  #important for SAPT in psi4, default
}

set PROPERTIES_ORIGIN ["COM"]
properties('MP2/aug-cc-pvtz', properties = ['dipole'])
--------------------------------------------------------------------------

    Molecular point group: c1
  Charge       = 0
  Multiplicity = 1
  Basis Set: AUG-CC-PVTZ
    Blend: AUG-CC-PVTZ
  Basis Set: (AUG-CC-PVTZ AUX)
    Blend: AUG-CC-PVTZ-JKFIT

    Orbital Energies [Eh]
    ---------------------

    Doubly Occupied:

       1A    -20.527227     2A    -15.603000     3A    -15.568504
       4A    -11.357380     5A    -11.311648     6A    -11.303415
       7A    -11.267342     8A    -11.266023     9A    -11.265965
      10A    -11.264579    11A    -11.257963    12A    -11.256276
      13A    -11.235289    14A     -1.382200    15A     -1.270049
      16A     -1.226291    17A     -1.169965    18A     -1.072265
      19A     -1.028861    20A     -1.020173    21A     -0.950523
      22A     -0.881175    23A     -0.861076    24A     -0.790431
      25A     -0.772567    26A     -0.719937    27A     -0.691777
      28A     -0.675697    29A     -0.659392    30A     -0.653569
      31A     -0.625676    32A     -0.617553    33A     -0.597840
      34A     -0.586908    35A     -0.563026    36A     -0.559488
      37A     -0.544111    38A     -0.538828    39A     -0.530916
      40A     -0.519875    41A     -0.454673    42A     -0.437340
      43A     -0.417913    44A     -0.403517    45A     -0.360804
      46A     -0.337468

  @DF-RHF Final Energy:  -568.45341914570940

   => Energetics <=

    Nuclear Repulsion Energy =            761.5181662893468229
    One-Electron Energy =               -2283.1301875317899430
    Two-Electron Energy =                 953.1586020967336026
    Total Energy =                       -568.4534191457094039
  Basis Set: (AUG-CC-PVTZ AUX)
    Blend: AUG-CC-PVTZ-RI
    Molecular point group: c1

    Geometry (in Angstrom), charge = 0, multiplicity = 1:

       Center              X                  Y                   Z               Mass
    ------------   -----------------  -----------------  -----------------  -----------------
         O            3.112761661236    -1.428074814741    -0.214833339455    15.994914619570
         N            0.871304661236    -1.230000814741    -0.589878339455    14.003074004430
         N            1.519542661236     1.486295185259     0.334647660545    14.003074004430
         C           -0.731101338764     0.527947185259     0.033213660545    12.000000000000
         C           -0.447687838764    -0.729089314741    -0.217728239455    12.000000000000
         C            0.299511661236     1.585871185259    -0.084379339455    12.000000000000
         C            1.885125661236     0.259317185259     1.039290660545    12.000000000000
         C           -2.063279338764     0.863003185259     0.336673660545    12.000000000000
         C           -1.447593338764    -1.788076814741    -0.231611339455    12.000000000000
         C            2.052191661236    -0.871064814741     0.044097660545    12.000000000000
         C           -0.093443338764     2.868727185259    -0.769530339455    12.000000000000
         C           -3.066944338764    -0.098964814741     0.361816660545    12.000000000000
         C           -2.758069338764    -1.429866814741     0.061129660545    12.000000000000
         H            0.962475661236    -2.068657814741    -1.158146339455     1.007825032230
         H            1.130102661236    -0.025232814741     1.788439660545     1.007825032230
         H            2.847159661236     0.405114185259     1.531739660545     1.007825032230
         H           -2.310396338764     1.898240185259     0.556880660545     1.007825032230
         H           -1.195898338764    -2.825370814741    -0.445195339455     1.007825032230
         H           -0.829543338764     3.425105185259    -0.179578339455     1.007825032230
         H           -0.538738338764     2.669155185259    -1.749036339455     1.007825032230
         H            0.798225661236     3.486759185259    -0.886016339455     1.007825032230
         H           -4.086775338764     0.184913185259     0.607739660545     1.007825032230
         H           -3.535811338764    -2.189456814741     0.066710660545     1.007825032230

  Basis Set: AUG-CC-PVTZ
    Blend: AUG-CC-PVTZ
  Basis Set: (AUG-CC-PVTZ AUX)
    Blend: AUG-CC-PVTZ-JKFIT
	 Reference Energy          =    -568.4534191457094039 [Eh]
	 Singles Energy            =      -0.0000000000000000 [Eh]
	 Same-Spin Energy          =      -0.6135106550846000 [Eh]
	 Opposite-Spin Energy      =      -1.8871822866354240 [Eh]
	 Correlation Energy        =      -2.5006929417200241 [Eh]
	 Total Energy              =    -570.9541120874293938 [Eh]

	 ================> DF-SCS-MP2 Energies <==================
	-----------------------------------------------------------
	 SCS Same-Spin Scale       =       0.3333333333333333 [-]
	 SCS Opposite-Spin Scale   =       1.2000000000000000 [-]
	 SCS Same-Spin Energy      =      -0.2045035516948667 [Eh]
	 SCS Opposite-Spin Energy  =      -2.2646187439625085 [Eh]
	 SCS Correlation Energy    =      -2.4691222956573751 [Eh]
	 SCS Total Energy          =    -570.9225414413667750 [Eh]
	-----------------------------------------------------------

  Dipole Moment: [D]
     X:    -5.3777      Y:    -0.1368      Z:     0.2568     Total:     5.3855

*** Psi4 exiting successfully. Buy a developer a beer!
