                               Psi4 1.3.2 release

  ==> Input File <==

--------------------------------------------------------------------------
#psi4
#
memory 32 gb

molecule  {
0 1
  O        3.1477550    -1.4485350    -0.2143050
  N        0.9062980    -1.2504610    -0.5893500
  N        1.5545360     1.4658350     0.3351760
  C       -0.6897772     0.5310470     0.0365144
  C       -0.3911060    -0.8453020    -0.2363150
  C        0.3345050     1.5654110    -0.0838510
  C        1.9201190     0.2388570     1.0398190
  C       -2.0282860     0.8425430     0.3372020
  C       -1.4126000    -1.8085370    -0.2310830
  C        2.0871850    -0.8915250     0.0446260
  C       -0.0584500     2.8482670    -0.7690020
  C       -3.0319510    -0.1194250     0.3623450
  C       -2.7230760    -1.4503270     0.0616580
  H        0.9974690    -2.0891180    -1.1576180
  H        1.1650960    -0.0456930     1.7889680
  H        2.8821530     0.3846540     1.5322680
  H       -2.2754030     1.8777800     0.5574090
  H       -1.1609050    -2.8458310    -0.4446670
  H       -0.7945500     3.4046450    -0.1790500
  H       -0.5037450     2.6486950    -1.7485080
  H        0.8332190     3.4662990    -0.8854880
  H       -4.0517820     0.1644530     0.6082680
  H       -3.5008180    -2.2099170     0.0672390
units angstrom
no_reorient  #important for SAPT in psi4, default
symmetry c1  #important for SAPT in psi4, default
}

set PROPERTIES_ORIGIN ["COM"]
properties('MP2/aug-cc-pvtz', properties = ['dipole'])
--------------------------------------------------------------------------

    Molecular point group: c1
  Charge       = 0
  Multiplicity = 1
  Basis Set: AUG-CC-PVTZ
    Blend: AUG-CC-PVTZ
  Basis Set: (AUG-CC-PVTZ AUX)
    Blend: AUG-CC-PVTZ-JKFIT

    Orbital Energies [Eh]
    ---------------------

    Doubly Occupied:

       1A    -20.532447     2A    -15.607500     3A    -15.567122
       4A    -11.362778     5A    -11.317253     6A    -11.301090
       7A    -11.267540     8A    -11.267044     9A    -11.266395
      10A    -11.266251    11A    -11.258262    12A    -11.253764
      13A    -11.233805    14A     -1.387670    15A     -1.275988
      16A     -1.233578    17A     -1.163530    18A     -1.067242
      19A     -1.035073    20A     -1.009449    21A     -0.951810
      22A     -0.887996    23A     -0.857029    24A     -0.795963
      25A     -0.768331    26A     -0.729889    27A     -0.691909
      28A     -0.677979    29A     -0.658517    30A     -0.647113
      31A     -0.625801    32A     -0.618334    33A     -0.604731
      34A     -0.586574    35A     -0.566840    36A     -0.558797
      37A     -0.544871    38A     -0.538929    39A     -0.527130
      40A     -0.513930    41A     -0.457843    42A     -0.444744
      43A     -0.418213    44A     -0.406434    45A     -0.354720
      46A     -0.330572

  @DF-RHF Final Energy:  -568.46399300187556

   => Energetics <=

    Nuclear Repulsion Energy =            760.6350081182320082
    One-Electron Energy =               -2281.3204379819967471
    Two-Electron Energy =                 952.2214368618891740
    Total Energy =                       -568.4639930018755649
  Basis Set: (AUG-CC-PVTZ AUX)
    Blend: AUG-CC-PVTZ-RI
    Molecular point group: c1

    Geometry (in Angstrom), charge = 0, multiplicity = 1:

       Center              X                  Y                   Z               Mass
    ------------   -----------------  -----------------  -----------------  -----------------
         O            3.110837069541    -1.423098290045    -0.213706770210    15.994914619570
         N            0.869380069541    -1.225024290045    -0.588751770210    14.003074004430
         N            1.517618069541     1.491271709955     0.335774229790    14.003074004430
         C           -0.726695130459     0.556483709955     0.037112629790    12.000000000000
         C           -0.428023930459    -0.819865290045    -0.235716770210    12.000000000000
         C            0.297587069541     1.590847709955    -0.083252770210    12.000000000000
         C            1.883201069541     0.264293709955     1.040417229790    12.000000000000
         C           -2.065203930459     0.867979709955     0.337800229790    12.000000000000
         C           -1.449517930459    -1.783100290045    -0.230484770210    12.000000000000
         C            2.050267069541    -0.866088290045     0.045224229790    12.000000000000
         C           -0.095367930459     2.873703709955    -0.768403770210    12.000000000000
         C           -3.068868930459    -0.093988290045     0.362943229790    12.000000000000
         C           -2.759993930459    -1.424890290045     0.062256229790    12.000000000000
         H            0.960551069541    -2.063681290045    -1.157019770210     1.007825032230
         H            1.128178069541    -0.020256290045     1.789566229790     1.007825032230
         H            2.845235069541     0.410090709955     1.532866229790     1.007825032230
         H           -2.312320930459     1.903216709955     0.558007229790     1.007825032230
         H           -1.197822930459    -2.820394290045    -0.444068770210     1.007825032230
         H           -0.831467930459     3.430081709955    -0.178451770210     1.007825032230
         H           -0.540662930459     2.674131709955    -1.747909770210     1.007825032230
         H            0.796301069541     3.491735709955    -0.884889770210     1.007825032230
         H           -4.088699930459     0.189889709955     0.608866229790     1.007825032230
         H           -3.537735930459    -2.184480290045     0.067837229790     1.007825032230

  Basis Set: AUG-CC-PVTZ
    Blend: AUG-CC-PVTZ
  Basis Set: (AUG-CC-PVTZ AUX)
    Blend: AUG-CC-PVTZ-JKFIT
	 Reference Energy          =    -568.4639930018755649 [Eh]
	 Singles Energy            =      -0.0000000000000000 [Eh]
	 Same-Spin Energy          =      -0.6148330448125212 [Eh]
	 Opposite-Spin Energy      =      -1.8876475696514594 [Eh]
	 Correlation Energy        =      -2.5024806144639804 [Eh]
	 Total Energy              =    -570.9664736163394991 [Eh]

	 ================> DF-SCS-MP2 Energies <==================
	-----------------------------------------------------------
	 SCS Same-Spin Scale       =       0.3333333333333333 [-]
	 SCS Opposite-Spin Scale   =       1.2000000000000000 [-]
	 SCS Same-Spin Energy      =      -0.2049443482708404 [Eh]
	 SCS Opposite-Spin Energy  =      -2.2651770835817513 [Eh]
	 SCS Correlation Energy    =      -2.4701214318525917 [Eh]
	 SCS Total Energy          =    -570.9341144337281548 [Eh]
	-----------------------------------------------------------

  Dipole Moment: [D]
     X:    -5.1135      Y:    -0.2694      Z:     0.2272     Total:     5.1256

*** Psi4 exiting successfully. Buy a developer a beer!
