                               Psi4 1.4a3.dev225

  ==> Input File <==

--------------------------------------------------------------------------
#psi4
#
memory 32 gb

molecule  {
0 1
  O        3.1477550    -1.4485350    -0.2143050
  N        0.9062980    -1.2504610    -0.5893500
  N        1.5545360     1.4658350     0.3351760
  C       -0.6961080     0.5074870     0.0337420
  C       -0.3911060    -0.8453020    -0.2363150
  C        0.3345050     1.5654110    -0.0838510
  C        1.9201190     0.2388570     1.0398190
  C       -2.0282860     0.8425430     0.3372020
  C       -1.4126000    -1.8085370    -0.2310830
  C        2.0701636    -0.8966987     0.0354878
  C       -0.0584500     2.8482670    -0.7690020
  C       -3.0319510    -0.1194250     0.3623450
  C       -2.7230760    -1.4503270     0.0616580
  H        0.9974690    -2.0891180    -1.1576180
  H        1.1650960    -0.0456930     1.7889680
  H        2.8821530     0.3846540     1.5322680
  H       -2.2754030     1.8777800     0.5574090
  H       -1.1609050    -2.8458310    -0.4446670
  H       -0.7945500     3.4046450    -0.1790500
  H       -0.5037450     2.6486950    -1.7485080
  H        0.8332190     3.4662990    -0.8854880
  H       -4.0517820     0.1644530     0.6082680
  H       -3.5008180    -2.2099170     0.0672390
units angstrom
no_reorient  #important for SAPT in psi4, default
symmetry c1  #important for SAPT in psi4, default
}

set PROPERTIES_ORIGIN ["COM"]
properties('MP2/aug-cc-pvtz', properties = ['dipole'])
--------------------------------------------------------------------------

    Molecular point group: c1
  Charge       = 0
  Multiplicity = 1
  Basis Set: AUG-CC-PVTZ
    Blend: AUG-CC-PVTZ
  Basis Set: (AUG-CC-PVTZ AUX)
    Blend: AUG-CC-PVTZ-JKFIT

    Orbital Energies [Eh]
    ---------------------

    Doubly Occupied:

       1A    -20.528246     2A    -15.610225     3A    -15.567157
       4A    -11.361389     5A    -11.315828     6A    -11.302336
       7A    -11.267957     8A    -11.266790     9A    -11.266785
      10A    -11.266430    11A    -11.259822    12A    -11.255067
      13A    -11.234391    14A     -1.381162    15A     -1.278183
      16A     -1.234410    17A     -1.166382    18A     -1.065838
      19A     -1.036938    20A     -1.012087    21A     -0.950255
      22A     -0.887895    23A     -0.860229    24A     -0.798346
      25A     -0.769075    26A     -0.730824    27A     -0.691478
      28A     -0.675909    29A     -0.658532    30A     -0.649190
      31A     -0.626624    32A     -0.619006    33A     -0.601098
      34A     -0.586293    35A     -0.567692    36A     -0.559289
      37A     -0.543879    38A     -0.539604    39A     -0.527302
      40A     -0.516334    41A     -0.455852    42A     -0.443133
      43A     -0.417386    44A     -0.404057    45A     -0.355554
      46A     -0.334064

  @DF-RHF Final Energy:  -568.46461782520930

   => Energetics <=

    Nuclear Repulsion Energy =            760.8967081683371134
    One-Electron Energy =               -2281.8300064099707924
    Two-Electron Energy =                 952.4686804164242631
    Total Energy =                       -568.4646178252093023
  Basis Set: (AUG-CC-PVTZ AUX)
    Blend: AUG-CC-PVTZ-RI
    Molecular point group: c1

    Geometry (in Angstrom), charge = 0, multiplicity = 1:

       Center              X                  Y                   Z               Mass
    ------------   -----------------  -----------------  -----------------  -----------------
         O            3.112446832328    -1.421117558422    -0.212885723771    15.994914619570
         N            0.870989832328    -1.223043558422    -0.587930723771    14.003074004430
         N            1.519227832328     1.493252441578     0.336595276229    14.003074004430
         C           -0.731416167672     0.534904441578     0.035161276229    12.000000000000
         C           -0.426414167672    -0.817884558422    -0.234895723771    12.000000000000
         C            0.299196832328     1.592828441578    -0.082431723771    12.000000000000
         C            1.884810832328     0.266274441578     1.041238276229    12.000000000000
         C           -2.063594167672     0.869960441578     0.338621276229    12.000000000000
         C           -1.447908167672    -1.781119558422    -0.229663723771    12.000000000000
         C            2.034855432328    -0.869281258422     0.036907076229    12.000000000000
         C           -0.093758167672     2.875684441578    -0.767582723771    12.000000000000
         C           -3.067259167672    -0.092007558422     0.363764276229    12.000000000000
         C           -2.758384167672    -1.422909558422     0.063077276229    12.000000000000
         H            0.962160832328    -2.061700558422    -1.156198723771     1.007825032230
         H            1.129787832328    -0.018275558422     1.790387276229     1.007825032230
         H            2.846844832328     0.412071441578     1.533687276229     1.007825032230
         H           -2.310711167672     1.905197441578     0.558828276229     1.007825032230
         H           -1.196213167672    -2.818413558422    -0.443247723771     1.007825032230
         H           -0.829858167672     3.432062441578    -0.177630723771     1.007825032230
         H           -0.539053167672     2.676112441578    -1.747088723771     1.007825032230
         H            0.797910832328     3.493716441578    -0.884068723771     1.007825032230
         H           -4.087090167672     0.191870441578     0.609687276229     1.007825032230
         H           -3.536126167672    -2.182499558422     0.068658276229     1.007825032230

  Basis Set: AUG-CC-PVTZ
    Blend: AUG-CC-PVTZ
  Basis Set: (AUG-CC-PVTZ AUX)
    Blend: AUG-CC-PVTZ-JKFIT
	 Reference Energy          =    -568.4646178252093023 [Eh]
	 Singles Energy            =      -0.0000000000000000 [Eh]
	 Same-Spin Energy          =      -0.6146021712122918 [Eh]
	 Opposite-Spin Energy      =      -1.8874684257224292 [Eh]
	 Correlation Energy        =      -2.5020705969347210 [Eh]
	 Total Energy              =    -570.9666884221439886 [Eh]

	 ================> DF-SCS-MP2 Energies <==================
	-----------------------------------------------------------
	 SCS Same-Spin Scale       =       0.3333333333333333 [-]
	 SCS Opposite-Spin Scale   =       1.2000000000000000 [-]
	 SCS Same-Spin Energy      =      -0.2048673904040972 [Eh]
	 SCS Opposite-Spin Energy  =      -2.2649621108669149 [Eh]
	 SCS Correlation Energy    =      -2.4698295012710121 [Eh]
	 SCS Total Energy          =    -570.9344473264802673 [Eh]
	-----------------------------------------------------------

  Dipole Moment: [D]
     X:    -5.3082      Y:    -0.2344      Z:     0.1947     Total:     5.3170

*** Psi4 exiting successfully. Buy a developer a beer!
