                               Psi4 1.3.2 release

  ==> Input File <==

--------------------------------------------------------------------------
#psi4
#
memory 32 gb

molecule  {
0 1
  O        3.1477550    -1.4485350    -0.2143050
  N        0.9062980    -1.2504610    -0.5893500
  N        1.5545360     1.4658350     0.3351760
  C       -0.6961080     0.5074870     0.0337420
  C       -0.3911060    -0.8453020    -0.2363150
  C        0.3345050     1.5654110    -0.0838510
  C        1.9201190     0.2388570     1.0398190
  C       -2.0282860     0.8425430     0.3372020
  C       -1.4126000    -1.8085370    -0.2310830
  C        1.9169714    -0.9432622    -0.0467556
  C       -0.0584500     2.8482670    -0.7690020
  C       -3.0319510    -0.1194250     0.3623450
  C       -2.7230760    -1.4503270     0.0616580
  H        0.9974690    -2.0891180    -1.1576180
  H        1.1650960    -0.0456930     1.7889680
  H        2.8821530     0.3846540     1.5322680
  H       -2.2754030     1.8777800     0.5574090
  H       -1.1609050    -2.8458310    -0.4446670
  H       -0.7945500     3.4046450    -0.1790500
  H       -0.5037450     2.6486950    -1.7485080
  H        0.8332190     3.4662990    -0.8854880
  H       -4.0517820     0.1644530     0.6082680
  H       -3.5008180    -2.2099170     0.0672390
units angstrom
no_reorient  #important for SAPT in psi4, default
symmetry c1  #important for SAPT in psi4, default
}

set PROPERTIES_ORIGIN ["COM"]
properties('MP2/aug-cc-pvtz', properties = ['dipole'])
--------------------------------------------------------------------------

    Molecular point group: c1
  Charge       = 0
  Multiplicity = 1
  Basis Set: AUG-CC-PVTZ
    Blend: AUG-CC-PVTZ
  Basis Set: (AUG-CC-PVTZ AUX)
    Blend: AUG-CC-PVTZ-JKFIT

    Orbital Energies [Eh]
    ---------------------

    Doubly Occupied:

       1A    -20.490278     2A    -15.635487     3A    -15.568781
       4A    -11.346350     5A    -11.327916     6A    -11.302142
       7A    -11.280762     8A    -11.275529     9A    -11.275165
      10A    -11.274018    11A    -11.267513    12A    -11.267173
      13A    -11.236271    14A     -1.392204    15A     -1.253585
      16A     -1.242346    17A     -1.180919    18A     -1.070604
      19A     -1.058131    20A     -1.016593    21A     -0.940089
      22A     -0.911016    23A     -0.879375    24A     -0.825729
      25A     -0.783245    26A     -0.747195    27A     -0.695863
      28A     -0.673838    29A     -0.660378    30A     -0.654032
      31A     -0.636454    32A     -0.625837    33A     -0.598023
      34A     -0.588232    35A     -0.567531    36A     -0.552554
      37A     -0.545526    38A     -0.531656    39A     -0.528842
      40A     -0.524217    41A     -0.437751    42A     -0.419965
      43A     -0.413429    44A     -0.384919    45A     -0.358082
      46A     -0.347218

  @DF-RHF Final Energy:  -568.40181171661118

   => Energetics <=

    Nuclear Repulsion Energy =            762.6250363969963928
    One-Electron Energy =               -2284.8681687699058784
    Two-Electron Energy =                 953.8413206562983078
    Total Energy =                       -568.4018117166111779
  Basis Set: (AUG-CC-PVTZ AUX)
    Blend: AUG-CC-PVTZ-RI
    Molecular point group: c1

    Geometry (in Angstrom), charge = 0, multiplicity = 1:

       Center              X                  Y                   Z               Mass
    ------------   -----------------  -----------------  -----------------  -----------------
         O            3.123006998087    -1.417907745662    -0.207216349374    15.994914619570
         N            0.881549998087    -1.219833745662    -0.582261349374    14.003074004430
         N            1.529787998087     1.496462254338     0.342264650626    14.003074004430
         C           -0.720856001913     0.538114254338     0.040830650626    12.000000000000
         C           -0.415854001913    -0.814674745662    -0.229226349374    12.000000000000
         C            0.309756998087     1.596038254338    -0.076762349374    12.000000000000
         C            1.895370998087     0.269484254338     1.046907650626    12.000000000000
         C           -2.053034001913     0.873170254338     0.344290650626    12.000000000000
         C           -1.437348001913    -1.777909745662    -0.223994349374    12.000000000000
         C            1.892223398087    -0.912634945662    -0.039666949374    12.000000000000
         C           -0.083198001913     2.878894254338    -0.761913349374    12.000000000000
         C           -3.056699001913    -0.088797745662     0.369433650626    12.000000000000
         C           -2.747824001913    -1.419699745662     0.068746650626    12.000000000000
         H            0.972720998087    -2.058490745662    -1.150529349374     1.007825032230
         H            1.140347998087    -0.015065745662     1.796056650626     1.007825032230
         H            2.857404998087     0.415281254338     1.539356650626     1.007825032230
         H           -2.300151001913     1.908407254338     0.564497650626     1.007825032230
         H           -1.185653001913    -2.815203745662    -0.437578349374     1.007825032230
         H           -0.819298001913     3.435272254338    -0.171961349374     1.007825032230
         H           -0.528493001913     2.679322254338    -1.741419349374     1.007825032230
         H            0.808470998087     3.496926254338    -0.878399349374     1.007825032230
         H           -4.076530001913     0.195080254338     0.615356650626     1.007825032230
         H           -3.525566001913    -2.179289745662     0.074327650626     1.007825032230

  Basis Set: AUG-CC-PVTZ
    Blend: AUG-CC-PVTZ
  Basis Set: (AUG-CC-PVTZ AUX)
    Blend: AUG-CC-PVTZ-JKFIT
	 Reference Energy          =    -568.4018117166111779 [Eh]
	 Singles Energy            =      -0.0000000000000000 [Eh]
	 Same-Spin Energy          =      -0.6162505629256717 [Eh]
	 Opposite-Spin Energy      =      -1.8908629909852268 [Eh]
	 Correlation Energy        =      -2.5071135539108984 [Eh]
	 Total Energy              =    -570.9089252705221043 [Eh]

	 ================> DF-SCS-MP2 Energies <==================
	-----------------------------------------------------------
	 SCS Same-Spin Scale       =       0.3333333333333333 [-]
	 SCS Opposite-Spin Scale   =       1.2000000000000000 [-]
	 SCS Same-Spin Energy      =      -0.2054168543085572 [Eh]
	 SCS Opposite-Spin Energy  =      -2.2690355891822720 [Eh]
	 SCS Correlation Energy    =      -2.4744524434908293 [Eh]
	 SCS Total Energy          =    -570.8762641601019823 [Eh]
	-----------------------------------------------------------

  Dipole Moment: [D]
     X:    -7.0493      Y:    -0.0751      Z:    -0.0333     Total:     7.0498

*** Psi4 exiting successfully. Buy a developer a beer!
