                               Psi4 1.3.2 release

  ==> Input File <==

--------------------------------------------------------------------------
#psi4
#
memory 32 gb

molecule  {
0 1
  O        3.1477550    -1.4485350    -0.2143050
  N        0.9062980    -1.2504610    -0.5893500
  N        1.5545360     1.4658350     0.3351760
  C       -0.6961080     0.5074870     0.0337420
  C       -0.2987202    -0.9546671    -0.2695129
  C        0.3345050     1.5654110    -0.0838510
  C        1.9201190     0.2388570     1.0398190
  C       -2.0282860     0.8425430     0.3372020
  C       -1.4126000    -1.8085370    -0.2310830
  C        2.0871850    -0.8915250     0.0446260
  C       -0.0584500     2.8482670    -0.7690020
  C       -3.0319510    -0.1194250     0.3623450
  C       -2.7230760    -1.4503270     0.0616580
  H        0.9974690    -2.0891180    -1.1576180
  H        1.1650960    -0.0456930     1.7889680
  H        2.8821530     0.3846540     1.5322680
  H       -2.2754030     1.8777800     0.5574090
  H       -1.1609050    -2.8458310    -0.4446670
  H       -0.7945500     3.4046450    -0.1790500
  H       -0.5037450     2.6486950    -1.7485080
  H        0.8332190     3.4662990    -0.8854880
  H       -4.0517820     0.1644530     0.6082680
  H       -3.5008180    -2.2099170     0.0672390
units angstrom
no_reorient  #important for SAPT in psi4, default
symmetry c1  #important for SAPT in psi4, default
}

set PROPERTIES_ORIGIN ["COM"]
properties('MP2/aug-cc-pvtz', properties = ['dipole'])
--------------------------------------------------------------------------

    Molecular point group: c1
  Charge       = 0
  Multiplicity = 1
  Basis Set: AUG-CC-PVTZ
    Blend: AUG-CC-PVTZ
  Basis Set: (AUG-CC-PVTZ AUX)
    Blend: AUG-CC-PVTZ-JKFIT

    Orbital Energies [Eh]
    ---------------------

    Doubly Occupied:

       1A    -20.544586     2A    -15.618102     3A    -15.564288
       4A    -11.374009     5A    -11.320838     6A    -11.299987
       7A    -11.270091     8A    -11.269877     9A    -11.263948
      10A    -11.263601    11A    -11.252663    12A    -11.247570
      13A    -11.232029    14A     -1.402610    15A     -1.311571
      16A     -1.239264    17A     -1.153391    18A     -1.059634
      19A     -1.036285    20A     -0.999256    21A     -0.955486
      22A     -0.895802    23A     -0.860979    24A     -0.805245
      25A     -0.758710    26A     -0.749160    27A     -0.695617
      28A     -0.683115    29A     -0.662007    30A     -0.635197
      31A     -0.621896    32A     -0.619879    33A     -0.615328
      34A     -0.586918    35A     -0.574885    36A     -0.557454
      37A     -0.543107    38A     -0.538095    39A     -0.522378
      40A     -0.497018    41A     -0.466607    42A     -0.457277
      43A     -0.413692    44A     -0.407755    45A     -0.352075
      46A     -0.313786

  @DF-RHF Final Energy:  -568.43582096730631

   => Energetics <=

    Nuclear Repulsion Energy =            760.2695099452255363
    One-Electron Energy =               -2280.3845264976894214
    Two-Electron Energy =                 951.6791955851575722
    Total Energy =                       -568.4358209673063129
  Basis Set: (AUG-CC-PVTZ AUX)
    Blend: AUG-CC-PVTZ-RI
    Molecular point group: c1

    Geometry (in Angstrom), charge = 0, multiplicity = 1:

       Center              X                  Y                   Z               Mass
    ------------   -----------------  -----------------  -----------------  -----------------
         O            3.104904945944    -1.413935218494    -0.211227190112    15.994914619570
         N            0.863447945944    -1.215861218494    -0.586272190112    14.003074004430
         N            1.511685945944     1.500434781506     0.338253809888    14.003074004430
         C           -0.738958054056     0.542086781506     0.036819809888    12.000000000000
         C           -0.341570254056    -0.920067318494    -0.266435090112    12.000000000000
         C            0.291654945944     1.600010781506    -0.080773190112    12.000000000000
         C            1.877268945944     0.273456781506     1.042896809888    12.000000000000
         C           -2.071136054056     0.877142781506     0.340279809888    12.000000000000
         C           -1.455450054056    -1.773937218494    -0.228005190112    12.000000000000
         C            2.044334945944    -0.856925218494     0.047703809888    12.000000000000
         C           -0.101300054056     2.882866781506    -0.765924190112    12.000000000000
         C           -3.074801054056    -0.084825218494     0.365422809888    12.000000000000
         C           -2.765926054056    -1.415727218494     0.064735809888    12.000000000000
         H            0.954618945944    -2.054518218494    -1.154540190112     1.007825032230
         H            1.122245945944    -0.011093218494     1.792045809888     1.007825032230
         H            2.839302945944     0.419253781506     1.535345809888     1.007825032230
         H           -2.318253054056     1.912379781506     0.560486809888     1.007825032230
         H           -1.203755054056    -2.811231218494    -0.441589190112     1.007825032230
         H           -0.837400054056     3.439244781506    -0.175972190112     1.007825032230
         H           -0.546595054056     2.683294781506    -1.745430190112     1.007825032230
         H            0.790368945944     3.500898781506    -0.882410190112     1.007825032230
         H           -4.094632054056     0.199052781506     0.611345809888     1.007825032230
         H           -3.543668054056    -2.175317218494     0.070316809888     1.007825032230

  Basis Set: AUG-CC-PVTZ
    Blend: AUG-CC-PVTZ
  Basis Set: (AUG-CC-PVTZ AUX)
    Blend: AUG-CC-PVTZ-JKFIT
	 Reference Energy          =    -568.4358209673063129 [Eh]
	 Singles Energy            =      -0.0000000000000000 [Eh]
	 Same-Spin Energy          =      -0.6165777110464108 [Eh]
	 Opposite-Spin Energy      =      -1.8898134593988651 [Eh]
	 Correlation Energy        =      -2.5063911704452759 [Eh]
	 Total Energy              =    -570.9422121377515396 [Eh]

	 ================> DF-SCS-MP2 Energies <==================
	-----------------------------------------------------------
	 SCS Same-Spin Scale       =       0.3333333333333333 [-]
	 SCS Opposite-Spin Scale   =       1.2000000000000000 [-]
	 SCS Same-Spin Energy      =      -0.2055259036821369 [Eh]
	 SCS Opposite-Spin Energy  =      -2.2677761512786381 [Eh]
	 SCS Correlation Energy    =      -2.4733020549607749 [Eh]
	 SCS Total Energy          =    -570.9091230222670674 [Eh]
	-----------------------------------------------------------

  Dipole Moment: [D]
     X:    -4.4291      Y:    -0.4402      Z:     0.1271     Total:     4.4527

*** Psi4 exiting successfully. Buy a developer a beer!
