                               Psi4 1.3.2 release

  ==> Input File <==

--------------------------------------------------------------------------
#psi4
#
memory 32 gb

molecule  {
0 1
  O        3.1477550    -1.4485350    -0.2143050
  N        0.9062980    -1.2504610    -0.5893500
  N        1.5545360     1.4658350     0.3351760
  C       -0.6961080     0.5074870     0.0337420
  C       -0.3911060    -0.8453020    -0.2363150
  C        0.4288017     1.5577147    -0.0514642
  C        1.9201190     0.2388570     1.0398190
  C       -2.0282860     0.8425430     0.3372020
  C       -1.4126000    -1.8085370    -0.2310830
  C        2.0871850    -0.8915250     0.0446260
  C       -0.0584500     2.8482670    -0.7690020
  C       -3.0319510    -0.1194250     0.3623450
  C       -2.7230760    -1.4503270     0.0616580
  H        0.9974690    -2.0891180    -1.1576180
  H        1.1650960    -0.0456930     1.7889680
  H        2.8821530     0.3846540     1.5322680
  H       -2.2754030     1.8777800     0.5574090
  H       -1.1609050    -2.8458310    -0.4446670
  H       -0.7945500     3.4046450    -0.1790500
  H       -0.5037450     2.6486950    -1.7485080
  H        0.8332190     3.4662990    -0.8854880
  H       -4.0517820     0.1644530     0.6082680
  H       -3.5008180    -2.2099170     0.0672390
units angstrom
no_reorient  #important for SAPT in psi4, default
symmetry c1  #important for SAPT in psi4, default
}

set PROPERTIES_ORIGIN ["COM"]
properties('MP2/aug-cc-pvtz', properties = ['dipole'])
--------------------------------------------------------------------------

    Molecular point group: c1
  Charge       = 0
  Multiplicity = 1
  Basis Set: AUG-CC-PVTZ
    Blend: AUG-CC-PVTZ
  Basis Set: (AUG-CC-PVTZ AUX)
    Blend: AUG-CC-PVTZ-JKFIT

    Orbital Energies [Eh]
    ---------------------

    Doubly Occupied:

       1A    -20.534493     2A    -15.607063     3A    -15.560680
       4A    -11.365079     5A    -11.310042     6A    -11.294648
       7A    -11.272622     8A    -11.266023     9A    -11.263812
      10A    -11.262318    11A    -11.256097    12A    -11.252071
      13A    -11.231748    14A     -1.389756    15A     -1.292451
      16A     -1.256075    17A     -1.161446    18A     -1.055835
      19A     -1.034906    20A     -1.009730    21A     -0.957990
      22A     -0.878415    23A     -0.855843    24A     -0.796019
      25A     -0.762764    26A     -0.725700    27A     -0.697033
      28A     -0.681632    29A     -0.656643    30A     -0.645709
      31A     -0.626200    32A     -0.622479    33A     -0.607888
      34A     -0.581838    35A     -0.567889    36A     -0.552576
      37A     -0.551102    38A     -0.535778    39A     -0.527828
      40A     -0.510069    41A     -0.472857    42A     -0.444822
      43A     -0.424133    44A     -0.402848    45A     -0.356979
      46A     -0.330805

  @DF-RHF Final Energy:  -568.45770075030805

   => Energetics <=

    Nuclear Repulsion Energy =            761.2611391234527218
    One-Electron Energy =               -2282.5362097246870690
    Two-Electron Energy =                 952.8173698509262977
    Total Energy =                       -568.4577007503080495
  Basis Set: (AUG-CC-PVTZ AUX)
    Blend: AUG-CC-PVTZ-RI
    Molecular point group: c1

    Geometry (in Angstrom), charge = 0, multiplicity = 1:

       Center              X                  Y                   Z               Mass
    ------------   -----------------  -----------------  -----------------  -----------------
         O            3.104773219781    -1.420943665272    -0.215748212091    15.994914619570
         N            0.863316219781    -1.222869665272    -0.590793212091    14.003074004430
         N            1.511554219781     1.493426334728     0.333732787909    14.003074004430
         C           -0.739089780219     0.535078334728     0.032298787909    12.000000000000
         C           -0.434087780219    -0.817710665272    -0.237758212091    12.000000000000
         C            0.385819919781     1.585306034728    -0.052907412091    12.000000000000
         C            1.877137219781     0.266448334728     1.038375787909    12.000000000000
         C           -2.071267780219     0.870134334728     0.335758787909    12.000000000000
         C           -1.455581780219    -1.780945665272    -0.232526212091    12.000000000000
         C            2.044203219781    -0.863933665272     0.043182787909    12.000000000000
         C           -0.101431780219     2.875858334728    -0.770445212091    12.000000000000
         C           -3.074932780219    -0.091833665272     0.360901787909    12.000000000000
         C           -2.766057780219    -1.422735665272     0.060214787909    12.000000000000
         H            0.954487219781    -2.061526665272    -1.159061212091     1.007825032230
         H            1.122114219781    -0.018101665272     1.787524787909     1.007825032230
         H            2.839171219781     0.412245334728     1.530824787909     1.007825032230
         H           -2.318384780219     1.905371334728     0.555965787909     1.007825032230
         H           -1.203886780219    -2.818239665272    -0.446110212091     1.007825032230
         H           -0.837531780219     3.432236334728    -0.180493212091     1.007825032230
         H           -0.546726780219     2.676286334728    -1.749951212091     1.007825032230
         H            0.790237219781     3.493890334728    -0.886931212091     1.007825032230
         H           -4.094763780219     0.192044334728     0.606824787909     1.007825032230
         H           -3.543799780219    -2.182325665272     0.065795787909     1.007825032230

  Basis Set: AUG-CC-PVTZ
    Blend: AUG-CC-PVTZ
  Basis Set: (AUG-CC-PVTZ AUX)
    Blend: AUG-CC-PVTZ-JKFIT
	 Reference Energy          =    -568.4577007503080495 [Eh]
	 Singles Energy            =      -0.0000000000000000 [Eh]
	 Same-Spin Energy          =      -0.6120728233619113 [Eh]
	 Opposite-Spin Energy      =      -1.8828167385066132 [Eh]
	 Correlation Energy        =      -2.4948895618685247 [Eh]
	 Total Energy              =    -570.9525903121765396 [Eh]

	 ================> DF-SCS-MP2 Energies <==================
	-----------------------------------------------------------
	 SCS Same-Spin Scale       =       0.3333333333333333 [-]
	 SCS Opposite-Spin Scale   =       1.2000000000000000 [-]
	 SCS Same-Spin Energy      =      -0.2040242744539704 [Eh]
	 SCS Opposite-Spin Energy  =      -2.2593800862079356 [Eh]
	 SCS Correlation Energy    =      -2.4634043606619063 [Eh]
	 SCS Total Energy          =    -570.9211051109699611 [Eh]
	-----------------------------------------------------------

  Dipole Moment: [D]
     X:    -4.8311      Y:    -0.2357      Z:     0.3455     Total:     4.8491

*** Psi4 exiting successfully. Buy a developer a beer!
