                               Psi4 1.3.2 release

  ==> Input File <==

--------------------------------------------------------------------------
#psi4
#
memory 32 gb

molecule  {
0 1
  O        3.1477550    -1.4485350    -0.2143050
  N        0.9062980    -1.2504610    -0.5893500
  N        1.5545360     1.4658350     0.3351760
  C       -0.6961080     0.5074870     0.0337420
  C       -0.3911060    -0.8453020    -0.2363150
  C        0.2982591     1.5137096    -0.1679360
  C        1.9201190     0.2388570     1.0398190
  C       -2.0282860     0.8425430     0.3372020
  C       -1.4126000    -1.8085370    -0.2310830
  C        2.0871850    -0.8915250     0.0446260
  C       -0.0584500     2.8482670    -0.7690020
  C       -3.0319510    -0.1194250     0.3623450
  C       -2.7230760    -1.4503270     0.0616580
  H        0.9974690    -2.0891180    -1.1576180
  H        1.1650960    -0.0456930     1.7889680
  H        2.8821530     0.3846540     1.5322680
  H       -2.2754030     1.8777800     0.5574090
  H       -1.1609050    -2.8458310    -0.4446670
  H       -0.7945500     3.4046450    -0.1790500
  H       -0.5037450     2.6486950    -1.7485080
  H        0.8332190     3.4662990    -0.8854880
  H       -4.0517820     0.1644530     0.6082680
  H       -3.5008180    -2.2099170     0.0672390
units angstrom
no_reorient  #important for SAPT in psi4, default
symmetry c1  #important for SAPT in psi4, default
}

set PROPERTIES_ORIGIN ["COM"]
properties('MP2/aug-cc-pvtz', properties = ['dipole'])
--------------------------------------------------------------------------

    Molecular point group: c1
  Charge       = 0
  Multiplicity = 1
  Basis Set: AUG-CC-PVTZ
    Blend: AUG-CC-PVTZ
  Basis Set: (AUG-CC-PVTZ AUX)
    Blend: AUG-CC-PVTZ-JKFIT

    Orbital Energies [Eh]
    ---------------------

    Doubly Occupied:

       1A    -20.531380     2A    -15.607667     3A    -15.571083
       4A    -11.361726     5A    -11.316746     6A    -11.305926
       7A    -11.269411     8A    -11.268079     9A    -11.264646
      10A    -11.263854    11A    -11.259633    12A    -11.255694
      13A    -11.235191    14A     -1.386773    15A     -1.275097
      16A     -1.217382    17A     -1.166838    18A     -1.071717
      19A     -1.036121    20A     -1.010487    21A     -0.943423
      22A     -0.893539    23A     -0.860125    24A     -0.796221
      25A     -0.771159    26A     -0.731312    27A     -0.689501
      28A     -0.675839    29A     -0.660194    30A     -0.648086
      31A     -0.627406    32A     -0.616114    33A     -0.603079
      34A     -0.586462    35A     -0.566783    36A     -0.560105
      37A     -0.544828    38A     -0.536536    39A     -0.528403
      40A     -0.513134    41A     -0.454033    42A     -0.444791
      43A     -0.419463    44A     -0.401257    45A     -0.350672
      46A     -0.332688

  @DF-RHF Final Energy:  -568.45090589702488

   => Energetics <=

    Nuclear Repulsion Energy =            761.0361305011031163
    One-Electron Energy =               -2282.1128645284593404
    Two-Electron Energy =                 952.6258281303313424
    Total Energy =                       -568.4509058970248816
  Basis Set: (AUG-CC-PVTZ AUX)
    Blend: AUG-CC-PVTZ-RI
    Molecular point group: c1

    Geometry (in Angstrom), charge = 0, multiplicity = 1:

       Center              X                  Y                   Z               Mass
    ------------   -----------------  -----------------  -----------------  -----------------
         O            3.113772055849    -1.417910213502    -0.207719333896    15.994914619570
         N            0.872315055849    -1.219836213502    -0.582764333896    14.003074004430
         N            1.520553055849     1.496459786498     0.341761666104    14.003074004430
         C           -0.730090944151     0.538111786498     0.040327666104    12.000000000000
         C           -0.425088944151    -0.814677213502    -0.229729333896    12.000000000000
         C            0.264276155849     1.544334386498    -0.161350333896    12.000000000000
         C            1.886136055849     0.269481786498     1.046404666104    12.000000000000
         C           -2.062268944151     0.873167786498     0.343787666104    12.000000000000
         C           -1.446582944151    -1.777912213502    -0.224497333896    12.000000000000
         C            2.053202055849    -0.860900213502     0.051211666104    12.000000000000
         C           -0.092432944151     2.878891786498    -0.762416333896    12.000000000000
         C           -3.065933944151    -0.088800213502     0.368930666104    12.000000000000
         C           -2.757058944151    -1.419702213502     0.068243666104    12.000000000000
         H            0.963486055849    -2.058493213502    -1.151032333896     1.007825032230
         H            1.131113055849    -0.015068213502     1.795553666104     1.007825032230
         H            2.848170055849     0.415278786498     1.538853666104     1.007825032230
         H           -2.309385944151     1.908404786498     0.563994666104     1.007825032230
         H           -1.194887944151    -2.815206213502    -0.438081333896     1.007825032230
         H           -0.828532944151     3.435269786498    -0.172464333896     1.007825032230
         H           -0.537727944151     2.679319786498    -1.741922333896     1.007825032230
         H            0.799236055849     3.496923786498    -0.878902333896     1.007825032230
         H           -4.085764944151     0.195077786498     0.614853666104     1.007825032230
         H           -3.534800944151    -2.179292213502     0.073824666104     1.007825032230

  Basis Set: AUG-CC-PVTZ
    Blend: AUG-CC-PVTZ
  Basis Set: (AUG-CC-PVTZ AUX)
    Blend: AUG-CC-PVTZ-JKFIT
	 Reference Energy          =    -568.4509058970248816 [Eh]
	 Singles Energy            =      -0.0000000000000000 [Eh]
	 Same-Spin Energy          =      -0.6168895735169428 [Eh]
	 Opposite-Spin Energy      =      -1.8915681586892492 [Eh]
	 Correlation Energy        =      -2.5084577322061921 [Eh]
	 Total Energy              =    -570.9593636292311203 [Eh]

	 ================> DF-SCS-MP2 Energies <==================
	-----------------------------------------------------------
	 SCS Same-Spin Scale       =       0.3333333333333333 [-]
	 SCS Opposite-Spin Scale   =       1.2000000000000000 [-]
	 SCS Same-Spin Energy      =      -0.2056298578389809 [Eh]
	 SCS Opposite-Spin Energy  =      -2.2698817904270991 [Eh]
	 SCS Correlation Energy    =      -2.4755116482660799 [Eh]
	 SCS Total Energy          =    -570.9264175452909740 [Eh]
	-----------------------------------------------------------

  Dipole Moment: [D]
     X:    -5.2096      Y:    -0.3235      Z:     0.2214     Total:     5.2244

*** Psi4 exiting successfully. Buy a developer a beer!
