                               Psi4 1.3.2 release

  ==> Input File <==

--------------------------------------------------------------------------
#psi4
#
memory 32 gb

molecule  {
0 1
  O        3.1477550    -1.4485350    -0.2143050
  N        0.9062980    -1.2504610    -0.5893500
  N        1.5545360     1.4658350     0.3351760
  C       -0.7254838     0.4143532     0.0235007
  C       -0.3911060    -0.8453020    -0.2363150
  C        0.3345050     1.5654110    -0.0838510
  C        1.9201190     0.2388570     1.0398190
  C       -2.0282860     0.8425430     0.3372020
  C       -1.4126000    -1.8085370    -0.2310830
  C        2.0871850    -0.8915250     0.0446260
  C       -0.0584500     2.8482670    -0.7690020
  C       -3.0319510    -0.1194250     0.3623450
  C       -2.7230760    -1.4503270     0.0616580
  H        0.9974690    -2.0891180    -1.1576180
  H        1.1650960    -0.0456930     1.7889680
  H        2.8821530     0.3846540     1.5322680
  H       -2.2754030     1.8777800     0.5574090
  H       -1.1609050    -2.8458310    -0.4446670
  H       -0.7945500     3.4046450    -0.1790500
  H       -0.5037450     2.6486950    -1.7485080
  H        0.8332190     3.4662990    -0.8854880
  H       -4.0517820     0.1644530     0.6082680
  H       -3.5008180    -2.2099170     0.0672390
units angstrom
no_reorient  #important for SAPT in psi4, default
symmetry c1  #important for SAPT in psi4, default
}

set PROPERTIES_ORIGIN ["COM"]
properties('MP2/aug-cc-pvtz', properties = ['dipole'])
--------------------------------------------------------------------------

    Molecular point group: c1
  Charge       = 0
  Multiplicity = 1
  Basis Set: AUG-CC-PVTZ
    Blend: AUG-CC-PVTZ
  Basis Set: (AUG-CC-PVTZ AUX)
    Blend: AUG-CC-PVTZ-JKFIT

    Orbital Energies [Eh]
    ---------------------

    Doubly Occupied:

       1A    -20.531597     2A    -15.605536     3A    -15.566492
       4A    -11.361933     5A    -11.306486     6A    -11.302443
       7A    -11.266836     8A    -11.264864     9A    -11.262577
      10A    -11.262251    11A    -11.258511    12A    -11.254085
      13A    -11.235628    14A     -1.386865    15A     -1.276740
      16A     -1.230268    17A     -1.169789    18A     -1.060345
      19A     -1.037041    20A     -1.017561    21A     -0.951209
      22A     -0.878649    23A     -0.861884    24A     -0.792893
      25A     -0.767999    26A     -0.724946    27A     -0.690137
      28A     -0.676970    29A     -0.654751    30A     -0.652676
      31A     -0.627526    32A     -0.617102    33A     -0.604631
      34A     -0.586074    35A     -0.567754    36A     -0.558935
      37A     -0.541819    38A     -0.538568    39A     -0.530624
      40A     -0.516038    41A     -0.456573    42A     -0.444047
      43A     -0.413586    44A     -0.400747    45A     -0.356807
      46A     -0.338487

  @DF-RHF Final Energy:  -568.45683813255596

   => Energetics <=

    Nuclear Repulsion Energy =            761.2185268953325021
    One-Electron Energy =               -2282.5321748601231775
    Two-Electron Energy =                 952.8568098322346032
    Total Energy =                       -568.4568381325559585
  Basis Set: (AUG-CC-PVTZ AUX)
    Blend: AUG-CC-PVTZ-RI
    Molecular point group: c1

    Geometry (in Angstrom), charge = 0, multiplicity = 1:

       Center              X                  Y                   Z               Mass
    ------------   -----------------  -----------------  -----------------  -----------------
         O            3.113298471718    -1.415054108480    -0.212809682571    15.994914619570
         N            0.871841471718    -1.216980108480    -0.587854682571    14.003074004430
         N            1.520079471718     1.499315891520     0.336671317429    14.003074004430
         C           -0.759940328282     0.447834091520     0.024996017429    12.000000000000
         C           -0.425562528282    -0.811821108480    -0.234819682571    12.000000000000
         C            0.300048471718     1.598891891520    -0.082355682571    12.000000000000
         C            1.885662471718     0.272337891520     1.041314317429    12.000000000000
         C           -2.062742528282     0.876023891520     0.338697317429    12.000000000000
         C           -1.447056528282    -1.775056108480    -0.229587682571    12.000000000000
         C            2.052728471718    -0.858044108480     0.046121317429    12.000000000000
         C           -0.092906528282     2.881747891520    -0.767506682571    12.000000000000
         C           -3.066407528282    -0.085944108480     0.363840317429    12.000000000000
         C           -2.757532528282    -1.416846108480     0.063153317429    12.000000000000
         H            0.963012471718    -2.055637108480    -1.156122682571     1.007825032230
         H            1.130639471718    -0.012212108480     1.790463317429     1.007825032230
         H            2.847696471718     0.418134891520     1.533763317429     1.007825032230
         H           -2.309859528282     1.911260891520     0.558904317429     1.007825032230
         H           -1.195361528282    -2.812350108480    -0.443171682571     1.007825032230
         H           -0.829006528282     3.438125891520    -0.177554682571     1.007825032230
         H           -0.538201528282     2.682175891520    -1.747012682571     1.007825032230
         H            0.798762471718     3.499779891520    -0.883992682571     1.007825032230
         H           -4.086238528282     0.197933891520     0.609763317429     1.007825032230
         H           -3.535274528282    -2.176436108480     0.068734317429     1.007825032230

  Basis Set: AUG-CC-PVTZ
    Blend: AUG-CC-PVTZ
  Basis Set: (AUG-CC-PVTZ AUX)
    Blend: AUG-CC-PVTZ-JKFIT
	 Reference Energy          =    -568.4568381325559585 [Eh]
	 Singles Energy            =      -0.0000000000000000 [Eh]
	 Same-Spin Energy          =      -0.6134569812393720 [Eh]
	 Opposite-Spin Energy      =      -1.8863384950960662 [Eh]
	 Correlation Energy        =      -2.4997954763354384 [Eh]
	 Total Energy              =    -570.9566336088913658 [Eh]

	 ================> DF-SCS-MP2 Energies <==================
	-----------------------------------------------------------
	 SCS Same-Spin Scale       =       0.3333333333333333 [-]
	 SCS Opposite-Spin Scale   =       1.2000000000000000 [-]
	 SCS Same-Spin Energy      =      -0.2044856604131240 [Eh]
	 SCS Opposite-Spin Energy  =      -2.2636061941152792 [Eh]
	 SCS Correlation Energy    =      -2.4680918545284030 [Eh]
	 SCS Total Energy          =    -570.9249299870843970 [Eh]
	-----------------------------------------------------------

  Dipole Moment: [D]
     X:    -5.1142      Y:    -0.1327      Z:     0.2303     Total:     5.1211

*** Psi4 exiting successfully. Buy a developer a beer!
