                               Psi4 1.3.2 release

  ==> Input File <==

--------------------------------------------------------------------------
#psi4
#
memory 32 gb

molecule  {
0 1
  O        3.1477550    -1.4485350    -0.2143050
  N        0.9062980    -1.2504610    -0.5893500
  N        1.5545360     1.4658350     0.3351760
  C       -0.6961080     0.5074870     0.0337420
  C       -0.3911060    -0.8453020    -0.2363150
  C        0.3345050     1.5654110    -0.0838510
  C        1.9701514     0.0709372     1.1362539
  C       -2.0282860     0.8425430     0.3372020
  C       -1.4126000    -1.8085370    -0.2310830
  C        2.0871850    -0.8915250     0.0446260
  C       -0.0584500     2.8482670    -0.7690020
  C       -3.0319510    -0.1194250     0.3623450
  C       -2.7230760    -1.4503270     0.0616580
  H        0.9974690    -2.0891180    -1.1576180
  H        1.1650960    -0.0456930     1.7889680
  H        2.8821530     0.3846540     1.5322680
  H       -2.2754030     1.8777800     0.5574090
  H       -1.1609050    -2.8458310    -0.4446670
  H       -0.7945500     3.4046450    -0.1790500
  H       -0.5037450     2.6486950    -1.7485080
  H        0.8332190     3.4662990    -0.8854880
  H       -4.0517820     0.1644530     0.6082680
  H       -3.5008180    -2.2099170     0.0672390
units angstrom
no_reorient  #important for SAPT in psi4, default
symmetry c1  #important for SAPT in psi4, default
}

set PROPERTIES_ORIGIN ["COM"]
properties('MP2/aug-cc-pvtz', properties = ['dipole'])
--------------------------------------------------------------------------

    Molecular point group: c1
  Charge       = 0
  Multiplicity = 1
  Basis Set: AUG-CC-PVTZ
    Blend: AUG-CC-PVTZ
  Basis Set: (AUG-CC-PVTZ AUX)
    Blend: AUG-CC-PVTZ-JKFIT

    Orbital Energies [Eh]
    ---------------------

    Doubly Occupied:

       1A    -20.530156     2A    -15.607373     3A    -15.572927
       4A    -11.363146     5A    -11.313397     6A    -11.298507
       7A    -11.267308     8A    -11.265689     9A    -11.264547
      10A    -11.264416    11A    -11.257730    12A    -11.253001
      13A    -11.233704    14A     -1.389146    15A     -1.271966
      16A     -1.211792    17A     -1.162265    18A     -1.058905
      19A     -1.036490    20A     -1.011678    21A     -0.962603
      22A     -0.882542    23A     -0.857369    24A     -0.798461
      25A     -0.761340    26A     -0.728335    27A     -0.695909
      28A     -0.675206    29A     -0.657709    30A     -0.639989
      31A     -0.627444    32A     -0.618958    33A     -0.604555
      34A     -0.587800    35A     -0.572453    36A     -0.558556
      37A     -0.546776    38A     -0.535196    39A     -0.525925
      40A     -0.517515    41A     -0.451153    42A     -0.444214
      43A     -0.422279    44A     -0.393543    45A     -0.354748
      46A     -0.330636

  @DF-RHF Final Energy:  -568.43819735358352

   => Energetics <=

    Nuclear Repulsion Energy =            758.7328661654929647
    One-Electron Energy =               -2277.5714130445121555
    Two-Electron Energy =                 950.4003495254357858
    Total Energy =                       -568.4381973535835186
  Basis Set: (AUG-CC-PVTZ AUX)
    Blend: AUG-CC-PVTZ-RI
    Molecular point group: c1

    Geometry (in Angstrom), charge = 0, multiplicity = 1:

       Center              X                  Y                   Z               Mass
    ------------   -----------------  -----------------  -----------------  -----------------
         O            3.107824539269    -1.409898803207    -0.220163309939    15.994914619570
         N            0.866367539269    -1.211824803207    -0.595208309939    14.003074004430
         N            1.514605539269     1.504471196793     0.329317690061    14.003074004430
         C           -0.736038460731     0.546123196793     0.027883690061    12.000000000000
         C           -0.431036460731    -0.806665803207    -0.242173309939    12.000000000000
         C            0.294574539269     1.604047196793    -0.089709309939    12.000000000000
         C            1.930220939269     0.109573396793     1.130395590061    12.000000000000
         C           -2.068216460731     0.881179196793     0.331343690061    12.000000000000
         C           -1.452530460731    -1.769900803207    -0.236941309939    12.000000000000
         C            2.047254539269    -0.852888803207     0.038767690061    12.000000000000
         C           -0.098380460731     2.886903196793    -0.774860309939    12.000000000000
         C           -3.071881460731    -0.080788803207     0.356486690061    12.000000000000
         C           -2.763006460731    -1.411690803207     0.055799690061    12.000000000000
         H            0.957538539269    -2.050481803207    -1.163476309939     1.007825032230
         H            1.125165539269    -0.007056803207     1.783109690061     1.007825032230
         H            2.842222539269     0.423290196793     1.526409690061     1.007825032230
         H           -2.315333460731     1.916416196793     0.551550690061     1.007825032230
         H           -1.200835460731    -2.807194803207    -0.450525309939     1.007825032230
         H           -0.834480460731     3.443281196793    -0.184908309939     1.007825032230
         H           -0.543675460731     2.687331196793    -1.754366309939     1.007825032230
         H            0.793288539269     3.504935196793    -0.891346309939     1.007825032230
         H           -4.091712460731     0.203089196793     0.602409690061     1.007825032230
         H           -3.540748460731    -2.171280803207     0.061380690061     1.007825032230

  Basis Set: AUG-CC-PVTZ
    Blend: AUG-CC-PVTZ
  Basis Set: (AUG-CC-PVTZ AUX)
    Blend: AUG-CC-PVTZ-JKFIT
	 Reference Energy          =    -568.4381973535835186 [Eh]
	 Singles Energy            =      -0.0000000000000000 [Eh]
	 Same-Spin Energy          =      -0.6153390492984931 [Eh]
	 Opposite-Spin Energy      =      -1.8910297829209033 [Eh]
	 Correlation Energy        =      -2.5063688322193967 [Eh]
	 Total Energy              =    -570.9445661858029553 [Eh]

	 ================> DF-SCS-MP2 Energies <==================
	-----------------------------------------------------------
	 SCS Same-Spin Scale       =       0.3333333333333333 [-]
	 SCS Opposite-Spin Scale   =       1.2000000000000000 [-]
	 SCS Same-Spin Energy      =      -0.2051130164328310 [Eh]
	 SCS Opposite-Spin Energy  =      -2.2692357395050839 [Eh]
	 SCS Correlation Energy    =      -2.4743487559379149 [Eh]
	 SCS Total Energy          =    -570.9125461095214860 [Eh]
	-----------------------------------------------------------

  Dipole Moment: [D]
     X:    -5.1112      Y:    -0.1781      Z:     0.3640     Total:     5.1272

*** Psi4 exiting successfully. Buy a developer a beer!
