                               Psi4 1.3.2 release

  ==> Input File <==

--------------------------------------------------------------------------
#psi4
#
memory 32 gb

molecule  {
0 1
  O        3.1477550    -1.4485350    -0.2143050
  N        0.9062980    -1.2504610    -0.5893500
  N        1.5545360     1.4658350     0.3351760
  C       -0.6961080     0.5074870     0.0337420
  C       -0.3911060    -0.8453020    -0.2363150
  C        0.3852317     1.6545946     0.0358942
  C        1.9201190     0.2388570     1.0398190
  C       -2.0282860     0.8425430     0.3372020
  C       -1.4126000    -1.8085370    -0.2310830
  C        2.0871850    -0.8915250     0.0446260
  C       -0.0584500     2.8482670    -0.7690020
  C       -3.0319510    -0.1194250     0.3623450
  C       -2.7230760    -1.4503270     0.0616580
  H        0.9974690    -2.0891180    -1.1576180
  H        1.1650960    -0.0456930     1.7889680
  H        2.8821530     0.3846540     1.5322680
  H       -2.2754030     1.8777800     0.5574090
  H       -1.1609050    -2.8458310    -0.4446670
  H       -0.7945500     3.4046450    -0.1790500
  H       -0.5037450     2.6486950    -1.7485080
  H        0.8332190     3.4662990    -0.8854880
  H       -4.0517820     0.1644530     0.6082680
  H       -3.5008180    -2.2099170     0.0672390
units angstrom
no_reorient  #important for SAPT in psi4, default
symmetry c1  #important for SAPT in psi4, default
}

set PROPERTIES_ORIGIN ["COM"]
properties('MP2/aug-cc-pvtz', properties = ['dipole'])
--------------------------------------------------------------------------

    Molecular point group: c1
  Charge       = 0
  Multiplicity = 1
  Basis Set: AUG-CC-PVTZ
    Blend: AUG-CC-PVTZ
  Basis Set: (AUG-CC-PVTZ AUX)
    Blend: AUG-CC-PVTZ-JKFIT

    Orbital Energies [Eh]
    ---------------------

    Doubly Occupied:

       1A    -20.533831     2A    -15.606132     3A    -15.563778
       4A    -11.364430     5A    -11.310616     6A    -11.299745
       7A    -11.272891     8A    -11.266648     9A    -11.261100
      10A    -11.260842    11A    -11.255910    12A    -11.250373
      13A    -11.234007    14A     -1.388833    15A     -1.282842
      16A     -1.251267    17A     -1.160026    18A     -1.056942
      19A     -1.034130    20A     -1.011739    21A     -0.962216
      22A     -0.874314    23A     -0.854299    24A     -0.793601
      25A     -0.762005    26A     -0.725201    27A     -0.693184
      28A     -0.680933    29A     -0.652900    30A     -0.647180
      31A     -0.626010    32A     -0.624178    33A     -0.605944
      34A     -0.585783    35A     -0.566974    36A     -0.556265
      37A     -0.553850    38A     -0.533675    39A     -0.527609
      40A     -0.510807    41A     -0.465778    42A     -0.443810
      43A     -0.420598    44A     -0.401657    45A     -0.355434
      46A     -0.329766

  @DF-RHF Final Energy:  -568.45500072725736

   => Energetics <=

    Nuclear Repulsion Energy =            759.8836198040493173
    One-Electron Energy =               -2279.8371295773049496
    Two-Electron Energy =                 951.4985090459981620
    Total Energy =                       -568.4550007272573566
  Basis Set: (AUG-CC-PVTZ AUX)
    Blend: AUG-CC-PVTZ-RI
    Molecular point group: c1

    Geometry (in Angstrom), charge = 0, multiplicity = 1:

       Center              X                  Y                   Z               Mass
    ------------   -----------------  -----------------  -----------------  -----------------
         O            3.107776678326    -1.427621993560    -0.221770184388    15.994914619570
         N            0.866319678326    -1.229547993560    -0.596815184388    14.003074004430
         N            1.514557678326     1.486748006440     0.327710815612    14.003074004430
         C           -0.736086321674     0.528400006440     0.026276815612    12.000000000000
         C           -0.431084321674    -0.824388993560    -0.243780184388    12.000000000000
         C            0.345253378326     1.675507606440     0.028429015612    12.000000000000
         C            1.880140678326     0.259770006440     1.032353815612    12.000000000000
         C           -2.068264321674     0.863456006440     0.329736815612    12.000000000000
         C           -1.452578321674    -1.787623993560    -0.238548184388    12.000000000000
         C            2.047206678326    -0.870611993560     0.037160815612    12.000000000000
         C           -0.098428321674     2.869180006440    -0.776467184388    12.000000000000
         C           -3.071929321674    -0.098511993560     0.354879815612    12.000000000000
         C           -2.763054321674    -1.429413993560     0.054192815612    12.000000000000
         H            0.957490678326    -2.068204993560    -1.165083184388     1.007825032230
         H            1.125117678326    -0.024779993560     1.781502815612     1.007825032230
         H            2.842174678326     0.405567006440     1.524802815612     1.007825032230
         H           -2.315381321674     1.898693006440     0.549943815612     1.007825032230
         H           -1.200883321674    -2.824917993560    -0.452132184388     1.007825032230
         H           -0.834528321674     3.425558006440    -0.186515184388     1.007825032230
         H           -0.543723321674     2.669608006440    -1.755973184388     1.007825032230
         H            0.793240678326     3.487212006440    -0.892953184388     1.007825032230
         H           -4.091760321674     0.185366006440     0.600802815612     1.007825032230
         H           -3.540796321674    -2.189003993560     0.059773815612     1.007825032230

  Basis Set: AUG-CC-PVTZ
    Blend: AUG-CC-PVTZ
  Basis Set: (AUG-CC-PVTZ AUX)
    Blend: AUG-CC-PVTZ-JKFIT
	 Reference Energy          =    -568.4550007272573566 [Eh]
	 Singles Energy            =      -0.0000000000000000 [Eh]
	 Same-Spin Energy          =      -0.6127354379650850 [Eh]
	 Opposite-Spin Energy      =      -1.8845230514809670 [Eh]
	 Correlation Energy        =      -2.4972584894460521 [Eh]
	 Total Energy              =    -570.9522592167033963 [Eh]

	 ================> DF-SCS-MP2 Energies <==================
	-----------------------------------------------------------
	 SCS Same-Spin Scale       =       0.3333333333333333 [-]
	 SCS Opposite-Spin Scale   =       1.2000000000000000 [-]
	 SCS Same-Spin Energy      =      -0.2042451459883617 [Eh]
	 SCS Opposite-Spin Energy  =      -2.2614276617771605 [Eh]
	 SCS Correlation Energy    =      -2.4656728077655221 [Eh]
	 SCS Total Energy          =    -570.9206735350228428 [Eh]
	-----------------------------------------------------------

  Dipole Moment: [D]
     X:    -4.8229      Y:    -0.0764      Z:     0.2823     Total:     4.8318

*** Psi4 exiting successfully. Buy a developer a beer!
