                               Psi4 1.3.2 release

  ==> Input File <==

--------------------------------------------------------------------------
#psi4
#
memory 32 gb

molecule  {
0 1
  O        3.1477550    -1.4485350    -0.2143050
  N        0.9062980    -1.2504610    -0.5893500
  N        1.5545360     1.4658350     0.3351760
  C       -0.6961080     0.5074870     0.0337420
  C       -0.3911060    -0.8453020    -0.2363150
  C        0.3345050     1.5654110    -0.0838510
  C        1.9201190     0.2388570     1.0398190
  C       -2.0282860     0.8425430     0.3372020
  C       -1.4126000    -1.8085370    -0.2310830
  C        2.1288693    -0.9684805     0.0031541
  C       -0.0584500     2.8482670    -0.7690020
  C       -3.0319510    -0.1194250     0.3623450
  C       -2.7230760    -1.4503270     0.0616580
  H        0.9974690    -2.0891180    -1.1576180
  H        1.1650960    -0.0456930     1.7889680
  H        2.8821530     0.3846540     1.5322680
  H       -2.2754030     1.8777800     0.5574090
  H       -1.1609050    -2.8458310    -0.4446670
  H       -0.7945500     3.4046450    -0.1790500
  H       -0.5037450     2.6486950    -1.7485080
  H        0.8332190     3.4662990    -0.8854880
  H       -4.0517820     0.1644530     0.6082680
  H       -3.5008180    -2.2099170     0.0672390
units angstrom
no_reorient  #important for SAPT in psi4, default
symmetry c1  #important for SAPT in psi4, default
}

set PROPERTIES_ORIGIN ["COM"]
properties('MP2/aug-cc-pvtz', properties = ['dipole'])
--------------------------------------------------------------------------

    Molecular point group: c1
  Charge       = 0
  Multiplicity = 1
  Basis Set: AUG-CC-PVTZ
    Blend: AUG-CC-PVTZ
  Basis Set: (AUG-CC-PVTZ AUX)
    Blend: AUG-CC-PVTZ-JKFIT

    Orbital Energies [Eh]
    ---------------------

    Doubly Occupied:

       1A    -20.543713     2A    -15.602388     3A    -15.562622
       4A    -11.357709     5A    -11.313609     6A    -11.296863
       7A    -11.264199     8A    -11.263208     9A    -11.263035
      10A    -11.260912    11A    -11.256747    12A    -11.251925
      13A    -11.230985    14A     -1.441641    15A     -1.277859
      16A     -1.227955    17A     -1.162711    18A     -1.059930
      19A     -1.032339    20A     -1.005651    21A     -0.935473
      22A     -0.883105    23A     -0.858033    24A     -0.789929
      25A     -0.763312    26A     -0.726655    27A     -0.691240
      28A     -0.681905    29A     -0.656353    30A     -0.647252
      31A     -0.630896    32A     -0.620927    33A     -0.603234
      34A     -0.587749    35A     -0.580902    36A     -0.556045
      37A     -0.541017    38A     -0.537670    39A     -0.531837
      40A     -0.512028    41A     -0.463253    42A     -0.454026
      43A     -0.412414    44A     -0.393069    45A     -0.349932
      46A     -0.331678

  @DF-RHF Final Energy:  -568.45768091644163

   => Energetics <=

    Nuclear Repulsion Energy =            760.3621675137607099
    One-Electron Energy =               -2280.8078290644002664
    Two-Electron Energy =                 951.9879806341980384
    Total Energy =                       -568.4576809164416318
  Basis Set: (AUG-CC-PVTZ AUX)
    Blend: AUG-CC-PVTZ-RI
    Molecular point group: c1

    Geometry (in Angstrom), charge = 0, multiplicity = 1:

       Center              X                  Y                   Z               Mass
    ------------   -----------------  -----------------  -----------------  -----------------
         O            3.108400007992    -1.416169344959    -0.210656829405    15.994914619570
         N            0.866943007992    -1.218095344959    -0.585701829405    14.003074004430
         N            1.515181007992     1.498200655041     0.338824170595    14.003074004430
         C           -0.735462992008     0.539852655041     0.037390170595    12.000000000000
         C           -0.430460992008    -0.812936344959    -0.232666829405    12.000000000000
         C            0.295150007992     1.597776655041    -0.080202829405    12.000000000000
         C            1.880764007992     0.271222655041     1.043467170595    12.000000000000
         C           -2.067640992008     0.874908655041     0.340850170595    12.000000000000
         C           -1.451954992008    -1.776171344959    -0.227434829405    12.000000000000
         C            2.089514307992    -0.936114844959     0.006802270595    12.000000000000
         C           -0.097804992008     2.880632655041    -0.765353829405    12.000000000000
         C           -3.071305992008    -0.087059344959     0.365993170595    12.000000000000
         C           -2.762430992008    -1.417961344959     0.065306170595    12.000000000000
         H            0.958114007992    -2.056752344959    -1.153969829405     1.007825032230
         H            1.125741007992    -0.013327344959     1.792616170595     1.007825032230
         H            2.842798007992     0.417019655041     1.535916170595     1.007825032230
         H           -2.314757992008     1.910145655041     0.561057170595     1.007825032230
         H           -1.200259992008    -2.813465344959    -0.441018829405     1.007825032230
         H           -0.833904992008     3.437010655041    -0.175401829405     1.007825032230
         H           -0.543099992008     2.681060655041    -1.744859829405     1.007825032230
         H            0.793864007992     3.498664655041    -0.881839829405     1.007825032230
         H           -4.091136992008     0.196818655041     0.611916170595     1.007825032230
         H           -3.540172992008    -2.177551344959     0.070887170595     1.007825032230

  Basis Set: AUG-CC-PVTZ
    Blend: AUG-CC-PVTZ
  Basis Set: (AUG-CC-PVTZ AUX)
    Blend: AUG-CC-PVTZ-JKFIT
	 Reference Energy          =    -568.4576809164416318 [Eh]
	 Singles Energy            =      -0.0000000000000000 [Eh]
	 Same-Spin Energy          =      -0.6129913752767195 [Eh]
	 Opposite-Spin Energy      =      -1.8841051659089003 [Eh]
	 Correlation Energy        =      -2.4970965411856199 [Eh]
	 Total Energy              =    -570.9547774576273014 [Eh]

	 ================> DF-SCS-MP2 Energies <==================
	-----------------------------------------------------------
	 SCS Same-Spin Scale       =       0.3333333333333333 [-]
	 SCS Opposite-Spin Scale   =       1.2000000000000000 [-]
	 SCS Same-Spin Energy      =      -0.2043304584255732 [Eh]
	 SCS Opposite-Spin Energy  =      -2.2609261990906804 [Eh]
	 SCS Correlation Energy    =      -2.4652566575162536 [Eh]
	 SCS Total Energy          =    -570.9229375739579382 [Eh]
	-----------------------------------------------------------

  Dipole Moment: [D]
     X:    -4.6220      Y:    -0.6512      Z:     0.0609     Total:     4.6680

*** Psi4 exiting successfully. Buy a developer a beer!
