                               Psi4 1.3.2 release

  ==> Input File <==

--------------------------------------------------------------------------
#psi4
#
memory 32 gb

molecule  {
0 1
  O        3.1477550    -1.4485350    -0.2143050
  N        0.9062980    -1.2504610    -0.5893500
  N        1.5545360     1.4658350     0.3351760
  C       -0.6961080     0.5074870     0.0337420
  C       -0.3911060    -0.8453020    -0.2363150
  C        0.3345050     1.5654110    -0.0838510
  C        1.9201190     0.2388570     1.0398190
  C       -2.0282860     0.8425430     0.3372020
  C       -1.4126000    -1.8085370    -0.2310830
  C        2.0981539    -0.9106145     0.0345400
  C       -0.0584500     2.8482670    -0.7690020
  C       -3.0319510    -0.1194250     0.3623450
  C       -2.7230760    -1.4503270     0.0616580
  H        0.9974690    -2.0891180    -1.1576180
  H        1.1650960    -0.0456930     1.7889680
  H        2.8821530     0.3846540     1.5322680
  H       -2.2754030     1.8777800     0.5574090
  H       -1.1609050    -2.8458310    -0.4446670
  H       -0.7945500     3.4046450    -0.1790500
  H       -0.5037450     2.6486950    -1.7485080
  H        0.8332190     3.4662990    -0.8854880
  H       -4.0517820     0.1644530     0.6082680
  H       -3.5008180    -2.2099170     0.0672390
units angstrom
no_reorient  #important for SAPT in psi4, default
symmetry c1  #important for SAPT in psi4, default
}

set PROPERTIES_ORIGIN ["COM"]
properties('MP2/aug-cc-pvtz', properties = ['dipole'])
--------------------------------------------------------------------------

    Molecular point group: c1
  Charge       = 0
  Multiplicity = 1
  Basis Set: AUG-CC-PVTZ
    Blend: AUG-CC-PVTZ
  Basis Set: (AUG-CC-PVTZ AUX)
    Blend: AUG-CC-PVTZ-JKFIT

    Orbital Energies [Eh]
    ---------------------

    Doubly Occupied:

       1A    -20.535046     2A    -15.605667     3A    -15.565933
       4A    -11.361197     5A    -11.314184     6A    -11.301087
       7A    -11.266165     8A    -11.265903     9A    -11.264986
      10A    -11.264883    11A    -11.257857    12A    -11.253284
      13A    -11.233433    14A     -1.399987    15A     -1.276918
      16A     -1.231670    17A     -1.164099    18A     -1.064008
      19A     -1.034356    20A     -1.009795    21A     -0.947714
      22A     -0.885011    23A     -0.858033    24A     -0.793953
      25A     -0.766916    26A     -0.728234    27A     -0.690823
      28A     -0.677947    29A     -0.657052    30A     -0.647909
      31A     -0.626805    32A     -0.619193    33A     -0.604867
      34A     -0.586335    35A     -0.569880    36A     -0.558121
      37A     -0.542834    38A     -0.538479    39A     -0.529662
      40A     -0.514672    41A     -0.459739    42A     -0.447417
      43A     -0.416350    44A     -0.402826    45A     -0.353885
      46A     -0.332098

  @DF-RHF Final Energy:  -568.46652399445543

   => Energetics <=

    Nuclear Repulsion Energy =            760.6264340953968031
    One-Electron Energy =               -2281.3314876272743277
    Two-Electron Energy =                 952.2385295374222096
    Total Energy =                       -568.4665239944554287
  Basis Set: (AUG-CC-PVTZ AUX)
    Blend: AUG-CC-PVTZ-RI
    Molecular point group: c1

    Geometry (in Angstrom), charge = 0, multiplicity = 1:

       Center              X                  Y                   Z               Mass
    ------------   -----------------  -----------------  -----------------  -----------------
         O            3.110517346312    -1.420158285335    -0.212820388036    15.994914619570
         N            0.869060346312    -1.222084285335    -0.587865388036    14.003074004430
         N            1.517298346312     1.494211714665     0.336660611964    14.003074004430
         C           -0.733345653688     0.535863714665     0.035226611964    12.000000000000
         C           -0.428343653688    -0.816925285335    -0.234830388036    12.000000000000
         C            0.297267346312     1.593787714665    -0.082366388036    12.000000000000
         C            1.882881346312     0.267233714665     1.041303611964    12.000000000000
         C           -2.065523653688     0.870919714665     0.338686611964    12.000000000000
         C           -1.449837653688    -1.780160285335    -0.229598388036    12.000000000000
         C            2.060916246312    -0.882237785335     0.036024611964    12.000000000000
         C           -0.095687653688     2.876643714665    -0.767517388036    12.000000000000
         C           -3.069188653688    -0.091048285335     0.363829611964    12.000000000000
         C           -2.760313653688    -1.421950285335     0.063142611964    12.000000000000
         H            0.960231346312    -2.060741285335    -1.156133388036     1.007825032230
         H            1.127858346312    -0.017316285335     1.790452611964     1.007825032230
         H            2.844915346312     0.413030714665     1.533752611964     1.007825032230
         H           -2.312640653688     1.906156714665     0.558893611964     1.007825032230
         H           -1.198142653688    -2.817454285335    -0.443182388036     1.007825032230
         H           -0.831787653688     3.433021714665    -0.177565388036     1.007825032230
         H           -0.540982653688     2.677071714665    -1.747023388036     1.007825032230
         H            0.795981346312     3.494675714665    -0.884003388036     1.007825032230
         H           -4.089019653688     0.192829714665     0.609752611964     1.007825032230
         H           -3.538055653688    -2.181540285335     0.068723611964     1.007825032230

  Basis Set: AUG-CC-PVTZ
    Blend: AUG-CC-PVTZ
  Basis Set: (AUG-CC-PVTZ AUX)
    Blend: AUG-CC-PVTZ-JKFIT
	 Reference Energy          =    -568.4665239944554287 [Eh]
	 Singles Energy            =      -0.0000000000000000 [Eh]
	 Same-Spin Energy          =      -0.6139862321183789 [Eh]
	 Opposite-Spin Energy      =      -1.8862317175804761 [Eh]
	 Correlation Energy        =      -2.5002179496988548 [Eh]
	 Total Energy              =    -570.9667419441542506 [Eh]

	 ================> DF-SCS-MP2 Energies <==================
	-----------------------------------------------------------
	 SCS Same-Spin Scale       =       0.3333333333333333 [-]
	 SCS Opposite-Spin Scale   =       1.2000000000000000 [-]
	 SCS Same-Spin Energy      =      -0.2046620773727930 [Eh]
	 SCS Opposite-Spin Energy  =      -2.2634780610965715 [Eh]
	 SCS Correlation Energy    =      -2.4681401384693644 [Eh]
	 SCS Total Energy          =    -570.9346641329248087 [Eh]
	-----------------------------------------------------------

  Dipole Moment: [D]
     X:    -4.9950      Y:    -0.3363      Z:     0.1909     Total:     5.0100

*** Psi4 exiting successfully. Buy a developer a beer!
