                               Psi4 1.3.2 release

  ==> Input File <==

--------------------------------------------------------------------------
#psi4
#
memory 32 gb

molecule  {
0 1
  O        3.1477550    -1.4485350    -0.2143050
  N        0.9062980    -1.2504610    -0.5893500
  N        1.5545360     1.4658350     0.3351760
  C       -0.6961080     0.5074870     0.0337420
  C       -0.3911060    -0.8453020    -0.2363150
  C        0.3345050     1.5654110    -0.0838510
  C        1.9201190     0.2388570     1.0398190
  C       -2.0282860     0.8425430     0.3372020
  C       -1.4126000    -1.8085370    -0.2310830
  C        2.0871850    -0.8915250     0.0446260
  C       -0.0584500     2.8482670    -0.7690020
  C       -3.0319510    -0.1194250     0.3623450
  C       -2.7230760    -1.4503270     0.0616580
  H        0.9974690    -2.0891180    -1.1576180
  H        1.2202168    -0.0411053     1.8423218
  H        2.8821530     0.3846540     1.5322680
  H       -2.2754030     1.8777800     0.5574090
  H       -1.1609050    -2.8458310    -0.4446670
  H       -0.7945500     3.4046450    -0.1790500
  H       -0.5037450     2.6486950    -1.7485080
  H        0.8332190     3.4662990    -0.8854880
  H       -4.0517820     0.1644530     0.6082680
  H       -3.5008180    -2.2099170     0.0672390
units angstrom
no_reorient  #important for SAPT in psi4, default
symmetry c1  #important for SAPT in psi4, default
}

set PROPERTIES_ORIGIN ["COM"]
properties('MP2/aug-cc-pvtz', properties = ['dipole'])
--------------------------------------------------------------------------

    Molecular point group: c1
  Charge       = 0
  Multiplicity = 1
  Basis Set: AUG-CC-PVTZ
    Blend: AUG-CC-PVTZ
  Basis Set: (AUG-CC-PVTZ AUX)
    Blend: AUG-CC-PVTZ-JKFIT

    Orbital Energies [Eh]
    ---------------------

    Doubly Occupied:

       1A    -20.532424     2A    -15.606947     3A    -15.567379
       4A    -11.363072     5A    -11.314217     6A    -11.302856
       7A    -11.266658     8A    -11.266643     9A    -11.265490
      10A    -11.265208    11A    -11.258057    12A    -11.253549
      13A    -11.234382    14A     -1.387540    15A     -1.275782
      16A     -1.232794    17A     -1.164331    18A     -1.065415
      19A     -1.035012    20A     -1.011008    21A     -0.951864
      22A     -0.885668    23A     -0.857854    24A     -0.796078
      25A     -0.767923    26A     -0.729260    27A     -0.691512
      28A     -0.677259    29A     -0.657190    30A     -0.648890
      31A     -0.626106    32A     -0.617347    33A     -0.604823
      34A     -0.586523    35A     -0.567044    36A     -0.558764
      37A     -0.543962    38A     -0.537027    39A     -0.527593
      40A     -0.514121    41A     -0.457665    42A     -0.444423
      43A     -0.418584    44A     -0.405545    45A     -0.354844
      46A     -0.331957

  @DF-RHF Final Energy:  -568.46507656805863

   => Energetics <=

    Nuclear Repulsion Energy =            760.5206908717361785
    One-Electron Energy =               -2281.1143538219143920
    Two-Electron Energy =                 952.1285863821195790
    Total Energy =                       -568.4650765680586346
  Basis Set: (AUG-CC-PVTZ AUX)
    Blend: AUG-CC-PVTZ-RI
    Molecular point group: c1

    Geometry (in Angstrom), charge = 0, multiplicity = 1:

       Center              X                  Y                   Z               Mass
    ------------   -----------------  -----------------  -----------------  -----------------
         O            3.110954357905    -1.421500763053    -0.213824546957    15.994914619570
         N            0.869497357905    -1.223426763053    -0.588869546957    14.003074004430
         N            1.517735357905     1.492869236947     0.335656453043    14.003074004430
         C           -0.732908642095     0.534521236947     0.034222453043    12.000000000000
         C           -0.427906642095    -0.818267763053    -0.235834546957    12.000000000000
         C            0.297704357905     1.592445236947    -0.083370546957    12.000000000000
         C            1.883318357905     0.265891236947     1.040299453043    12.000000000000
         C           -2.065086642095     0.869577236947     0.337682453043    12.000000000000
         C           -1.449400642095    -1.781502763053    -0.230602546957    12.000000000000
         C            2.050384357905    -0.864490763053     0.045106453043    12.000000000000
         C           -0.095250642095     2.875301236947    -0.768521546957    12.000000000000
         C           -3.068751642095    -0.092390763053     0.362825453043    12.000000000000
         C           -2.759876642095    -1.423292763053     0.062138453043    12.000000000000
         H            0.960668357905    -2.062083763053    -1.157137546957     1.007825032230
         H            1.183416157905    -0.014071063053     1.842802253043     1.007825032230
         H            2.845352357905     0.411688236947     1.532748453043     1.007825032230
         H           -2.312203642095     1.904814236947     0.557889453043     1.007825032230
         H           -1.197705642095    -2.818796763053    -0.444186546957     1.007825032230
         H           -0.831350642095     3.431679236947    -0.178569546957     1.007825032230
         H           -0.540545642095     2.675729236947    -1.748027546957     1.007825032230
         H            0.796418357905     3.493333236947    -0.885007546957     1.007825032230
         H           -4.088582642095     0.191487236947     0.608748453043     1.007825032230
         H           -3.537618642095    -2.182882763053     0.067719453043     1.007825032230

  Basis Set: AUG-CC-PVTZ
    Blend: AUG-CC-PVTZ
  Basis Set: (AUG-CC-PVTZ AUX)
    Blend: AUG-CC-PVTZ-JKFIT
	 Reference Energy          =    -568.4650765680586346 [Eh]
	 Singles Energy            =      -0.0000000000000000 [Eh]
	 Same-Spin Energy          =      -0.6143344487971418 [Eh]
	 Opposite-Spin Energy      =      -1.8870450149796283 [Eh]
	 Correlation Energy        =      -2.5013794637767699 [Eh]
	 Total Energy              =    -570.9664560318353779 [Eh]

	 ================> DF-SCS-MP2 Energies <==================
	-----------------------------------------------------------
	 SCS Same-Spin Scale       =       0.3333333333333333 [-]
	 SCS Opposite-Spin Scale   =       1.2000000000000000 [-]
	 SCS Same-Spin Energy      =      -0.2047781495990473 [Eh]
	 SCS Opposite-Spin Energy  =      -2.2644540179755537 [Eh]
	 SCS Correlation Energy    =      -2.4692321675746012 [Eh]
	 SCS Total Energy          =    -570.9343087356331807 [Eh]
	-----------------------------------------------------------

  Dipole Moment: [D]
     X:    -5.0965      Y:    -0.2312      Z:     0.2528     Total:     5.1080

*** Psi4 exiting successfully. Buy a developer a beer!
