                               Psi4 1.3.2 release

  ==> Input File <==

--------------------------------------------------------------------------
#psi4
#
memory 32 gb

molecule  {
0 1
  O        3.1477550    -1.4485350    -0.2143050
  N        0.9062980    -1.2504610    -0.5893500
  N        1.5526230     1.5129651     0.4256180
  C       -0.6961080     0.5074870     0.0337420
  C       -0.3911060    -0.8453020    -0.2363150
  C        0.3345050     1.5654110    -0.0838510
  C        1.9201190     0.2388570     1.0398190
  C       -2.0282860     0.8425430     0.3372020
  C       -1.4126000    -1.8085370    -0.2310830
  C        2.0871850    -0.8915250     0.0446260
  C       -0.0584500     2.8482670    -0.7690020
  C       -3.0319510    -0.1194250     0.3623450
  C       -2.7230760    -1.4503270     0.0616580
  H        0.9974690    -2.0891180    -1.1576180
  H        1.1650960    -0.0456930     1.7889680
  H        2.8821530     0.3846540     1.5322680
  H       -2.2754030     1.8777800     0.5574090
  H       -1.1609050    -2.8458310    -0.4446670
  H       -0.7945500     3.4046450    -0.1790500
  H       -0.5037450     2.6486950    -1.7485080
  H        0.8332190     3.4662990    -0.8854880
  H       -4.0517820     0.1644530     0.6082680
  H       -3.5008180    -2.2099170     0.0672390
units angstrom
no_reorient  #important for SAPT in psi4, default
symmetry c1  #important for SAPT in psi4, default
}

set PROPERTIES_ORIGIN ["COM"]
properties('MP2/aug-cc-pvtz', properties = ['dipole'])
--------------------------------------------------------------------------

    Molecular point group: c1
  Charge       = 0
  Multiplicity = 1
  Basis Set: AUG-CC-PVTZ
    Blend: AUG-CC-PVTZ
  Basis Set: (AUG-CC-PVTZ AUX)
    Blend: AUG-CC-PVTZ-JKFIT

    Orbital Energies [Eh]
    ---------------------

    Doubly Occupied:

       1A    -20.533678     2A    -15.607760     3A    -15.571021
       4A    -11.363931     5A    -11.315077     6A    -11.307225
       7A    -11.268396     8A    -11.267185     9A    -11.266103
      10A    -11.265125    11A    -11.258874    12A    -11.254657
      13A    -11.235217    14A     -1.388383    15A     -1.274682
      16A     -1.226408    17A     -1.165205    18A     -1.066474
      19A     -1.035422    20A     -1.010925    21A     -0.949211
      22A     -0.887184    23A     -0.858962    24A     -0.795484
      25A     -0.770324    26A     -0.729027    27A     -0.691537
      28A     -0.675194    29A     -0.658296    30A     -0.646357
      31A     -0.626857    32A     -0.617204    33A     -0.605786
      34A     -0.587024    35A     -0.567135    36A     -0.559514
      37A     -0.543273    38A     -0.536967    39A     -0.527795
      40A     -0.514022    41A     -0.458586    42A     -0.445271
      43A     -0.416507    44A     -0.406035    45A     -0.354704
      46A     -0.332656

  @DF-RHF Final Energy:  -568.46009558712876

   => Energetics <=

    Nuclear Repulsion Energy =            759.4213763110274158
    One-Electron Energy =               -2278.8776249562106386
    Two-Electron Energy =                 950.9961530580544604
    Total Energy =                       -568.4600955871287624
  Basis Set: (AUG-CC-PVTZ AUX)
    Blend: AUG-CC-PVTZ-RI
    Molecular point group: c1

    Geometry (in Angstrom), charge = 0, multiplicity = 1:

       Center              X                  Y                   Z               Mass
    ------------   -----------------  -----------------  -----------------  -----------------
         O            3.111427360706    -1.425265384295    -0.220790881460    15.994914619570
         N            0.869970360706    -1.227191384295    -0.595835881460    14.003074004430
         N            1.516295360706     1.536234715705     0.419132118540    14.003074004430
         C           -0.732435639294     0.530756615705     0.027256118540    12.000000000000
         C           -0.427433639294    -0.822032384295    -0.242800881460    12.000000000000
         C            0.298177360706     1.588680615705    -0.090336881460    12.000000000000
         C            1.883791360706     0.262126615705     1.033333118540    12.000000000000
         C           -2.064613639294     0.865812615705     0.330716118540    12.000000000000
         C           -1.448927639294    -1.785267384295    -0.237568881460    12.000000000000
         C            2.050857360706    -0.868255384295     0.038140118540    12.000000000000
         C           -0.094777639294     2.871536615705    -0.775487881460    12.000000000000
         C           -3.068278639294    -0.096155384295     0.355859118540    12.000000000000
         C           -2.759403639294    -1.427057384295     0.055172118540    12.000000000000
         H            0.961141360706    -2.065848384295    -1.164103881460     1.007825032230
         H            1.128768360706    -0.022423384295     1.782482118540     1.007825032230
         H            2.845825360706     0.407923615705     1.525782118540     1.007825032230
         H           -2.311730639294     1.901049615705     0.550923118540     1.007825032230
         H           -1.197232639294    -2.822561384295    -0.451152881460     1.007825032230
         H           -0.830877639294     3.427914615705    -0.185535881460     1.007825032230
         H           -0.540072639294     2.671964615705    -1.754993881460     1.007825032230
         H            0.796891360706     3.489568615705    -0.891973881460     1.007825032230
         H           -4.088109639294     0.187722615705     0.601782118540     1.007825032230
         H           -3.537145639294    -2.186647384295     0.060753118540     1.007825032230

  Basis Set: AUG-CC-PVTZ
    Blend: AUG-CC-PVTZ
  Basis Set: (AUG-CC-PVTZ AUX)
    Blend: AUG-CC-PVTZ-JKFIT
	 Reference Energy          =    -568.4600955871287624 [Eh]
	 Singles Energy            =      -0.0000000000000000 [Eh]
	 Same-Spin Energy          =      -0.6150216288666968 [Eh]
	 Opposite-Spin Energy      =      -1.8889245085496538 [Eh]
	 Correlation Energy        =      -2.5039461374163503 [Eh]
	 Total Energy              =    -570.9640417245451545 [Eh]

	 ================> DF-SCS-MP2 Energies <==================
	-----------------------------------------------------------
	 SCS Same-Spin Scale       =       0.3333333333333333 [-]
	 SCS Opposite-Spin Scale   =       1.2000000000000000 [-]
	 SCS Same-Spin Energy      =      -0.2050072096222322 [Eh]
	 SCS Opposite-Spin Energy  =      -2.2667094102595846 [Eh]
	 SCS Correlation Energy    =      -2.4717166198818168 [Eh]
	 SCS Total Energy          =    -570.9318122070105801 [Eh]
	-----------------------------------------------------------

  Dipole Moment: [D]
     X:    -5.1404      Y:    -0.3118      Z:     0.0652     Total:     5.1502

*** Psi4 exiting successfully. Buy a developer a beer!
