                               Psi4 1.3.2 release

  ==> Input File <==

--------------------------------------------------------------------------
#psi4
#
memory 32 gb

molecule  {
0 1
  O        3.1477550    -1.4485350    -0.2143050
  N        0.9352613    -1.1578336    -0.5756059
  N        1.5545360     1.4658350     0.3351760
  C       -0.6961080     0.5074870     0.0337420
  C       -0.3911060    -0.8453020    -0.2363150
  C        0.3345050     1.5654110    -0.0838510
  C        1.9201190     0.2388570     1.0398190
  C       -2.0282860     0.8425430     0.3372020
  C       -1.4126000    -1.8085370    -0.2310830
  C        2.0871850    -0.8915250     0.0446260
  C       -0.0584500     2.8482670    -0.7690020
  C       -3.0319510    -0.1194250     0.3623450
  C       -2.7230760    -1.4503270     0.0616580
  H        0.9974690    -2.0891180    -1.1576180
  H        1.1650960    -0.0456930     1.7889680
  H        2.8821530     0.3846540     1.5322680
  H       -2.2754030     1.8777800     0.5574090
  H       -1.1609050    -2.8458310    -0.4446670
  H       -0.7945500     3.4046450    -0.1790500
  H       -0.5037450     2.6486950    -1.7485080
  H        0.8332190     3.4662990    -0.8854880
  H       -4.0517820     0.1644530     0.6082680
  H       -3.5008180    -2.2099170     0.0672390
units angstrom
no_reorient  #important for SAPT in psi4, default
symmetry c1  #important for SAPT in psi4, default
}

set PROPERTIES_ORIGIN ["COM"]
properties('MP2/aug-cc-pvtz', properties = ['dipole'])
--------------------------------------------------------------------------

    Molecular point group: c1
  Charge       = 0
  Multiplicity = 1
  Basis Set: AUG-CC-PVTZ
    Blend: AUG-CC-PVTZ
  Basis Set: (AUG-CC-PVTZ AUX)
    Blend: AUG-CC-PVTZ-JKFIT

    Orbital Energies [Eh]
    ---------------------

    Doubly Occupied:

       1A    -20.526803     2A    -15.614940     3A    -15.566715
       4A    -11.356376     5A    -11.316951     6A    -11.301427
       7A    -11.267982     8A    -11.267373     9A    -11.266045
      10A    -11.263024    11A    -11.262865    12A    -11.256117
      13A    -11.233966    14A     -1.387903    15A     -1.281208
      16A     -1.231538    17A     -1.168231    18A     -1.066796
      19A     -1.040248    20A     -1.010326    21A     -0.949871
      22A     -0.888894    23A     -0.863845    24A     -0.794767
      25A     -0.765387    26A     -0.724252    27A     -0.692737
      28A     -0.676327    29A     -0.660934    30A     -0.645404
      31A     -0.627555    32A     -0.618447    33A     -0.594741
      34A     -0.586247    35A     -0.568758    36A     -0.559468
      37A     -0.543863    38A     -0.538962    39A     -0.528895
      40A     -0.512911    41A     -0.456731    42A     -0.444043
      43A     -0.417140    44A     -0.403230    45A     -0.355897
      46A     -0.336194

  @DF-RHF Final Energy:  -568.45317457407782

   => Energetics <=

    Nuclear Repulsion Energy =            762.2039332655728003
    One-Electron Energy =               -2284.4295405025550281
    Two-Electron Energy =                 953.7724326629045208
    Total Energy =                       -568.4531745740778206
  Basis Set: (AUG-CC-PVTZ AUX)
    Blend: AUG-CC-PVTZ-RI
    Molecular point group: c1

    Geometry (in Angstrom), charge = 0, multiplicity = 1:

       Center              X                  Y                   Z               Mass
    ------------   -----------------  -----------------  -----------------  -----------------
         O            3.108943647354    -1.428925222147    -0.214621243313    15.994914619570
         N            0.896449947354    -1.138223822147    -0.575922143313    14.003074004430
         N            1.515724647354     1.485444777853     0.334859756687    14.003074004430
         C           -0.734919352646     0.527096777853     0.033425756687    12.000000000000
         C           -0.429917352646    -0.825692222147    -0.236631243313    12.000000000000
         C            0.295693647354     1.585020777853    -0.084167243313    12.000000000000
         C            1.881307647354     0.258466777853     1.039502756687    12.000000000000
         C           -2.067097352646     0.862152777853     0.336885756687    12.000000000000
         C           -1.451411352646    -1.788927222147    -0.231399243313    12.000000000000
         C            2.048373647354    -0.871915222147     0.044309756687    12.000000000000
         C           -0.097261352646     2.867876777853    -0.769318243313    12.000000000000
         C           -3.070762352646    -0.099815222147     0.362028756687    12.000000000000
         C           -2.761887352646    -1.430717222147     0.061341756687    12.000000000000
         H            0.958657647354    -2.069508222147    -1.157934243313     1.007825032230
         H            1.126284647354    -0.026083222147     1.788651756687     1.007825032230
         H            2.843341647354     0.404263777853     1.531951756687     1.007825032230
         H           -2.314214352646     1.897389777853     0.557092756687     1.007825032230
         H           -1.199716352646    -2.826221222147    -0.444983243313     1.007825032230
         H           -0.833361352646     3.424254777853    -0.179366243313     1.007825032230
         H           -0.542556352646     2.668304777853    -1.748824243313     1.007825032230
         H            0.794407647354     3.485908777853    -0.885804243313     1.007825032230
         H           -4.090593352646     0.184062777853     0.607951756687     1.007825032230
         H           -3.539629352646    -2.190307222147     0.066922756687     1.007825032230

  Basis Set: AUG-CC-PVTZ
    Blend: AUG-CC-PVTZ
  Basis Set: (AUG-CC-PVTZ AUX)
    Blend: AUG-CC-PVTZ-JKFIT
	 Reference Energy          =    -568.4531745740778206 [Eh]
	 Singles Energy            =      -0.0000000000000000 [Eh]
	 Same-Spin Energy          =      -0.6156543681047740 [Eh]
	 Opposite-Spin Energy      =      -1.8891273311223420 [Eh]
	 Correlation Energy        =      -2.5047816992271161 [Eh]
	 Total Energy              =    -570.9579562733049443 [Eh]

	 ================> DF-SCS-MP2 Energies <==================
	-----------------------------------------------------------
	 SCS Same-Spin Scale       =       0.3333333333333333 [-]
	 SCS Opposite-Spin Scale   =       1.2000000000000000 [-]
	 SCS Same-Spin Energy      =      -0.2052181227015913 [Eh]
	 SCS Opposite-Spin Energy  =      -2.2669527973468102 [Eh]
	 SCS Correlation Energy    =      -2.4721709200484017 [Eh]
	 SCS Total Energy          =    -570.9253454941261907 [Eh]
	-----------------------------------------------------------

  Dipole Moment: [D]
     X:    -5.4222      Y:    -0.3086      Z:     0.2097     Total:     5.4350

*** Psi4 exiting successfully. Buy a developer a beer!
