                               Psi4 1.3.2 release

  ==> Input File <==

--------------------------------------------------------------------------
#psi4
#
memory 32 gb

molecule  {
0 1
  O        3.1477550    -1.4485350    -0.2143050
  N        0.9062980    -1.2504610    -0.5893500
  N        1.5545360     1.4658350     0.3351760
  C       -0.6961080     0.5074870     0.0337420
  C       -0.3508062    -0.7699518    -0.1882954
  C        0.3345050     1.5654110    -0.0838510
  C        1.9201190     0.2388570     1.0398190
  C       -2.0282860     0.8425430     0.3372020
  C       -1.4126000    -1.8085370    -0.2310830
  C        2.0871850    -0.8915250     0.0446260
  C       -0.0584500     2.8482670    -0.7690020
  C       -3.0319510    -0.1194250     0.3623450
  C       -2.7230760    -1.4503270     0.0616580
  H        0.9974690    -2.0891180    -1.1576180
  H        1.1650960    -0.0456930     1.7889680
  H        2.8821530     0.3846540     1.5322680
  H       -2.2754030     1.8777800     0.5574090
  H       -1.1609050    -2.8458310    -0.4446670
  H       -0.7945500     3.4046450    -0.1790500
  H       -0.5037450     2.6486950    -1.7485080
  H        0.8332190     3.4662990    -0.8854880
  H       -4.0517820     0.1644530     0.6082680
  H       -3.5008180    -2.2099170     0.0672390
units angstrom
no_reorient  #important for SAPT in psi4, default
symmetry c1  #important for SAPT in psi4, default
}

set PROPERTIES_ORIGIN ["COM"]
properties('MP2/aug-cc-pvtz', properties = ['dipole'])
--------------------------------------------------------------------------

    Molecular point group: c1
  Charge       = 0
  Multiplicity = 1
  Basis Set: AUG-CC-PVTZ
    Blend: AUG-CC-PVTZ
  Basis Set: (AUG-CC-PVTZ AUX)
    Blend: AUG-CC-PVTZ-JKFIT

    Orbital Energies [Eh]
    ---------------------

    Doubly Occupied:

       1A    -20.531086     2A    -15.608344     3A    -15.567225
       4A    -11.360424     5A    -11.314474     6A    -11.301741
       7A    -11.267084     8A    -11.266025     9A    -11.266009
      10A    -11.263537    11A    -11.259269    12A    -11.254594
      13A    -11.234113    14A     -1.387009    15A     -1.278208
      16A     -1.232274    17A     -1.165068    18A     -1.069028
      19A     -1.025816    20A     -1.017442    21A     -0.951350
      22A     -0.880774    23A     -0.863026    24A     -0.792639
      25A     -0.771574    26A     -0.727057    27A     -0.694654
      28A     -0.677916    29A     -0.657923    30A     -0.652047
      31A     -0.623904    32A     -0.617645    33A     -0.601616
      34A     -0.586332    35A     -0.566189    36A     -0.558372
      37A     -0.542277    38A     -0.540699    39A     -0.528040
      40A     -0.515152    41A     -0.456942    42A     -0.443402
      43A     -0.416984    44A     -0.404305    45A     -0.357723
      46A     -0.331404

  @DF-RHF Final Energy:  -568.45528941523412

   => Energetics <=

    Nuclear Repulsion Energy =            761.5925554800256805
    One-Electron Energy =               -2283.2382518248746237
    Two-Electron Energy =                 953.1904069296149373
    Total Energy =                       -568.4552894152341196
  Basis Set: (AUG-CC-PVTZ AUX)
    Blend: AUG-CC-PVTZ-RI
    Molecular point group: c1

    Geometry (in Angstrom), charge = 0, multiplicity = 1:

       Center              X                  Y                   Z               Mass
    ------------   -----------------  -----------------  -----------------  -----------------
         O            3.108495447247    -1.426668400642    -0.216825845021    15.994914619570
         N            0.867038447247    -1.228594400642    -0.591870845021    14.003074004430
         N            1.515276447247     1.487701599358     0.332655154979    14.003074004430
         C           -0.735367552753     0.529353599358     0.031221154979    12.000000000000
         C           -0.390065752753    -0.748085200642    -0.190816245021    12.000000000000
         C            0.295245447247     1.587277599358    -0.086371845021    12.000000000000
         C            1.880859447247     0.260723599358     1.037298154979    12.000000000000
         C           -2.067545552753     0.864409599358     0.334681154979    12.000000000000
         C           -1.451859552753    -1.786670400642    -0.233603845021    12.000000000000
         C            2.047925447247    -0.869658400642     0.042105154979    12.000000000000
         C           -0.097709552753     2.870133599358    -0.771522845021    12.000000000000
         C           -3.071210552753    -0.097558400642     0.359824154979    12.000000000000
         C           -2.762335552753    -1.428460400642     0.059137154979    12.000000000000
         H            0.958209447247    -2.067251400642    -1.160138845021     1.007825032230
         H            1.125836447247    -0.023826400642     1.786447154979     1.007825032230
         H            2.842893447247     0.406520599358     1.529747154979     1.007825032230
         H           -2.314662552753     1.899646599358     0.554888154979     1.007825032230
         H           -1.200164552753    -2.823964400642    -0.447187845021     1.007825032230
         H           -0.833809552753     3.426511599358    -0.181570845021     1.007825032230
         H           -0.543004552753     2.670561599358    -1.751028845021     1.007825032230
         H            0.793959447247     3.488165599358    -0.888008845021     1.007825032230
         H           -4.091041552753     0.186319599358     0.605747154979     1.007825032230
         H           -3.540077552753    -2.188050400642     0.064718154979     1.007825032230

  Basis Set: AUG-CC-PVTZ
    Blend: AUG-CC-PVTZ
  Basis Set: (AUG-CC-PVTZ AUX)
    Blend: AUG-CC-PVTZ-JKFIT
	 Reference Energy          =    -568.4552894152341196 [Eh]
	 Singles Energy            =      -0.0000000000000000 [Eh]
	 Same-Spin Energy          =      -0.6141509228102049 [Eh]
	 Opposite-Spin Energy      =      -1.8876738469322334 [Eh]
	 Correlation Energy        =      -2.5018247697424383 [Eh]
	 Total Energy              =    -570.9571141849766036 [Eh]

	 ================> DF-SCS-MP2 Energies <==================
	-----------------------------------------------------------
	 SCS Same-Spin Scale       =       0.3333333333333333 [-]
	 SCS Opposite-Spin Scale   =       1.2000000000000000 [-]
	 SCS Same-Spin Energy      =      -0.2047169742700683 [Eh]
	 SCS Opposite-Spin Energy  =      -2.2652086163186800 [Eh]
	 SCS Correlation Energy    =      -2.4699255905887485 [Eh]
	 SCS Total Energy          =    -570.9252150058229063 [Eh]
	-----------------------------------------------------------

  Dipole Moment: [D]
     X:    -5.1265      Y:    -0.2354      Z:     0.2116     Total:     5.1362

*** Psi4 exiting successfully. Buy a developer a beer!
