                               Psi4 1.4a3.dev225

  ==> Input File <==

--------------------------------------------------------------------------
#psi4
#
memory 32 gb

molecule  {
0 1
  O        3.1477550    -1.4485350    -0.2143050
  N        0.9062980    -1.2504610    -0.5893500
  N        1.5545360     1.4658350     0.3351760
  C       -0.6961080     0.5074870     0.0337420
  C       -0.3911060    -0.8453020    -0.2363150
  C        0.3345050     1.5654110    -0.0838510
  C        1.9201190     0.2388570     1.0398190
  C       -2.0282860     0.8425430     0.3372020
  C       -1.4126000    -1.8085370    -0.2310830
  C        2.0871850    -0.8915250     0.0446260
  C       -0.0584500     2.8482670    -0.7690020
  C       -3.0319510    -0.1194250     0.3623450
  C       -2.7230760    -1.4503270     0.0616580
  H        0.9956763    -2.0726276    -1.1464442
  H        1.1650960    -0.0456930     1.7889680
  H        2.8821530     0.3846540     1.5322680
  H       -2.2754030     1.8777800     0.5574090
  H       -1.1609050    -2.8458310    -0.4446670
  H       -0.7945500     3.4046450    -0.1790500
  H       -0.5037450     2.6486950    -1.7485080
  H        0.8332190     3.4662990    -0.8854880
  H       -4.0517820     0.1644530     0.6082680
  H       -3.5008180    -2.2099170     0.0672390
units angstrom
no_reorient  #important for SAPT in psi4, default
symmetry c1  #important for SAPT in psi4, default
}

set PROPERTIES_ORIGIN ["COM"]
properties('MP2/aug-cc-pvtz', properties = ['dipole'])
--------------------------------------------------------------------------

    Molecular point group: c1
  Charge       = 0
  Multiplicity = 1
  Basis Set: AUG-CC-PVTZ
    Blend: AUG-CC-PVTZ
  Basis Set: (AUG-CC-PVTZ AUX)
    Blend: AUG-CC-PVTZ-JKFIT

    Orbital Energies [Eh]
    ---------------------

    Doubly Occupied:

       1A    -20.532464     2A    -15.605312     3A    -15.567128
       4A    -11.362701     5A    -11.314457     6A    -11.302460
       7A    -11.267026     8A    -11.266894     9A    -11.265710
      10A    -11.265530    11A    -11.258375    12A    -11.253856
      13A    -11.234265    14A     -1.387950    15A     -1.277205
      16A     -1.233686    17A     -1.164936    18A     -1.065622
      19A     -1.035377    20A     -1.011825    21A     -0.952091
      22A     -0.885902    23A     -0.858595    24A     -0.797387
      25A     -0.768836    26A     -0.730475    27A     -0.691652
      28A     -0.677931    29A     -0.657680    30A     -0.648968
      31A     -0.626278    32A     -0.618648    33A     -0.605477
      34A     -0.586575    35A     -0.567271    36A     -0.558899
      37A     -0.543679    38A     -0.539044    39A     -0.527940
      40A     -0.515694    41A     -0.457760    42A     -0.444878
      43A     -0.417643    44A     -0.405480    45A     -0.355035
      46A     -0.332437

  @DF-RHF Final Energy:  -568.46603400483423

   => Energetics <=

    Nuclear Repulsion Energy =            760.8766327021669440
    One-Electron Energy =               -2281.7952660126393312
    Two-Electron Energy =                 952.4525993056381594
    Total Energy =                       -568.4660340048342277
  Basis Set: (AUG-CC-PVTZ AUX)
    Blend: AUG-CC-PVTZ-RI
    Molecular point group: c1

    Geometry (in Angstrom), charge = 0, multiplicity = 1:

       Center              X                  Y                   Z               Mass
    ------------   -----------------  -----------------  -----------------  -----------------
         O            3.111283856276    -1.421569673246    -0.213580347580    15.994914619570
         N            0.869826856276    -1.223495673246    -0.588625347580    14.003074004430
         N            1.518064856276     1.492800326754     0.335900652420    14.003074004430
         C           -0.732579143724     0.534452326754     0.034466652420    12.000000000000
         C           -0.427577143724    -0.818336673246    -0.235590347580    12.000000000000
         C            0.298033856276     1.592376326754    -0.083126347580    12.000000000000
         C            1.883647856276     0.265822326754     1.040543652420    12.000000000000
         C           -2.064757143724     0.869508326754     0.337926652420    12.000000000000
         C           -1.449071143724    -1.781571673246    -0.230358347580    12.000000000000
         C            2.050713856276    -0.864559673246     0.045350652420    12.000000000000
         C           -0.094921143724     2.875232326754    -0.768277347580    12.000000000000
         C           -3.068422143724    -0.092459673246     0.363069652420    12.000000000000
         C           -2.759547143724    -1.423361673246     0.062382652420    12.000000000000
         H            0.959205156276    -2.045662273246    -1.145719547580     1.007825032230
         H            1.128624856276    -0.018727673246     1.789692652420     1.007825032230
         H            2.845681856276     0.411619326754     1.532992652420     1.007825032230
         H           -2.311874143724     1.904745326754     0.558133652420     1.007825032230
         H           -1.197376143724    -2.818865673246    -0.443942347580     1.007825032230
         H           -0.831021143724     3.431610326754    -0.178325347580     1.007825032230
         H           -0.540216143724     2.675660326754    -1.747783347580     1.007825032230
         H            0.796747856276     3.493264326754    -0.884763347580     1.007825032230
         H           -4.088253143724     0.191418326754     0.608992652420     1.007825032230
         H           -3.537289143724    -2.182951673246     0.067963652420     1.007825032230

  Basis Set: AUG-CC-PVTZ
    Blend: AUG-CC-PVTZ
  Basis Set: (AUG-CC-PVTZ AUX)
    Blend: AUG-CC-PVTZ-JKFIT
	 Reference Energy          =    -568.4660340048342277 [Eh]
	 Singles Energy            =      -0.0000000000000000 [Eh]
	 Same-Spin Energy          =      -0.6142871607062655 [Eh]
	 Opposite-Spin Energy      =      -1.8868061398872578 [Eh]
	 Correlation Energy        =      -2.5010933005935234 [Eh]
	 Total Energy              =    -570.9671273054277663 [Eh]

	 ================> DF-SCS-MP2 Energies <==================
	-----------------------------------------------------------
	 SCS Same-Spin Scale       =       0.3333333333333333 [-]
	 SCS Opposite-Spin Scale   =       1.2000000000000000 [-]
	 SCS Same-Spin Energy      =      -0.2047623869020885 [Eh]
	 SCS Opposite-Spin Energy  =      -2.2641673678647094 [Eh]
	 SCS Correlation Energy    =      -2.4689297547667981 [Eh]
	 SCS Total Energy          =    -570.9349637596010325 [Eh]
	-----------------------------------------------------------

  Dipole Moment: [D]
     X:    -5.1175      Y:    -0.2273      Z:     0.2384     Total:     5.1281

*** Psi4 exiting successfully. Buy a developer a beer!
