                               Psi4 1.3.2 release

  ==> Input File <==

--------------------------------------------------------------------------
#psi4
#
memory 32 gb

molecule  {
0 1
  O        3.1477550    -1.4485350    -0.2143050
  N        0.9062980    -1.2504610    -0.5893500
  N        1.5545360     1.4658350     0.3351760
  C       -0.6961080     0.5074870     0.0337420
  C       -0.3911060    -0.8453020    -0.2363150
  C        0.3345050     1.5654110    -0.0838510
  C        1.9201190     0.2388570     1.0398190
  C       -2.0282860     0.8425430     0.3372020
  C       -1.4126000    -1.8085370    -0.2310830
  C        2.0871850    -0.8915250     0.0446260
  C       -0.0062823     2.6779584    -0.6780431
  C       -3.0319510    -0.1194250     0.3623450
  C       -2.7230760    -1.4503270     0.0616580
  H        0.9974690    -2.0891180    -1.1576180
  H        1.1650960    -0.0456930     1.7889680
  H        2.8821530     0.3846540     1.5322680
  H       -2.2754030     1.8777800     0.5574090
  H       -1.1609050    -2.8458310    -0.4446670
  H       -0.7945500     3.4046450    -0.1790500
  H       -0.5037450     2.6486950    -1.7485080
  H        0.8332190     3.4662990    -0.8854880
  H       -4.0517820     0.1644530     0.6082680
  H       -3.5008180    -2.2099170     0.0672390
units angstrom
no_reorient  #important for SAPT in psi4, default
symmetry c1  #important for SAPT in psi4, default
}

set PROPERTIES_ORIGIN ["COM"]
properties('MP2/aug-cc-pvtz', properties = ['dipole'])
--------------------------------------------------------------------------

    Molecular point group: c1
  Charge       = 0
  Multiplicity = 1
  Basis Set: AUG-CC-PVTZ
    Blend: AUG-CC-PVTZ
  Basis Set: (AUG-CC-PVTZ AUX)
    Blend: AUG-CC-PVTZ-JKFIT

    Orbital Energies [Eh]
    ---------------------

    Doubly Occupied:

       1A    -20.532032     2A    -15.606775     3A    -15.566366
       4A    -11.362349     5A    -11.314047     6A    -11.290413
       7A    -11.266189     8A    -11.265965     9A    -11.265057
      10A    -11.265007    11A    -11.257828    12A    -11.253290
      13A    -11.244086    14A     -1.387275    15A     -1.278990
      16A     -1.241890    17A     -1.164764    18A     -1.082047
      19A     -1.037281    20A     -1.021932    21A     -0.951242
      22A     -0.882057    23A     -0.857245    24A     -0.797089
      25A     -0.768358    26A     -0.732144    27A     -0.699436
      28A     -0.677859    29A     -0.660208    30A     -0.651320
      31A     -0.640028    32A     -0.625399    33A     -0.605448
      34A     -0.576754    35A     -0.566644    36A     -0.560200
      37A     -0.541401    38A     -0.528205    39A     -0.524138
      40A     -0.497936    41A     -0.452337    42A     -0.443968
      43A     -0.419599    44A     -0.397105    45A     -0.354471
      46A     -0.331949

  @DF-RHF Final Energy:  -568.41325449230499

   => Energetics <=

    Nuclear Repulsion Energy =            765.1264345788728178
    One-Electron Energy =               -2290.1871319751517149
    Two-Electron Energy =                 956.6474429039740244
    Total Energy =                       -568.4132544923049863
  Basis Set: (AUG-CC-PVTZ AUX)
    Blend: AUG-CC-PVTZ-RI
    Molecular point group: c1

    Geometry (in Angstrom), charge = 0, multiplicity = 1:

       Center              X                  Y                   Z               Mass
    ------------   -----------------  -----------------  -----------------  -----------------
         O            3.107677344294    -1.409734133439    -0.219785826832    15.994914619570
         N            0.866220344294    -1.211660133439    -0.594830826832    14.003074004430
         N            1.514458344294     1.504635866561     0.329695173168    14.003074004430
         C           -0.736185655706     0.546287866561     0.028261173168    12.000000000000
         C           -0.431183655706    -0.806501133439    -0.241795826832    12.000000000000
         C            0.294427344294     1.604211866561    -0.089331826832    12.000000000000
         C            1.880041344294     0.277657866561     1.034338173168    12.000000000000
         C           -2.068363655706     0.881343866561     0.331721173168    12.000000000000
         C           -1.452677655706    -1.769736133439    -0.236563826832    12.000000000000
         C            2.047107344294    -0.852724133439     0.039145173168    12.000000000000
         C           -0.046359955706     2.716759266561    -0.683523926832    12.000000000000
         C           -3.072028655706    -0.080624133439     0.356864173168    12.000000000000
         C           -2.763153655706    -1.411526133439     0.056177173168    12.000000000000
         H            0.957391344294    -2.050317133439    -1.163098826832     1.007825032230
         H            1.125018344294    -0.006892133439     1.783487173168     1.007825032230
         H            2.842075344294     0.423454866561     1.526787173168     1.007825032230
         H           -2.315480655706     1.916580866561     0.551928173168     1.007825032230
         H           -1.200982655706    -2.807030133439    -0.450147826832     1.007825032230
         H           -0.834627655706     3.443445866561    -0.184530826832     1.007825032230
         H           -0.543822655706     2.687495866561    -1.753988826832     1.007825032230
         H            0.793141344294     3.505099866561    -0.890968826832     1.007825032230
         H           -4.091859655706     0.203253866561     0.602787173168     1.007825032230
         H           -3.540895655706    -2.171116133439     0.061758173168     1.007825032230

  Basis Set: AUG-CC-PVTZ
    Blend: AUG-CC-PVTZ
  Basis Set: (AUG-CC-PVTZ AUX)
    Blend: AUG-CC-PVTZ-JKFIT
	 Reference Energy          =    -568.4132544923049863 [Eh]
	 Singles Energy            =      -0.0000000000000000 [Eh]
	 Same-Spin Energy          =      -0.6181743281945399 [Eh]
	 Opposite-Spin Energy      =      -1.8920256315308106 [Eh]
	 Correlation Energy        =      -2.5101999597253504 [Eh]
	 Total Energy              =    -570.9234544520303416 [Eh]

	 ================> DF-SCS-MP2 Energies <==================
	-----------------------------------------------------------
	 SCS Same-Spin Scale       =       0.3333333333333333 [-]
	 SCS Opposite-Spin Scale   =       1.2000000000000000 [-]
	 SCS Same-Spin Energy      =      -0.2060581093981800 [Eh]
	 SCS Opposite-Spin Energy  =      -2.2704307578369725 [Eh]
	 SCS Correlation Energy    =      -2.4764888672351524 [Eh]
	 SCS Total Energy          =    -570.8897433595401480 [Eh]
	-----------------------------------------------------------

  Dipole Moment: [D]
     X:    -5.1693      Y:    -0.0663      Z:     0.1495     Total:     5.1719

*** Psi4 exiting successfully. Buy a developer a beer!
