                               Psi4 1.3.2 release

  ==> Input File <==

--------------------------------------------------------------------------
#psi4
#
memory 32 gb

molecule  {
0 1
  O        3.1477550    -1.4485350    -0.2143050
  N        0.9307857    -1.2841877    -0.6140175
  N        1.5545360     1.4658350     0.3351760
  C       -0.6961080     0.5074870     0.0337420
  C       -0.3911060    -0.8453020    -0.2363150
  C        0.3345050     1.5654110    -0.0838510
  C        1.9201190     0.2388570     1.0398190
  C       -2.0282860     0.8425430     0.3372020
  C       -1.4126000    -1.8085370    -0.2310830
  C        2.0871850    -0.8915250     0.0446260
  C       -0.0584500     2.8482670    -0.7690020
  C       -3.0319510    -0.1194250     0.3623450
  C       -2.7230760    -1.4503270     0.0616580
  H        0.9974690    -2.0891180    -1.1576180
  H        1.1650960    -0.0456930     1.7889680
  H        2.8821530     0.3846540     1.5322680
  H       -2.2754030     1.8777800     0.5574090
  H       -1.1609050    -2.8458310    -0.4446670
  H       -0.7945500     3.4046450    -0.1790500
  H       -0.5037450     2.6486950    -1.7485080
  H        0.8332190     3.4662990    -0.8854880
  H       -4.0517820     0.1644530     0.6082680
  H       -3.5008180    -2.2099170     0.0672390
units angstrom
no_reorient  #important for SAPT in psi4, default
symmetry c1  #important for SAPT in psi4, default
}

set PROPERTIES_ORIGIN ["COM"]
properties('MP2/aug-cc-pvtz', properties = ['dipole'])
--------------------------------------------------------------------------

    Molecular point group: c1
  Charge       = 0
  Multiplicity = 1
  Basis Set: AUG-CC-PVTZ
    Blend: AUG-CC-PVTZ
  Basis Set: (AUG-CC-PVTZ AUX)
    Blend: AUG-CC-PVTZ-JKFIT

    Orbital Energies [Eh]
    ---------------------

    Doubly Occupied:

       1A    -20.528515     2A    -15.602791     3A    -15.567664
       4A    -11.360326     5A    -11.316227     6A    -11.303169
       7A    -11.268602     8A    -11.268471     9A    -11.267048
      10A    -11.265874    11A    -11.259311    12A    -11.255253
      13A    -11.234703    14A     -1.385735    15A     -1.269612
      16A     -1.231866    17A     -1.165633    18A     -1.066046
      19A     -1.034780    20A     -1.013446    21A     -0.952396
      22A     -0.884391    23A     -0.855201    24A     -0.800358
      25A     -0.769277    26A     -0.726895    27A     -0.690900
      28A     -0.676914    29A     -0.657203    30A     -0.650697
      31A     -0.626597    32A     -0.620157    33A     -0.603018
      34A     -0.586759    35A     -0.565317    36A     -0.559089
      37A     -0.543838    38A     -0.539153    39A     -0.528151
      40A     -0.517475    41A     -0.455364    42A     -0.440939
      43A     -0.417917    44A     -0.405544    45A     -0.355602
      46A     -0.335140

  @DF-RHF Final Energy:  -568.46394053464007

   => Energetics <=

    Nuclear Repulsion Energy =            759.7904590132695830
    One-Electron Energy =               -2279.6500749515403186
    Two-Electron Energy =                 951.3956754036306620
    Total Energy =                       -568.4639405346400736
  Basis Set: (AUG-CC-PVTZ AUX)
    Blend: AUG-CC-PVTZ-RI
    Molecular point group: c1

    Geometry (in Angstrom), charge = 0, multiplicity = 1:

       Center              X                  Y                   Z               Mass
    ------------   -----------------  -----------------  -----------------  -----------------
         O            3.109303668065    -1.418761201029    -0.211531384626    15.994914619570
         N            0.892334368065    -1.254413901029    -0.611243884626    14.003074004430
         N            1.516084668065     1.495608798971     0.337949615374    14.003074004430
         C           -0.734559331935     0.537260798971     0.036515615374    12.000000000000
         C           -0.429557331935    -0.815528201029    -0.233541384626    12.000000000000
         C            0.296053668065     1.595184798971    -0.081077384626    12.000000000000
         C            1.881667668065     0.268630798971     1.042592615374    12.000000000000
         C           -2.066737331935     0.872316798971     0.339975615374    12.000000000000
         C           -1.451051331935    -1.778763201029    -0.228309384626    12.000000000000
         C            2.048733668065    -0.861751201029     0.047399615374    12.000000000000
         C           -0.096901331935     2.878040798971    -0.766228384626    12.000000000000
         C           -3.070402331935    -0.089651201029     0.365118615374    12.000000000000
         C           -2.761527331935    -1.420553201029     0.064431615374    12.000000000000
         H            0.959017668065    -2.059344201029    -1.154844384626     1.007825032230
         H            1.126644668065    -0.015919201029     1.791741615374     1.007825032230
         H            2.843701668065     0.414427798971     1.535041615374     1.007825032230
         H           -2.313854331935     1.907553798971     0.560182615374     1.007825032230
         H           -1.199356331935    -2.816057201029    -0.441893384626     1.007825032230
         H           -0.833001331935     3.434418798971    -0.176276384626     1.007825032230
         H           -0.542196331935     2.678468798971    -1.745734384626     1.007825032230
         H            0.794767668065     3.496072798971    -0.882714384626     1.007825032230
         H           -4.090233331935     0.194226798971     0.611041615374     1.007825032230
         H           -3.539269331935    -2.180143201029     0.070012615374     1.007825032230

  Basis Set: AUG-CC-PVTZ
    Blend: AUG-CC-PVTZ
  Basis Set: (AUG-CC-PVTZ AUX)
    Blend: AUG-CC-PVTZ-JKFIT
	 Reference Energy          =    -568.4639405346400736 [Eh]
	 Singles Energy            =      -0.0000000000000000 [Eh]
	 Same-Spin Energy          =      -0.6136305249377429 [Eh]
	 Opposite-Spin Energy      =      -1.8863006812836036 [Eh]
	 Correlation Energy        =      -2.4999312062213468 [Eh]
	 Total Energy              =    -570.9638717408614639 [Eh]

	 ================> DF-SCS-MP2 Energies <==================
	-----------------------------------------------------------
	 SCS Same-Spin Scale       =       0.3333333333333333 [-]
	 SCS Opposite-Spin Scale   =       1.2000000000000000 [-]
	 SCS Same-Spin Energy      =      -0.2045435083125810 [Eh]
	 SCS Opposite-Spin Energy  =      -2.2635608175403243 [Eh]
	 SCS Correlation Energy    =      -2.4681043258529054 [Eh]
	 SCS Total Energy          =    -570.9320448604929652 [Eh]
	-----------------------------------------------------------

  Dipole Moment: [D]
     X:    -5.2363      Y:    -0.1650      Z:     0.2799     Total:     5.2464

*** Psi4 exiting successfully. Buy a developer a beer!
