                               Psi4 1.3.2 release

  ==> Input File <==

--------------------------------------------------------------------------
#psi4
#
memory 32 gb

molecule  {
0 1
  O        3.1477550    -1.4485350    -0.2143050
  N        0.9062980    -1.2504610    -0.5893500
  N        1.5545360     1.4658350     0.3351760
  C       -0.6961080     0.5074870     0.0337420
  C       -0.3720101    -0.8192322    -0.1994593
  C        0.3345050     1.5654110    -0.0838510
  C        1.9201190     0.2388570     1.0398190
  C       -2.0282860     0.8425430     0.3372020
  C       -1.4126000    -1.8085370    -0.2310830
  C        2.0871850    -0.8915250     0.0446260
  C       -0.0584500     2.8482670    -0.7690020
  C       -3.0319510    -0.1194250     0.3623450
  C       -2.7230760    -1.4503270     0.0616580
  H        0.9974690    -2.0891180    -1.1576180
  H        1.1650960    -0.0456930     1.7889680
  H        2.8821530     0.3846540     1.5322680
  H       -2.2754030     1.8777800     0.5574090
  H       -1.1609050    -2.8458310    -0.4446670
  H       -0.7945500     3.4046450    -0.1790500
  H       -0.5037450     2.6486950    -1.7485080
  H        0.8332190     3.4662990    -0.8854880
  H       -4.0517820     0.1644530     0.6082680
  H       -3.5008180    -2.2099170     0.0672390
units angstrom
no_reorient  #important for SAPT in psi4, default
symmetry c1  #important for SAPT in psi4, default
}

set PROPERTIES_ORIGIN ["COM"]
properties('MP2/aug-cc-pvtz', properties = ['dipole'])
--------------------------------------------------------------------------

    Molecular point group: c1
  Charge       = 0
  Multiplicity = 1
  Basis Set: AUG-CC-PVTZ
    Blend: AUG-CC-PVTZ
  Basis Set: (AUG-CC-PVTZ AUX)
    Blend: AUG-CC-PVTZ-JKFIT

    Orbital Energies [Eh]
    ---------------------

    Doubly Occupied:

       1A    -20.531775     2A    -15.607616     3A    -15.567055
       4A    -11.361493     5A    -11.314703     6A    -11.302100
       7A    -11.267029     8A    -11.266369     9A    -11.264919
      10A    -11.263565    11A    -11.261478    12A    -11.254054
      13A    -11.234148    14A     -1.387312    15A     -1.276915
      16A     -1.232630    17A     -1.164506    18A     -1.066548
      19A     -1.031303    20A     -1.013675    21A     -0.951486
      22A     -0.883623    23A     -0.860070    24A     -0.794008
      25A     -0.769376    26A     -0.728258    27A     -0.692404
      28A     -0.677791    29A     -0.656760    30A     -0.651092
      31A     -0.625229    32A     -0.617924    33A     -0.603854
      34A     -0.586483    35A     -0.566373    36A     -0.558570
      37A     -0.542807    38A     -0.539842    39A     -0.527803
      40A     -0.516002    41A     -0.457239    42A     -0.444334
      43A     -0.417576    44A     -0.404885    45A     -0.355239
      46A     -0.332246

  @DF-RHF Final Energy:  -568.46354513448500

   => Energetics <=

    Nuclear Repulsion Energy =            761.0871587967637879
    One-Electron Energy =               -2282.2404737229626335
    Two-Electron Energy =                 952.6897697917138430
    Total Energy =                       -568.4635451344850026
  Basis Set: (AUG-CC-PVTZ AUX)
    Blend: AUG-CC-PVTZ-RI
    Molecular point group: c1

    Geometry (in Angstrom), charge = 0, multiplicity = 1:

       Center              X                  Y                   Z               Mass
    ------------   -----------------  -----------------  -----------------  -----------------
         O            3.109957118917    -1.423271300838    -0.216056271671    15.994914619570
         N            0.868500118917    -1.225197300838    -0.591101271671    14.003074004430
         N            1.516738118917     1.491098699162     0.333424728329    14.003074004430
         C           -0.733905881083     0.532750699162     0.031990728329    12.000000000000
         C           -0.409807981083    -0.793968500838    -0.201210571671    12.000000000000
         C            0.296707118917     1.590674699162    -0.085602271671    12.000000000000
         C            1.882321118917     0.264120699162     1.038067728329    12.000000000000
         C           -2.066083881083     0.867806699162     0.335450728329    12.000000000000
         C           -1.450397881083    -1.783273300838    -0.232834271671    12.000000000000
         C            2.049387118917    -0.866261300838     0.042874728329    12.000000000000
         C           -0.096247881083     2.873530699162    -0.770753271671    12.000000000000
         C           -3.069748881083    -0.094161300838     0.360593728329    12.000000000000
         C           -2.760873881083    -1.425063300838     0.059906728329    12.000000000000
         H            0.959671118917    -2.063854300838    -1.159369271671     1.007825032230
         H            1.127298118917    -0.020429300838     1.787216728329     1.007825032230
         H            2.844355118917     0.409917699162     1.530516728329     1.007825032230
         H           -2.313200881083     1.903043699162     0.555657728329     1.007825032230
         H           -1.198702881083    -2.820567300838    -0.446418271671     1.007825032230
         H           -0.832347881083     3.429908699162    -0.180801271671     1.007825032230
         H           -0.541542881083     2.673958699162    -1.750259271671     1.007825032230
         H            0.795421118917     3.491562699162    -0.887239271671     1.007825032230
         H           -4.089579881083     0.189716699162     0.606516728329     1.007825032230
         H           -3.538615881083    -2.184653300838     0.065487728329     1.007825032230

  Basis Set: AUG-CC-PVTZ
    Blend: AUG-CC-PVTZ
  Basis Set: (AUG-CC-PVTZ AUX)
    Blend: AUG-CC-PVTZ-JKFIT
	 Reference Energy          =    -568.4635451344850026 [Eh]
	 Singles Energy            =      -0.0000000000000000 [Eh]
	 Same-Spin Energy          =      -0.6144322349596834 [Eh]
	 Opposite-Spin Energy      =      -1.8873194423888475 [Eh]
	 Correlation Energy        =      -2.5017516773485307 [Eh]
	 Total Energy              =    -570.9652968118335821 [Eh]

	 ================> DF-SCS-MP2 Energies <==================
	-----------------------------------------------------------
	 SCS Same-Spin Scale       =       0.3333333333333333 [-]
	 SCS Opposite-Spin Scale   =       1.2000000000000000 [-]
	 SCS Same-Spin Energy      =      -0.2048107449865611 [Eh]
	 SCS Opposite-Spin Energy  =      -2.2647833308666168 [Eh]
	 SCS Correlation Energy    =      -2.4695940758531778 [Eh]
	 SCS Total Energy          =    -570.9331392103381404 [Eh]
	-----------------------------------------------------------

  Dipole Moment: [D]
     X:    -5.1219      Y:    -0.2466      Z:     0.2223     Total:     5.1326

*** Psi4 exiting successfully. Buy a developer a beer!
