                               Psi4 1.3.2 release

  ==> Input File <==

--------------------------------------------------------------------------
#psi4
#
memory 32 gb

molecule  {
0 1
  O        3.1477550    -1.4485350    -0.2143050
  N        0.8415779    -1.1468239    -0.5108379
  N        1.5545360     1.4658350     0.3351760
  C       -0.6961080     0.5074870     0.0337420
  C       -0.3911060    -0.8453020    -0.2363150
  C        0.3345050     1.5654110    -0.0838510
  C        1.9201190     0.2388570     1.0398190
  C       -2.0282860     0.8425430     0.3372020
  C       -1.4126000    -1.8085370    -0.2310830
  C        2.0871850    -0.8915250     0.0446260
  C       -0.0584500     2.8482670    -0.7690020
  C       -3.0319510    -0.1194250     0.3623450
  C       -2.7230760    -1.4503270     0.0616580
  H        0.9974690    -2.0891180    -1.1576180
  H        1.1650960    -0.0456930     1.7889680
  H        2.8821530     0.3846540     1.5322680
  H       -2.2754030     1.8777800     0.5574090
  H       -1.1609050    -2.8458310    -0.4446670
  H       -0.7945500     3.4046450    -0.1790500
  H       -0.5037450     2.6486950    -1.7485080
  H        0.8332190     3.4662990    -0.8854880
  H       -4.0517820     0.1644530     0.6082680
  H       -3.5008180    -2.2099170     0.0672390
units angstrom
no_reorient  #important for SAPT in psi4, default
symmetry c1  #important for SAPT in psi4, default
}

set PROPERTIES_ORIGIN ["COM"]
properties('MP2/aug-cc-pvtz', properties = ['dipole'])
--------------------------------------------------------------------------

    Molecular point group: c1
  Charge       = 0
  Multiplicity = 1
  Basis Set: AUG-CC-PVTZ
    Blend: AUG-CC-PVTZ
  Basis Set: (AUG-CC-PVTZ AUX)
    Blend: AUG-CC-PVTZ-JKFIT

    Orbital Energies [Eh]
    ---------------------

    Doubly Occupied:

       1A    -20.544746     2A    -15.619289     3A    -15.565521
       4A    -11.372567     5A    -11.309008     6A    -11.300381
       7A    -11.264218     8A    -11.263713     9A    -11.263669
      10A    -11.258834    11A    -11.254896    12A    -11.248930
      13A    -11.232891    14A     -1.395003    15A     -1.303090
      16A     -1.234713    17A     -1.161711    18A     -1.065233
      19A     -1.037641    20A     -1.005245    21A     -0.951743
      22A     -0.893511    23A     -0.867301    24A     -0.792781
      25A     -0.760889    26A     -0.727815    27A     -0.692705
      28A     -0.682236    29A     -0.659571    30A     -0.642504
      31A     -0.626495    32A     -0.620311    33A     -0.598645
      34A     -0.586148    35A     -0.567621    36A     -0.557631
      37A     -0.542928    38A     -0.537235    39A     -0.528221
      40A     -0.505974    41A     -0.464010    42A     -0.453809
      43A     -0.416789    44A     -0.404954    45A     -0.353198
      46A     -0.323040

  @DF-RHF Final Energy:  -568.43083138497900

   => Energetics <=

    Nuclear Repulsion Energy =            763.7424904756064734
    One-Electron Energy =               -2287.4279112773597262
    Two-Electron Energy =                 955.2545894167742517
    Total Energy =                       -568.4308313849790011
  Basis Set: (AUG-CC-PVTZ AUX)
    Blend: AUG-CC-PVTZ-RI
    Molecular point group: c1

    Geometry (in Angstrom), charge = 0, multiplicity = 1:

       Center              X                  Y                   Z               Mass
    ------------   -----------------  -----------------  -----------------  -----------------
         O            3.116479612203    -1.429810850895    -0.219831231116    15.994914619570
         N            0.810302512203    -1.128099750895    -0.516364131116    14.003074004430
         N            1.523260612203     1.484559149105     0.329649768884    14.003074004430
         C           -0.727383387797     0.526211149105     0.028215768884    12.000000000000
         C           -0.422381387797    -0.826577850895    -0.241841231116    12.000000000000
         C            0.303229612203     1.584135149105    -0.089377231116    12.000000000000
         C            1.888843612203     0.257581149105     1.034292768884    12.000000000000
         C           -2.059561387797     0.861267149105     0.331675768884    12.000000000000
         C           -1.443875387797    -1.789812850895    -0.236609231116    12.000000000000
         C            2.055909612203    -0.872800850895     0.039099768884    12.000000000000
         C           -0.089725387797     2.866991149105    -0.774528231116    12.000000000000
         C           -3.063226387797    -0.100700850895     0.356818768884    12.000000000000
         C           -2.754351387797    -1.431602850895     0.056131768884    12.000000000000
         H            0.966193612203    -2.070393850895    -1.163144231116     1.007825032230
         H            1.133820612203    -0.026968850895     1.783441768884     1.007825032230
         H            2.850877612203     0.403378149105     1.526741768884     1.007825032230
         H           -2.306678387797     1.896504149105     0.551882768884     1.007825032230
         H           -1.192180387797    -2.827106850895    -0.450193231116     1.007825032230
         H           -0.825825387797     3.423369149105    -0.184576231116     1.007825032230
         H           -0.535020387797     2.667419149105    -1.754034231116     1.007825032230
         H            0.801943612203     3.485023149105    -0.891014231116     1.007825032230
         H           -4.083057387797     0.183177149105     0.602741768884     1.007825032230
         H           -3.532093387797    -2.191192850895     0.061712768884     1.007825032230

  Basis Set: AUG-CC-PVTZ
    Blend: AUG-CC-PVTZ
  Basis Set: (AUG-CC-PVTZ AUX)
    Blend: AUG-CC-PVTZ-JKFIT
	 Reference Energy          =    -568.4308313849790011 [Eh]
	 Singles Energy            =      -0.0000000000000000 [Eh]
	 Same-Spin Energy          =      -0.6180442840909941 [Eh]
	 Opposite-Spin Energy      =      -1.8923828846614883 [Eh]
	 Correlation Energy        =      -2.5104271687524822 [Eh]
	 Total Energy              =    -570.9412585537314726 [Eh]

	 ================> DF-SCS-MP2 Energies <==================
	-----------------------------------------------------------
	 SCS Same-Spin Scale       =       0.3333333333333333 [-]
	 SCS Opposite-Spin Scale   =       1.2000000000000000 [-]
	 SCS Same-Spin Energy      =      -0.2060147613636647 [Eh]
	 SCS Opposite-Spin Energy  =      -2.2708594615937860 [Eh]
	 SCS Correlation Energy    =      -2.4768742229574507 [Eh]
	 SCS Total Energy          =    -570.9077056079364638 [Eh]
	-----------------------------------------------------------

  Dipole Moment: [D]
     X:    -4.7345      Y:    -0.4330      Z:     0.1050     Total:     4.7554

*** Psi4 exiting successfully. Buy a developer a beer!
