                               Psi4 1.3.2 release

  ==> Input File <==

--------------------------------------------------------------------------
#psi4
#
memory 32 gb

molecule  {
0 1
  O        3.1477550    -1.4485350    -0.2143050
  N        0.9062980    -1.2504610    -0.5893500
  N        1.5545360     1.4658350     0.3351760
  C       -0.6961080     0.5074870     0.0337420
  C       -0.3911060    -0.8453020    -0.2363150
  C        0.3444078     1.6061806    -0.1005619
  C        1.9201190     0.2388570     1.0398190
  C       -2.0282860     0.8425430     0.3372020
  C       -1.4126000    -1.8085370    -0.2310830
  C        2.0871850    -0.8915250     0.0446260
  C       -0.0584500     2.8482670    -0.7690020
  C       -3.0319510    -0.1194250     0.3623450
  C       -2.7230760    -1.4503270     0.0616580
  H        0.9974690    -2.0891180    -1.1576180
  H        1.1650960    -0.0456930     1.7889680
  H        2.8821530     0.3846540     1.5322680
  H       -2.2754030     1.8777800     0.5574090
  H       -1.1609050    -2.8458310    -0.4446670
  H       -0.7945500     3.4046450    -0.1790500
  H       -0.5037450     2.6486950    -1.7485080
  H        0.8332190     3.4662990    -0.8854880
  H       -4.0517820     0.1644530     0.6082680
  H       -3.5008180    -2.2099170     0.0672390
units angstrom
no_reorient  #important for SAPT in psi4, default
symmetry c1  #important for SAPT in psi4, default
}

set PROPERTIES_ORIGIN ["COM"]
properties('MP2/aug-cc-pvtz', properties = ['dipole'])
--------------------------------------------------------------------------

    Molecular point group: c1
  Charge       = 0
  Multiplicity = 1
  Basis Set: AUG-CC-PVTZ
    Blend: AUG-CC-PVTZ
  Basis Set: (AUG-CC-PVTZ AUX)
    Blend: AUG-CC-PVTZ-JKFIT

    Orbital Energies [Eh]
    ---------------------

    Doubly Occupied:

       1A    -20.532130     2A    -15.606098     3A    -15.566539
       4A    -11.362529     5A    -11.312921     6A    -11.304147
       7A    -11.268399     8A    -11.266897     9A    -11.264327
      10A    -11.263791    11A    -11.257316    12A    -11.252607
      13A    -11.234411    14A     -1.387236    15A     -1.274355
      16A     -1.232224    17A     -1.162719    18A     -1.065141
      19A     -1.034717    20A     -1.014929    21A     -0.955524
      22A     -0.881000    23A     -0.856593    24A     -0.793465
      25A     -0.766174    26A     -0.727709    27A     -0.691408
      28A     -0.677238    29A     -0.656109    30A     -0.648034
      31A     -0.625580    32A     -0.622150    33A     -0.604568
      34A     -0.590779    35A     -0.566301    36A     -0.560035
      37A     -0.546153    38A     -0.537832    39A     -0.526990
      40A     -0.517165    41A     -0.456806    42A     -0.443830
      43A     -0.414742    44A     -0.402879    45A     -0.354765
      46A     -0.330954

  @DF-RHF Final Energy:  -568.46384174619061

   => Energetics <=

    Nuclear Repulsion Energy =            760.2073979272582847
    One-Electron Energy =               -2280.5060538961538441
    Two-Electron Energy =                 951.8348142227050630
    Total Energy =                       -568.4638417461906101
  Basis Set: (AUG-CC-PVTZ AUX)
    Blend: AUG-CC-PVTZ-RI
    Molecular point group: c1

    Geometry (in Angstrom), charge = 0, multiplicity = 1:

       Center              X                  Y                   Z               Mass
    ------------   -----------------  -----------------  -----------------  -----------------
         O            3.110590836951    -1.424284618256    -0.212363706546    15.994914619570
         N            0.869133836951    -1.226210618256    -0.587408706546    14.003074004430
         N            1.517371836951     1.490085381744     0.337117293454    14.003074004430
         C           -0.733272163049     0.531737381744     0.035683293454    12.000000000000
         C           -0.428270163049    -0.821051618256    -0.234373706546    12.000000000000
         C            0.307243636951     1.630430981744    -0.098620606546    12.000000000000
         C            1.882954836951     0.263107381744     1.041760293454    12.000000000000
         C           -2.065450163049     0.866793381744     0.339143293454    12.000000000000
         C           -1.449764163049    -1.784286618256    -0.229141706546    12.000000000000
         C            2.050020836951    -0.867274618256     0.046567293454    12.000000000000
         C           -0.095614163049     2.872517381744    -0.767060706546    12.000000000000
         C           -3.069115163049    -0.095174618256     0.364286293454    12.000000000000
         C           -2.760240163049    -1.426076618256     0.063599293454    12.000000000000
         H            0.960304836951    -2.064867618256    -1.155676706546     1.007825032230
         H            1.127931836951    -0.021442618256     1.790909293454     1.007825032230
         H            2.844988836951     0.408904381744     1.534209293454     1.007825032230
         H           -2.312567163049     1.902030381744     0.559350293454     1.007825032230
         H           -1.198069163049    -2.821580618256    -0.442725706546     1.007825032230
         H           -0.831714163049     3.428895381744    -0.177108706546     1.007825032230
         H           -0.540909163049     2.672945381744    -1.746566706546     1.007825032230
         H            0.796054836951     3.490549381744    -0.883546706546     1.007825032230
         H           -4.088946163049     0.188703381744     0.610209293454     1.007825032230
         H           -3.537982163049    -2.185666618256     0.069180293454     1.007825032230

  Basis Set: AUG-CC-PVTZ
    Blend: AUG-CC-PVTZ
  Basis Set: (AUG-CC-PVTZ AUX)
    Blend: AUG-CC-PVTZ-JKFIT
	 Reference Energy          =    -568.4638417461906101 [Eh]
	 Singles Energy            =      -0.0000000000000000 [Eh]
	 Same-Spin Energy          =      -0.6143739612294151 [Eh]
	 Opposite-Spin Energy      =      -1.8869415270523695 [Eh]
	 Correlation Energy        =      -2.5013154882817847 [Eh]
	 Total Energy              =    -570.9651572344723718 [Eh]

	 ================> DF-SCS-MP2 Energies <==================
	-----------------------------------------------------------
	 SCS Same-Spin Scale       =       0.3333333333333333 [-]
	 SCS Opposite-Spin Scale   =       1.2000000000000000 [-]
	 SCS Same-Spin Energy      =      -0.2047913204098050 [Eh]
	 SCS Opposite-Spin Energy  =      -2.2643298324628431 [Eh]
	 SCS Correlation Energy    =      -2.4691211528726482 [Eh]
	 SCS Total Energy          =    -570.9329628990632273 [Eh]
	-----------------------------------------------------------

  Dipole Moment: [D]
     X:    -5.0703      Y:    -0.0926      Z:     0.1801     Total:     5.0744

*** Psi4 exiting successfully. Buy a developer a beer!
