                               Psi4 1.3.2 release

  ==> Input File <==

--------------------------------------------------------------------------
#psi4
#
memory 32 gb

molecule  {
0 1
  O        3.1477550    -1.4485350    -0.2143050
  N        0.9062980    -1.2504610    -0.5893500
  N        1.5545360     1.4658350     0.3351760
  C       -0.6961080     0.5074870     0.0337420
  C       -0.2973234    -0.8178988    -0.2496630
  C        0.3345050     1.5654110    -0.0838510
  C        1.9201190     0.2388570     1.0398190
  C       -2.0282860     0.8425430     0.3372020
  C       -1.4126000    -1.8085370    -0.2310830
  C        2.0871850    -0.8915250     0.0446260
  C       -0.0584500     2.8482670    -0.7690020
  C       -3.0319510    -0.1194250     0.3623450
  C       -2.7230760    -1.4503270     0.0616580
  H        0.9974690    -2.0891180    -1.1576180
  H        1.1650960    -0.0456930     1.7889680
  H        2.8821530     0.3846540     1.5322680
  H       -2.2754030     1.8777800     0.5574090
  H       -1.1609050    -2.8458310    -0.4446670
  H       -0.7945500     3.4046450    -0.1790500
  H       -0.5037450     2.6486950    -1.7485080
  H        0.8332190     3.4662990    -0.8854880
  H       -4.0517820     0.1644530     0.6082680
  H       -3.5008180    -2.2099170     0.0672390
units angstrom
no_reorient  #important for SAPT in psi4, default
symmetry c1  #important for SAPT in psi4, default
}

set PROPERTIES_ORIGIN ["COM"]
properties('MP2/aug-cc-pvtz', properties = ['dipole'])
--------------------------------------------------------------------------

    Molecular point group: c1
  Charge       = 0
  Multiplicity = 1
  Basis Set: AUG-CC-PVTZ
    Blend: AUG-CC-PVTZ
  Basis Set: (AUG-CC-PVTZ AUX)
    Blend: AUG-CC-PVTZ-JKFIT

    Orbital Energies [Eh]
    ---------------------

    Doubly Occupied:

       1A    -20.538506     2A    -15.615478     3A    -15.565296
       4A    -11.367620     5A    -11.319435     6A    -11.299893
       7A    -11.268841     8A    -11.264671     9A    -11.263271
      10A    -11.262656    11A    -11.262013    12A    -11.250350
      13A    -11.232622    14A     -1.396062    15A     -1.297988
      16A     -1.237963    17A     -1.157230    18A     -1.063962
      19A     -1.025883    20A     -1.009858    21A     -0.953274
      22A     -0.887629    23A     -0.864055    24A     -0.798291
      25A     -0.768360    26A     -0.738826    27A     -0.696019
      28A     -0.681344    29A     -0.658138    30A     -0.646650
      31A     -0.622850    32A     -0.618569    33A     -0.607626
      34A     -0.586011    35A     -0.572363    36A     -0.557668
      37A     -0.541461    38A     -0.540310    39A     -0.524531
      40A     -0.507459    41A     -0.461687    42A     -0.452103
      43A     -0.414768    44A     -0.405984    45A     -0.353727
      46A     -0.320774

  @DF-RHF Final Energy:  -568.45239384310867

   => Energetics <=

    Nuclear Repulsion Energy =            761.3008598601531958
    One-Electron Energy =               -2282.5463539275906442
    Two-Electron Energy =                 952.7931002243287821
    Total Energy =                       -568.4523938431086663
  Basis Set: (AUG-CC-PVTZ AUX)
    Blend: AUG-CC-PVTZ-RI
    Molecular point group: c1

    Geometry (in Angstrom), charge = 0, multiplicity = 1:

       Center              X                  Y                   Z               Mass
    ------------   -----------------  -----------------  -----------------  -----------------
         O            3.104808658800    -1.423363217561    -0.212595525016    15.994914619570
         N            0.863351658800    -1.225289217561    -0.587640525016    14.003074004430
         N            1.511589658800     1.491006782439     0.336885474984    14.003074004430
         C           -0.739054341200     0.532658782439     0.035451474984    12.000000000000
         C           -0.340269741200    -0.792727017561    -0.247953525016    12.000000000000
         C            0.291558658800     1.590582782439    -0.082141525016    12.000000000000
         C            1.877172658800     0.264028782439     1.041528474984    12.000000000000
         C           -2.071232341200     0.867714782439     0.338911474984    12.000000000000
         C           -1.455546341200    -1.783365217561    -0.229373525016    12.000000000000
         C            2.044238658800    -0.866353217561     0.046335474984    12.000000000000
         C           -0.101396341200     2.873438782439    -0.767292525016    12.000000000000
         C           -3.074897341200    -0.094253217561     0.364054474984    12.000000000000
         C           -2.766022341200    -1.425155217561     0.063367474984    12.000000000000
         H            0.954522658800    -2.063946217561    -1.155908525016     1.007825032230
         H            1.122149658800    -0.020521217561     1.790677474984     1.007825032230
         H            2.839206658800     0.409825782439     1.533977474984     1.007825032230
         H           -2.318349341200     1.902951782439     0.559118474984     1.007825032230
         H           -1.203851341200    -2.820659217561    -0.442957525016     1.007825032230
         H           -0.837496341200     3.429816782439    -0.177340525016     1.007825032230
         H           -0.546691341200     2.673866782439    -1.746798525016     1.007825032230
         H            0.790272658800     3.491470782439    -0.883778525016     1.007825032230
         H           -4.094728341200     0.189624782439     0.609977474984     1.007825032230
         H           -3.543764341200    -2.184745217561     0.068948474984     1.007825032230

  Basis Set: AUG-CC-PVTZ
    Blend: AUG-CC-PVTZ
  Basis Set: (AUG-CC-PVTZ AUX)
    Blend: AUG-CC-PVTZ-JKFIT
	 Reference Energy          =    -568.4523938431086663 [Eh]
	 Singles Energy            =      -0.0000000000000000 [Eh]
	 Same-Spin Energy          =      -0.6154297122403769 [Eh]
	 Opposite-Spin Energy      =      -1.8884771487307743 [Eh]
	 Correlation Energy        =      -2.5039068609711510 [Eh]
	 Total Energy              =    -570.9563007040798084 [Eh]

	 ================> DF-SCS-MP2 Energies <==================
	-----------------------------------------------------------
	 SCS Same-Spin Scale       =       0.3333333333333333 [-]
	 SCS Opposite-Spin Scale   =       1.2000000000000000 [-]
	 SCS Same-Spin Energy      =      -0.2051432374134590 [Eh]
	 SCS Opposite-Spin Energy  =      -2.2661725784769291 [Eh]
	 SCS Correlation Energy    =      -2.4713158158903878 [Eh]
	 SCS Total Energy          =    -570.9237096589990870 [Eh]
	-----------------------------------------------------------

  Dipole Moment: [D]
     X:    -4.7015      Y:    -0.3646      Z:     0.1362     Total:     4.7176

*** Psi4 exiting successfully. Buy a developer a beer!
