                               Psi4 1.3.2 release

  ==> Input File <==

--------------------------------------------------------------------------
#psi4
#
memory 32 gb

molecule  {
0 1
  O        3.1477550    -1.4485350    -0.2143050
  N        0.9062980    -1.2504610    -0.5893500
  N        1.5341150     1.3831699     0.3652577
  C       -0.6961080     0.5074870     0.0337420
  C       -0.3911060    -0.8453020    -0.2363150
  C        0.3345050     1.5654110    -0.0838510
  C        1.9201190     0.2388570     1.0398190
  C       -2.0282860     0.8425430     0.3372020
  C       -1.4126000    -1.8085370    -0.2310830
  C        2.0871850    -0.8915250     0.0446260
  C       -0.0584500     2.8482670    -0.7690020
  C       -3.0319510    -0.1194250     0.3623450
  C       -2.7230760    -1.4503270     0.0616580
  H        0.9974690    -2.0891180    -1.1576180
  H        1.1650960    -0.0456930     1.7889680
  H        2.8821530     0.3846540     1.5322680
  H       -2.2754030     1.8777800     0.5574090
  H       -1.1609050    -2.8458310    -0.4446670
  H       -0.7945500     3.4046450    -0.1790500
  H       -0.5037450     2.6486950    -1.7485080
  H        0.8332190     3.4662990    -0.8854880
  H       -4.0517820     0.1644530     0.6082680
  H       -3.5008180    -2.2099170     0.0672390
units angstrom
no_reorient  #important for SAPT in psi4, default
symmetry c1  #important for SAPT in psi4, default
}

set PROPERTIES_ORIGIN ["COM"]
properties('MP2/aug-cc-pvtz', properties = ['dipole'])
--------------------------------------------------------------------------

    Molecular point group: c1
  Charge       = 0
  Multiplicity = 1
  Basis Set: AUG-CC-PVTZ
    Blend: AUG-CC-PVTZ
  Basis Set: (AUG-CC-PVTZ AUX)
    Blend: AUG-CC-PVTZ-JKFIT

    Orbital Energies [Eh]
    ---------------------

    Doubly Occupied:

       1A    -20.531681     2A    -15.606295     3A    -15.559210
       4A    -11.361659     5A    -11.312821     6A    -11.304113
       7A    -11.264628     8A    -11.263948     9A    -11.263691
      10A    -11.262919    11A    -11.257165    12A    -11.252518
      13A    -11.237848    14A     -1.387327    15A     -1.280001
      16A     -1.240385    17A     -1.164020    18A     -1.071183
      19A     -1.034163    20A     -1.011894    21A     -0.952156
      22A     -0.886370    23A     -0.856759    24A     -0.796471
      25A     -0.771343    26A     -0.728594    27A     -0.696164
      28A     -0.680763    29A     -0.657000    30A     -0.650054
      31A     -0.625314    32A     -0.624405    33A     -0.606478
      34A     -0.587955    35A     -0.566350    36A     -0.559515
      37A     -0.552495    38A     -0.539600    39A     -0.527713
      40A     -0.516003    41A     -0.459328    42A     -0.443947
      43A     -0.409030    44A     -0.397898    45A     -0.352310
      46A     -0.330950

  @DF-RHF Final Energy:  -568.46178545519217

   => Energetics <=

    Nuclear Repulsion Energy =            762.6984044424667673
    One-Electron Energy =               -2285.4355187973742431
    Two-Electron Energy =                 954.2753288997154186
    Total Energy =                       -568.4617854551921710
  Basis Set: (AUG-CC-PVTZ AUX)
    Blend: AUG-CC-PVTZ-RI
    Molecular point group: c1

    Geometry (in Angstrom), charge = 0, multiplicity = 1:

       Center              X                  Y                   Z               Mass
    ------------   -----------------  -----------------  -----------------  -----------------
         O            3.112916158481    -1.414824558442    -0.215935452440    15.994914619570
         N            0.871459158481    -1.216750558442    -0.590980452440    14.003074004430
         N            1.499276158481     1.416880341558     0.363627247560    14.003074004430
         C           -0.730946841519     0.541197441558     0.032111547560    12.000000000000
         C           -0.425944841519    -0.811591558442    -0.237945452440    12.000000000000
         C            0.299666158481     1.599121441558    -0.085481452440    12.000000000000
         C            1.885280158481     0.272567441558     1.038188547560    12.000000000000
         C           -2.063124841519     0.876253441558     0.335571547560    12.000000000000
         C           -1.447438841519    -1.774826558442    -0.232713452440    12.000000000000
         C            2.052346158481    -0.857814558442     0.042995547560    12.000000000000
         C           -0.093288841519     2.881977441558    -0.770632452440    12.000000000000
         C           -3.066789841519    -0.085714558442     0.360714547560    12.000000000000
         C           -2.757914841519    -1.416616558442     0.060027547560    12.000000000000
         H            0.962630158481    -2.055407558442    -1.159248452440     1.007825032230
         H            1.130257158481    -0.011982558442     1.787337547560     1.007825032230
         H            2.847314158481     0.418364441558     1.530637547560     1.007825032230
         H           -2.310241841519     1.911490441558     0.555778547560     1.007825032230
         H           -1.195743841519    -2.812120558442    -0.446297452440     1.007825032230
         H           -0.829388841519     3.438355441558    -0.180680452440     1.007825032230
         H           -0.538583841519     2.682405441558    -1.750138452440     1.007825032230
         H            0.798380158481     3.500009441558    -0.887118452440     1.007825032230
         H           -4.086620841519     0.198163441558     0.606637547560     1.007825032230
         H           -3.535656841519    -2.176206558442     0.065608547560     1.007825032230

  Basis Set: AUG-CC-PVTZ
    Blend: AUG-CC-PVTZ
  Basis Set: (AUG-CC-PVTZ AUX)
    Blend: AUG-CC-PVTZ-JKFIT
	 Reference Energy          =    -568.4617854551921710 [Eh]
	 Singles Energy            =      -0.0000000000000000 [Eh]
	 Same-Spin Energy          =      -0.6150199104320360 [Eh]
	 Opposite-Spin Energy      =      -1.8864454025792790 [Eh]
	 Correlation Energy        =      -2.5014653130113151 [Eh]
	 Total Energy              =    -570.9632507682034657 [Eh]

	 ================> DF-SCS-MP2 Energies <==================
	-----------------------------------------------------------
	 SCS Same-Spin Scale       =       0.3333333333333333 [-]
	 SCS Opposite-Spin Scale   =       1.2000000000000000 [-]
	 SCS Same-Spin Energy      =      -0.2050066368106787 [Eh]
	 SCS Opposite-Spin Energy  =      -2.2637344830951345 [Eh]
	 SCS Correlation Energy    =      -2.4687411199058129 [Eh]
	 SCS Total Energy          =    -570.9305265750979288 [Eh]
	-----------------------------------------------------------

  Dipole Moment: [D]
     X:    -5.0171      Y:    -0.0729      Z:     0.1534     Total:     5.0199

*** Psi4 exiting successfully. Buy a developer a beer!
