                               Psi4 1.3.2 release

  ==> Input File <==

--------------------------------------------------------------------------
#psi4
#
memory 32 gb

molecule  {
0 1
  O        3.1477550    -1.4485350    -0.2143050
  N        0.9062980    -1.2504610    -0.5893500
  N        1.5545360     1.4658350     0.3351760
  C       -0.6722934     0.5132029     0.0308800
  C       -0.3911060    -0.8453020    -0.2363150
  C        0.3345050     1.5654110    -0.0838510
  C        1.9201190     0.2388570     1.0398190
  C       -2.0282860     0.8425430     0.3372020
  C       -1.4126000    -1.8085370    -0.2310830
  C        2.0871850    -0.8915250     0.0446260
  C       -0.0584500     2.8482670    -0.7690020
  C       -3.0319510    -0.1194250     0.3623450
  C       -2.7230760    -1.4503270     0.0616580
  H        0.9974690    -2.0891180    -1.1576180
  H        1.1650960    -0.0456930     1.7889680
  H        2.8821530     0.3846540     1.5322680
  H       -2.2754030     1.8777800     0.5574090
  H       -1.1609050    -2.8458310    -0.4446670
  H       -0.7945500     3.4046450    -0.1790500
  H       -0.5037450     2.6486950    -1.7485080
  H        0.8332190     3.4662990    -0.8854880
  H       -4.0517820     0.1644530     0.6082680
  H       -3.5008180    -2.2099170     0.0672390
units angstrom
no_reorient  #important for SAPT in psi4, default
symmetry c1  #important for SAPT in psi4, default
}

set PROPERTIES_ORIGIN ["COM"]
properties('MP2/aug-cc-pvtz', properties = ['dipole'])
--------------------------------------------------------------------------

    Molecular point group: c1
  Charge       = 0
  Multiplicity = 1
  Basis Set: AUG-CC-PVTZ
    Blend: AUG-CC-PVTZ
  Basis Set: (AUG-CC-PVTZ AUX)
    Blend: AUG-CC-PVTZ-JKFIT

    Orbital Energies [Eh]
    ---------------------

    Doubly Occupied:

       1A    -20.531987     2A    -15.606592     3A    -15.566685
       4A    -11.362430     5A    -11.315101     6A    -11.300903
       7A    -11.269062     8A    -11.266800     9A    -11.266425
      10A    -11.266371    11A    -11.258688    12A    -11.254079
      13A    -11.234341    14A     -1.387306    15A     -1.276496
      16A     -1.233413    17A     -1.162701    18A     -1.066407
      19A     -1.034271    20A     -1.010892    21A     -0.951673
      22A     -0.888251    23A     -0.857131    24A     -0.795833
      25A     -0.768331    26A     -0.729545    27A     -0.691408
      28A     -0.677732    29A     -0.658028    30A     -0.648936
      31A     -0.623991    32A     -0.618707    33A     -0.604605
      34A     -0.586671    35A     -0.566649    36A     -0.558637
      37A     -0.544235    38A     -0.538582    39A     -0.527164
      40A     -0.516146    41A     -0.457185    42A     -0.444328
      43A     -0.418688    44A     -0.405191    45A     -0.352680
      46A     -0.332878

  @DF-RHF Final Energy:  -568.46413203893451

   => Energetics <=

    Nuclear Repulsion Energy =            760.8285755719796271
    One-Electron Energy =               -2281.7171055545622949
    Two-Electron Energy =                 952.4243979436481595
    Total Energy =                       -568.4641320389345083
  Basis Set: (AUG-CC-PVTZ AUX)
    Blend: AUG-CC-PVTZ-RI
    Molecular point group: c1

    Geometry (in Angstrom), charge = 0, multiplicity = 1:

       Center              X                  Y                   Z               Mass
    ------------   -----------------  -----------------  -----------------  -----------------
         O            3.109631839600    -1.421868223149    -0.213318367942    15.994914619570
         N            0.868174839600    -1.223794223149    -0.588363367942    14.003074004430
         N            1.516412839600     1.492501776851     0.336162632058    14.003074004430
         C           -0.710416560400     0.539869676851     0.031866632058    12.000000000000
         C           -0.429229160400    -0.818635223149    -0.235328367942    12.000000000000
         C            0.296381839600     1.592077776851    -0.082864367942    12.000000000000
         C            1.881995839600     0.265523776851     1.040805632058    12.000000000000
         C           -2.066409160400     0.869209776851     0.338188632058    12.000000000000
         C           -1.450723160400    -1.781870223149    -0.230096367942    12.000000000000
         C            2.049061839600    -0.864858223149     0.045612632058    12.000000000000
         C           -0.096573160400     2.874933776851    -0.768015367942    12.000000000000
         C           -3.070074160400    -0.092758223149     0.363331632058    12.000000000000
         C           -2.761199160400    -1.423660223149     0.062644632058    12.000000000000
         H            0.959345839600    -2.062451223149    -1.156631367942     1.007825032230
         H            1.126972839600    -0.019026223149     1.789954632058     1.007825032230
         H            2.844029839600     0.411320776851     1.533254632058     1.007825032230
         H           -2.313526160400     1.904446776851     0.558395632058     1.007825032230
         H           -1.199028160400    -2.819164223149    -0.443680367942     1.007825032230
         H           -0.832673160400     3.431311776851    -0.178063367942     1.007825032230
         H           -0.541868160400     2.675361776851    -1.747521367942     1.007825032230
         H            0.795095839600     3.492965776851    -0.884501367942     1.007825032230
         H           -4.089905160400     0.191119776851     0.609254632058     1.007825032230
         H           -3.538941160400    -2.183250223149     0.068225632058     1.007825032230

  Basis Set: AUG-CC-PVTZ
    Blend: AUG-CC-PVTZ
  Basis Set: (AUG-CC-PVTZ AUX)
    Blend: AUG-CC-PVTZ-JKFIT
	 Reference Energy          =    -568.4641320389345083 [Eh]
	 Singles Energy            =      -0.0000000000000000 [Eh]
	 Same-Spin Energy          =      -0.6147534150712102 [Eh]
	 Opposite-Spin Energy      =      -1.8876294296577503 [Eh]
	 Correlation Energy        =      -2.5023828447289604 [Eh]
	 Total Energy              =    -570.9665148836634216 [Eh]

	 ================> DF-SCS-MP2 Energies <==================
	-----------------------------------------------------------
	 SCS Same-Spin Scale       =       0.3333333333333333 [-]
	 SCS Opposite-Spin Scale   =       1.2000000000000000 [-]
	 SCS Same-Spin Energy      =      -0.2049178050237367 [Eh]
	 SCS Opposite-Spin Energy  =      -2.2651553155893001 [Eh]
	 SCS Correlation Energy    =      -2.4700731206130366 [Eh]
	 SCS Total Energy          =    -570.9342051595475596 [Eh]
	-----------------------------------------------------------

  Dipole Moment: [D]
     X:    -5.1396      Y:    -0.2604      Z:     0.2201     Total:     5.1509

*** Psi4 exiting successfully. Buy a developer a beer!
