                               Psi4 1.3.2 release

  ==> Input File <==

--------------------------------------------------------------------------
#psi4
#
memory 32 gb

molecule  {
0 1
  O        3.1477550    -1.4485350    -0.2143050
  N        0.9062980    -1.2504610    -0.5893500
  N        1.5545360     1.4658350     0.3351760
  C       -0.7028485     0.4840326     0.0310410
  C       -0.3911060    -0.8453020    -0.2363150
  C        0.3345050     1.5654110    -0.0838510
  C        1.9201190     0.2388570     1.0398190
  C       -2.0282860     0.8425430     0.3372020
  C       -1.4126000    -1.8085370    -0.2310830
  C        2.0871850    -0.8915250     0.0446260
  C       -0.0584500     2.8482670    -0.7690020
  C       -3.0319510    -0.1194250     0.3623450
  C       -2.7230760    -1.4503270     0.0616580
  H        0.9974690    -2.0891180    -1.1576180
  H        1.1650960    -0.0456930     1.7889680
  H        2.8821530     0.3846540     1.5322680
  H       -2.2754030     1.8777800     0.5574090
  H       -1.1609050    -2.8458310    -0.4446670
  H       -0.7945500     3.4046450    -0.1790500
  H       -0.5037450     2.6486950    -1.7485080
  H        0.8332190     3.4662990    -0.8854880
  H       -4.0517820     0.1644530     0.6082680
  H       -3.5008180    -2.2099170     0.0672390
units angstrom
no_reorient  #important for SAPT in psi4, default
symmetry c1  #important for SAPT in psi4, default
}

set PROPERTIES_ORIGIN ["COM"]
properties('MP2/aug-cc-pvtz', properties = ['dipole'])
--------------------------------------------------------------------------

    Molecular point group: c1
  Charge       = 0
  Multiplicity = 1
  Basis Set: AUG-CC-PVTZ
    Blend: AUG-CC-PVTZ
  Basis Set: (AUG-CC-PVTZ AUX)
    Blend: AUG-CC-PVTZ-JKFIT

    Orbital Energies [Eh]
    ---------------------

    Doubly Occupied:

       1A    -20.532086     2A    -15.606636     3A    -15.566962
       4A    -11.362430     5A    -11.311494     6A    -11.303597
       7A    -11.267006     8A    -11.266196     9A    -11.264866
      10A    -11.264685    11A    -11.258289    12A    -11.253796
      13A    -11.234605    14A     -1.387335    15A     -1.276131
      16A     -1.232216    17A     -1.165690    18A     -1.063999
      19A     -1.035494    20A     -1.012932    21A     -0.951568
      22A     -0.883577    23A     -0.859146    24A     -0.794831
      25A     -0.767970    26A     -0.727838    27A     -0.691099
      28A     -0.677564    29A     -0.656457    30A     -0.649655
      31A     -0.626588    32A     -0.618184    33A     -0.604667
      34A     -0.586383    35A     -0.567035    36A     -0.558866
      37A     -0.542547    38A     -0.538924    39A     -0.528569
      40A     -0.516541    41A     -0.457413    42A     -0.444419
      43A     -0.416799    44A     -0.404322    45A     -0.355276
      46A     -0.333875

  @DF-RHF Final Energy:  -568.46564867660277

   => Energetics <=

    Nuclear Repulsion Energy =            760.8527671277056470
    One-Electron Energy =               -2281.7837134800984131
    Two-Electron Energy =                 952.4652976757899978
    Total Energy =                       -568.4656486766027683
  Basis Set: (AUG-CC-PVTZ AUX)
    Blend: AUG-CC-PVTZ-RI
    Molecular point group: c1

    Geometry (in Angstrom), charge = 0, multiplicity = 1:

       Center              X                  Y                   Z               Mass
    ------------   -----------------  -----------------  -----------------  -----------------
         O            3.111738127784    -1.419857394901    -0.213329466332    15.994914619570
         N            0.870281127784    -1.221783394901    -0.588374466332    14.003074004430
         N            1.518519127784     1.494512605099     0.336151533668    14.003074004430
         C           -0.738865372216     0.512710205099     0.032016533668    12.000000000000
         C           -0.427122872216    -0.816624394901    -0.235339466332    12.000000000000
         C            0.298488127784     1.594088605099    -0.082875466332    12.000000000000
         C            1.884102127784     0.267534605099     1.040794533668    12.000000000000
         C           -2.064302872216     0.871220605099     0.338177533668    12.000000000000
         C           -1.448616872216    -1.779859394901    -0.230107466332    12.000000000000
         C            2.051168127784    -0.862847394901     0.045601533668    12.000000000000
         C           -0.094466872216     2.876944605099    -0.768026466332    12.000000000000
         C           -3.067967872216    -0.090747394901     0.363320533668    12.000000000000
         C           -2.759092872216    -1.421649394901     0.062633533668    12.000000000000
         H            0.961452127784    -2.060440394901    -1.156642466332     1.007825032230
         H            1.129079127784    -0.017015394901     1.789943533668     1.007825032230
         H            2.846136127784     0.413331605099     1.533243533668     1.007825032230
         H           -2.311419872216     1.906457605099     0.558384533668     1.007825032230
         H           -1.196921872216    -2.817153394901    -0.443691466332     1.007825032230
         H           -0.830566872216     3.433322605099    -0.178074466332     1.007825032230
         H           -0.539761872216     2.677372605099    -1.747532466332     1.007825032230
         H            0.797202127784     3.494976605099    -0.884512466332     1.007825032230
         H           -4.087798872216     0.193130605099     0.609243533668     1.007825032230
         H           -3.536834872216    -2.181239394901     0.068214533668     1.007825032230

  Basis Set: AUG-CC-PVTZ
    Blend: AUG-CC-PVTZ
  Basis Set: (AUG-CC-PVTZ AUX)
    Blend: AUG-CC-PVTZ-JKFIT
	 Reference Energy          =    -568.4656486766027683 [Eh]
	 Singles Energy            =      -0.0000000000000000 [Eh]
	 Same-Spin Energy          =      -0.6141442042712175 [Eh]
	 Opposite-Spin Energy      =      -1.8868203637158885 [Eh]
	 Correlation Energy        =      -2.5009645679871060 [Eh]
	 Total Energy              =    -570.9666132445898938 [Eh]

	 ================> DF-SCS-MP2 Energies <==================
	-----------------------------------------------------------
	 SCS Same-Spin Scale       =       0.3333333333333333 [-]
	 SCS Opposite-Spin Scale   =       1.2000000000000000 [-]
	 SCS Same-Spin Energy      =      -0.2047147347570725 [Eh]
	 SCS Opposite-Spin Energy  =      -2.2641844364590660 [Eh]
	 SCS Correlation Energy    =      -2.4688991712161386 [Eh]
	 SCS Total Energy          =    -570.9345478478188625 [Eh]
	-----------------------------------------------------------

  Dipole Moment: [D]
     X:    -5.1144      Y:    -0.2149      Z:     0.2277     Total:     5.1240

*** Psi4 exiting successfully. Buy a developer a beer!
