                               Psi4 1.3.2 release

  ==> Input File <==

--------------------------------------------------------------------------
#psi4
#
memory 32 gb

molecule  {
0 1
  O        3.1477550    -1.4485350    -0.2143050
  N        0.9062980    -1.2504610    -0.5893500
  N        1.5684612     1.5497475     0.3048409
  C       -0.6961080     0.5074870     0.0337420
  C       -0.3911060    -0.8453020    -0.2363150
  C        0.3345050     1.5654110    -0.0838510
  C        1.9201190     0.2388570     1.0398190
  C       -2.0282860     0.8425430     0.3372020
  C       -1.4126000    -1.8085370    -0.2310830
  C        2.0871850    -0.8915250     0.0446260
  C       -0.0584500     2.8482670    -0.7690020
  C       -3.0319510    -0.1194250     0.3623450
  C       -2.7230760    -1.4503270     0.0616580
  H        0.9974690    -2.0891180    -1.1576180
  H        1.1650960    -0.0456930     1.7889680
  H        2.8821530     0.3846540     1.5322680
  H       -2.2754030     1.8777800     0.5574090
  H       -1.1609050    -2.8458310    -0.4446670
  H       -0.7945500     3.4046450    -0.1790500
  H       -0.5037450     2.6486950    -1.7485080
  H        0.8332190     3.4662990    -0.8854880
  H       -4.0517820     0.1644530     0.6082680
  H       -3.5008180    -2.2099170     0.0672390
units angstrom
no_reorient  #important for SAPT in psi4, default
symmetry c1  #important for SAPT in psi4, default
}

set PROPERTIES_ORIGIN ["COM"]
properties('MP2/aug-cc-pvtz', properties = ['dipole'])
--------------------------------------------------------------------------

    Molecular point group: c1
  Charge       = 0
  Multiplicity = 1
  Basis Set: AUG-CC-PVTZ
    Blend: AUG-CC-PVTZ
  Basis Set: (AUG-CC-PVTZ AUX)
    Blend: AUG-CC-PVTZ-JKFIT

    Orbital Energies [Eh]
    ---------------------

    Doubly Occupied:

       1A    -20.532761     2A    -15.607772     3A    -15.575384
       4A    -11.363565     5A    -11.315893     6A    -11.301626
       7A    -11.269910     8A    -11.269304     9A    -11.267932
      10A    -11.266844    11A    -11.259290    12A    -11.254926
      13A    -11.230857    14A     -1.387726    15A     -1.274336
      16A     -1.226680    17A     -1.165101    18A     -1.061428
      19A     -1.035982    20A     -1.009692    21A     -0.951702
      22A     -0.885311    23A     -0.859301    24A     -0.795498
      25A     -0.764893    26A     -0.729513    27A     -0.687074
      28A     -0.675596    29A     -0.657891    30A     -0.645856
      31A     -0.627104    32A     -0.613655    33A     -0.602116
      34A     -0.585338    35A     -0.567513    36A     -0.558490
      37A     -0.542497    38A     -0.534932    39A     -0.526261
      40A     -0.513483    41A     -0.456546    42A     -0.445115
      43A     -0.423569    44A     -0.409508    45A     -0.357257
      46A     -0.333343

  @DF-RHF Final Energy:  -568.45812731608009

   => Energetics <=

    Nuclear Repulsion Energy =            758.9176652208682299
    One-Electron Energy =               -2277.8988490635938433
    Two-Electron Energy =                 950.5230565266455187
    Total Energy =                       -568.4581273160800947
  Basis Set: (AUG-CC-PVTZ AUX)
    Blend: AUG-CC-PVTZ-RI
    Molecular point group: c1

    Geometry (in Angstrom), charge = 0, multiplicity = 1:

       Center              X                  Y                   Z               Mass
    ------------   -----------------  -----------------  -----------------  -----------------
         O            3.110153323700    -1.428224188879    -0.211075478517    15.994914619570
         N            0.868696323700    -1.230150188879    -0.586120478517    14.003074004430
         N            1.530859523700     1.570058311121     0.308070421483    14.003074004430
         C           -0.733709676300     0.527797811121     0.036971521483    12.000000000000
         C           -0.428707676300    -0.824991188879    -0.233085478517    12.000000000000
         C            0.296903323700     1.585721811121    -0.080621478517    12.000000000000
         C            1.882517323700     0.259167811121     1.043048521483    12.000000000000
         C           -2.065887676300     0.862853811121     0.340431521483    12.000000000000
         C           -1.450201676300    -1.788226188879    -0.227853478517    12.000000000000
         C            2.049583323700    -0.871214188879     0.047855521483    12.000000000000
         C           -0.096051676300     2.868577811121    -0.765772478517    12.000000000000
         C           -3.069552676300    -0.099114188879     0.365574521483    12.000000000000
         C           -2.760677676300    -1.430016188879     0.064887521483    12.000000000000
         H            0.959867323700    -2.068807188879    -1.154388478517     1.007825032230
         H            1.127494323700    -0.025382188879     1.792197521483     1.007825032230
         H            2.844551323700     0.404964811121     1.535497521483     1.007825032230
         H           -2.313004676300     1.898090811121     0.560638521483     1.007825032230
         H           -1.198506676300    -2.825520188879    -0.441437478517     1.007825032230
         H           -0.832151676300     3.424955811121    -0.175820478517     1.007825032230
         H           -0.541346676300     2.669005811121    -1.745278478517     1.007825032230
         H            0.795617323700     3.486609811121    -0.882258478517     1.007825032230
         H           -4.089383676300     0.184763811121     0.611497521483     1.007825032230
         H           -3.538419676300    -2.189606188879     0.070468521483     1.007825032230

  Basis Set: AUG-CC-PVTZ
    Blend: AUG-CC-PVTZ
  Basis Set: (AUG-CC-PVTZ AUX)
    Blend: AUG-CC-PVTZ-JKFIT
	 Reference Energy          =    -568.4581273160800947 [Eh]
	 Singles Energy            =      -0.0000000000000000 [Eh]
	 Same-Spin Energy          =      -0.6145758626770983 [Eh]
	 Opposite-Spin Energy      =      -1.8890595224672511 [Eh]
	 Correlation Energy        =      -2.5036353851443494 [Eh]
	 Total Energy              =    -570.9617627012244157 [Eh]

	 ================> DF-SCS-MP2 Energies <==================
	-----------------------------------------------------------
	 SCS Same-Spin Scale       =       0.3333333333333333 [-]
	 SCS Opposite-Spin Scale   =       1.2000000000000000 [-]
	 SCS Same-Spin Energy      =      -0.2048586208923661 [Eh]
	 SCS Opposite-Spin Energy  =      -2.2668714269607011 [Eh]
	 SCS Correlation Energy    =      -2.4717300478530673 [Eh]
	 SCS Total Energy          =    -570.9298573639331380 [Eh]
	-----------------------------------------------------------

  Dipole Moment: [D]
     X:    -5.1896      Y:    -0.3777      Z:     0.2789     Total:     5.2108

*** Psi4 exiting successfully. Buy a developer a beer!
