                               Psi4 1.3.2 release

  ==> Input File <==

--------------------------------------------------------------------------
#psi4
#
memory 32 gb

molecule  {
0 1
  O        3.1477550    -1.4485350    -0.2143050
  N        0.9062980    -1.2504610    -0.5893500
  N        1.5545360     1.4658350     0.3351760
  C       -0.6961080     0.5074870     0.0337420
  C       -0.3291712    -0.7686997    -0.1272173
  C        0.3345050     1.5654110    -0.0838510
  C        1.9201190     0.2388570     1.0398190
  C       -2.0282860     0.8425430     0.3372020
  C       -1.4126000    -1.8085370    -0.2310830
  C        2.0871850    -0.8915250     0.0446260
  C       -0.0584500     2.8482670    -0.7690020
  C       -3.0319510    -0.1194250     0.3623450
  C       -2.7230760    -1.4503270     0.0616580
  H        0.9974690    -2.0891180    -1.1576180
  H        1.1650960    -0.0456930     1.7889680
  H        2.8821530     0.3846540     1.5322680
  H       -2.2754030     1.8777800     0.5574090
  H       -1.1609050    -2.8458310    -0.4446670
  H       -0.7945500     3.4046450    -0.1790500
  H       -0.5037450     2.6486950    -1.7485080
  H        0.8332190     3.4662990    -0.8854880
  H       -4.0517820     0.1644530     0.6082680
  H       -3.5008180    -2.2099170     0.0672390
units angstrom
no_reorient  #important for SAPT in psi4, default
symmetry c1  #important for SAPT in psi4, default
}

set PROPERTIES_ORIGIN ["COM"]
properties('MP2/aug-cc-pvtz', properties = ['dipole'])
--------------------------------------------------------------------------

    Molecular point group: c1
  Charge       = 0
  Multiplicity = 1
  Basis Set: AUG-CC-PVTZ
    Blend: AUG-CC-PVTZ
  Basis Set: (AUG-CC-PVTZ AUX)
    Blend: AUG-CC-PVTZ-JKFIT

    Orbital Energies [Eh]
    ---------------------

    Doubly Occupied:

       1A    -20.530677     2A    -15.608624     3A    -15.567216
       4A    -11.359292     5A    -11.315156     6A    -11.301449
       7A    -11.267869     8A    -11.267101     9A    -11.265735
      10A    -11.263252    11A    -11.259386    12A    -11.255306
      13A    -11.233945    14A     -1.386886    15A     -1.278770
      16A     -1.232229    17A     -1.164562    18A     -1.069174
      19A     -1.024001    20A     -1.018013    21A     -0.951204
      22A     -0.879011    23A     -0.863443    24A     -0.791196
      25A     -0.772245    26A     -0.727079    27A     -0.695239
      28A     -0.678112    29A     -0.659049    30A     -0.651250
      31A     -0.623443    32A     -0.617138    33A     -0.600548
      34A     -0.586237    35A     -0.565443    36A     -0.557761
      37A     -0.542254    38A     -0.540881    39A     -0.527232
      40A     -0.514076    41A     -0.456344    42A     -0.443594
      43A     -0.417261    44A     -0.403864    45A     -0.357264
      46A     -0.331020

  @DF-RHF Final Energy:  -568.44762457756758

   => Energetics <=

    Nuclear Repulsion Energy =            761.7205592457445391
    One-Electron Energy =               -2283.4946998604500550
    Two-Electron Energy =                 953.3265160371380489
    Total Energy =                       -568.4476245775675807
  Basis Set: (AUG-CC-PVTZ AUX)
    Blend: AUG-CC-PVTZ-RI
    Molecular point group: c1

    Geometry (in Angstrom), charge = 0, multiplicity = 1:

       Center              X                  Y                   Z               Mass
    ------------   -----------------  -----------------  -----------------  -----------------
         O            3.107004058089    -1.426754713023    -0.221036208605    15.994914619570
         N            0.865547058089    -1.228680713023    -0.596081208605    14.003074004430
         N            1.513785058089     1.487615286977     0.328444791395    14.003074004430
         C           -0.736858941911     0.529267286977     0.027010791395    12.000000000000
         C           -0.369922141911    -0.746919413023    -0.133948508605    12.000000000000
         C            0.293754058089     1.587191286977    -0.090582208605    12.000000000000
         C            1.879368058089     0.260637286977     1.033087791395    12.000000000000
         C           -2.069036941911     0.864323286977     0.330470791395    12.000000000000
         C           -1.453350941911    -1.786756713023    -0.237814208605    12.000000000000
         C            2.046434058089    -0.869744713023     0.037894791395    12.000000000000
         C           -0.099200941911     2.870047286977    -0.775733208605    12.000000000000
         C           -3.072701941911    -0.097644713023     0.355613791395    12.000000000000
         C           -2.763826941911    -1.428546713023     0.054926791395    12.000000000000
         H            0.956718058089    -2.067337713023    -1.164349208605     1.007825032230
         H            1.124345058089    -0.023912713023     1.782236791395     1.007825032230
         H            2.841402058089     0.406434286977     1.525536791395     1.007825032230
         H           -2.316153941911     1.899560286977     0.550677791395     1.007825032230
         H           -1.201655941911    -2.824050713023    -0.451398208605     1.007825032230
         H           -0.835300941911     3.426425286977    -0.185781208605     1.007825032230
         H           -0.544495941911     2.670475286977    -1.755239208605     1.007825032230
         H            0.792468058089     3.488079286977    -0.892219208605     1.007825032230
         H           -4.092532941911     0.186233286977     0.601536791395     1.007825032230
         H           -3.541568941911    -2.188136713023     0.060507791395     1.007825032230

  Basis Set: AUG-CC-PVTZ
    Blend: AUG-CC-PVTZ
  Basis Set: (AUG-CC-PVTZ AUX)
    Blend: AUG-CC-PVTZ-JKFIT
	 Reference Energy          =    -568.4476245775675807 [Eh]
	 Singles Energy            =      -0.0000000000000000 [Eh]
	 Same-Spin Energy          =      -0.6144915414167862 [Eh]
	 Opposite-Spin Energy      =      -1.8885398471968824 [Eh]
	 Correlation Energy        =      -2.5030313886136684 [Eh]
	 Total Energy              =    -570.9506559661812162 [Eh]

	 ================> DF-SCS-MP2 Energies <==================
	-----------------------------------------------------------
	 SCS Same-Spin Scale       =       0.3333333333333333 [-]
	 SCS Opposite-Spin Scale   =       1.2000000000000000 [-]
	 SCS Same-Spin Energy      =      -0.2048305138055954 [Eh]
	 SCS Opposite-Spin Energy  =      -2.2662478166362590 [Eh]
	 SCS Correlation Energy    =      -2.4710783304418542 [Eh]
	 SCS Total Energy          =    -570.9187029080094362 [Eh]
	-----------------------------------------------------------

  Dipole Moment: [D]
     X:    -5.1424      Y:    -0.2451      Z:     0.2162     Total:     5.1528

*** Psi4 exiting successfully. Buy a developer a beer!
