                               Psi4 1.3.2 release

  ==> Input File <==

--------------------------------------------------------------------------
#psi4
#
memory 32 gb

molecule  {
0 1
  O        3.1477550    -1.4485350    -0.2143050
  N        0.9062980    -1.2504610    -0.5893500
  N        1.5545360     1.4658350     0.3351760
  C       -0.6642497     0.6501044     0.0518585
  C       -0.3911060    -0.8453020    -0.2363150
  C        0.3345050     1.5654110    -0.0838510
  C        1.9201190     0.2388570     1.0398190
  C       -2.0282860     0.8425430     0.3372020
  C       -1.4126000    -1.8085370    -0.2310830
  C        2.0871850    -0.8915250     0.0446260
  C       -0.0584500     2.8482670    -0.7690020
  C       -3.0319510    -0.1194250     0.3623450
  C       -2.7230760    -1.4503270     0.0616580
  H        0.9974690    -2.0891180    -1.1576180
  H        1.1650960    -0.0456930     1.7889680
  H        2.8821530     0.3846540     1.5322680
  H       -2.2754030     1.8777800     0.5574090
  H       -1.1609050    -2.8458310    -0.4446670
  H       -0.7945500     3.4046450    -0.1790500
  H       -0.5037450     2.6486950    -1.7485080
  H        0.8332190     3.4662990    -0.8854880
  H       -4.0517820     0.1644530     0.6082680
  H       -3.5008180    -2.2099170     0.0672390
units angstrom
no_reorient  #important for SAPT in psi4, default
symmetry c1  #important for SAPT in psi4, default
}

set PROPERTIES_ORIGIN ["COM"]
properties('MP2/aug-cc-pvtz', properties = ['dipole'])
--------------------------------------------------------------------------

    Molecular point group: c1
  Charge       = 0
  Multiplicity = 1
  Basis Set: AUG-CC-PVTZ
    Blend: AUG-CC-PVTZ
  Basis Set: (AUG-CC-PVTZ AUX)
    Blend: AUG-CC-PVTZ-JKFIT

    Orbital Energies [Eh]
    ---------------------

    Doubly Occupied:

       1A    -20.533381     2A    -15.609988     3A    -15.566924
       4A    -11.363612     5A    -11.329679     6A    -11.293394
       7A    -11.271463     8A    -11.270594     9A    -11.270274
      10A    -11.266837    11A    -11.258412    12A    -11.254219
      13A    -11.231731    14A     -1.388504    15A     -1.276305
      16A     -1.237216    17A     -1.159926    18A     -1.077410
      19A     -1.035360    20A     -1.001086    21A     -0.952575
      22A     -0.900836    23A     -0.853358    24A     -0.797811
      25A     -0.770855    26A     -0.734104    27A     -0.693479
      28A     -0.678986    29A     -0.663563    30A     -0.642312
      31A     -0.625291    32A     -0.615896    33A     -0.604950
      34A     -0.587208    35A     -0.566993    36A     -0.559704
      37A     -0.550783    38A     -0.538519    39A     -0.523784
      40A     -0.501978    41A     -0.458048    42A     -0.445680
      43A     -0.418964    44A     -0.410935    45A     -0.354119
      46A     -0.322434

  @DF-RHF Final Energy:  -568.43518625338754

   => Energetics <=

    Nuclear Repulsion Energy =            760.1743531742292816
    One-Electron Energy =               -2280.2801158830452550
    Two-Electron Energy =                 951.6705764554284315
    Total Energy =                       -568.4351862533875419
  Basis Set: (AUG-CC-PVTZ AUX)
    Blend: AUG-CC-PVTZ-RI
    Molecular point group: c1

    Geometry (in Angstrom), charge = 0, multiplicity = 1:

       Center              X                  Y                   Z               Mass
    ------------   -----------------  -----------------  -----------------  -----------------
         O            3.109077354415    -1.431305404237    -0.214764501867    15.994914619570
         N            0.867620354415    -1.233231404237    -0.589809501867    14.003074004430
         N            1.515858354415     1.483064595763     0.334716498133    14.003074004430
         C           -0.702927345585     0.667333995763     0.051398998133    12.000000000000
         C           -0.429783645585    -0.828072404237    -0.236774501867    12.000000000000
         C            0.295827354415     1.582640595763    -0.084310501867    12.000000000000
         C            1.881441354415     0.256086595763     1.039359498133    12.000000000000
         C           -2.066963645585     0.859772595763     0.336742498133    12.000000000000
         C           -1.451277645585    -1.791307404237    -0.231542501867    12.000000000000
         C            2.048507354415    -0.874295404237     0.044166498133    12.000000000000
         C           -0.097127645585     2.865496595763    -0.769461501867    12.000000000000
         C           -3.070628645585    -0.102195404237     0.361885498133    12.000000000000
         C           -2.761753645585    -1.433097404237     0.061198498133    12.000000000000
         H            0.958791354415    -2.071888404237    -1.158077501867     1.007825032230
         H            1.126418354415    -0.028463404237     1.788508498133     1.007825032230
         H            2.843475354415     0.401883595763     1.531808498133     1.007825032230
         H           -2.314080645585     1.895009595763     0.556949498133     1.007825032230
         H           -1.199582645585    -2.828601404237    -0.445126501867     1.007825032230
         H           -0.833227645585     3.421874595763    -0.179509501867     1.007825032230
         H           -0.542422645585     2.665924595763    -1.748967501867     1.007825032230
         H            0.794541354415     3.483528595763    -0.885947501867     1.007825032230
         H           -4.090459645585     0.181682595763     0.607808498133     1.007825032230
         H           -3.539495645585    -2.192687404237     0.066779498133     1.007825032230

  Basis Set: AUG-CC-PVTZ
    Blend: AUG-CC-PVTZ
  Basis Set: (AUG-CC-PVTZ AUX)
    Blend: AUG-CC-PVTZ-JKFIT
	 Reference Energy          =    -568.4351862533875419 [Eh]
	 Singles Energy            =      -0.0000000000000000 [Eh]
	 Same-Spin Energy          =      -0.6173361869512974 [Eh]
	 Opposite-Spin Energy      =      -1.8914297207298274 [Eh]
	 Correlation Energy        =      -2.5087659076811248 [Eh]
	 Total Energy              =    -570.9439521610686370 [Eh]

	 ================> DF-SCS-MP2 Energies <==================
	-----------------------------------------------------------
	 SCS Same-Spin Scale       =       0.3333333333333333 [-]
	 SCS Opposite-Spin Scale   =       1.2000000000000000 [-]
	 SCS Same-Spin Energy      =      -0.2057787289837658 [Eh]
	 SCS Opposite-Spin Energy  =      -2.2697156648757928 [Eh]
	 SCS Correlation Energy    =      -2.4754943938595586 [Eh]
	 SCS Total Energy          =    -570.9106806472470907 [Eh]
	-----------------------------------------------------------

  Dipole Moment: [D]
     X:    -5.0984      Y:    -0.3915      Z:     0.2268     Total:     5.1185

*** Psi4 exiting successfully. Buy a developer a beer!
