                               Psi4 1.4a3.dev225

  ==> Input File <==

--------------------------------------------------------------------------
#psi4
#
memory 32 gb

molecule  {
0 1
  O        3.1477550    -1.4485350    -0.2143050
  N        0.9062980    -1.2504610    -0.5893500
  N        1.5545360     1.4658350     0.3351760
  C       -0.6961080     0.5074870     0.0337420
  C       -0.3911060    -0.8453020    -0.2363150
  C        0.3345050     1.5654110    -0.0838510
  C        1.9151158     0.2556490     1.0301755
  C       -2.0282860     0.8425430     0.3372020
  C       -1.4126000    -1.8085370    -0.2310830
  C        2.0871850    -0.8915250     0.0446260
  C       -0.0584500     2.8482670    -0.7690020
  C       -3.0319510    -0.1194250     0.3623450
  C       -2.7230760    -1.4503270     0.0616580
  H        0.9974690    -2.0891180    -1.1576180
  H        1.1650960    -0.0456930     1.7889680
  H        2.8821530     0.3846540     1.5322680
  H       -2.2754030     1.8777800     0.5574090
  H       -1.1609050    -2.8458310    -0.4446670
  H       -0.7945500     3.4046450    -0.1790500
  H       -0.5037450     2.6486950    -1.7485080
  H        0.8332190     3.4662990    -0.8854880
  H       -4.0517820     0.1644530     0.6082680
  H       -3.5008180    -2.2099170     0.0672390
units angstrom
no_reorient  #important for SAPT in psi4, default
symmetry c1  #important for SAPT in psi4, default
}

set PROPERTIES_ORIGIN ["COM"]
properties('MP2/aug-cc-pvtz', properties = ['dipole'])
--------------------------------------------------------------------------

    Molecular point group: c1
  Charge       = 0
  Multiplicity = 1
  Basis Set: AUG-CC-PVTZ
    Blend: AUG-CC-PVTZ
  Basis Set: (AUG-CC-PVTZ AUX)
    Blend: AUG-CC-PVTZ-JKFIT

    Orbital Energies [Eh]
    ---------------------

    Doubly Occupied:

       1A    -20.532450     2A    -15.607005     3A    -15.566289
       4A    -11.362621     5A    -11.314562     6A    -11.302986
       7A    -11.267431     8A    -11.267002     9A    -11.265807
      10A    -11.265598    11A    -11.258328    12A    -11.253860
      13A    -11.234366    14A     -1.387339    15A     -1.276923
      16A     -1.235761    17A     -1.164798    18A     -1.066462
      19A     -1.035147    20A     -1.011334    21A     -0.950176
      22A     -0.886187    23A     -0.858165    24A     -0.795290
      25A     -0.769228    26A     -0.728870    27A     -0.692929
      28A     -0.676932    29A     -0.657525    30A     -0.648984
      31A     -0.626287    32A     -0.618490    33A     -0.604840
      34A     -0.586496    35A     -0.566345    36A     -0.558912
      37A     -0.544300    38A     -0.538149    39A     -0.527765
      40A     -0.514824    41A     -0.458552    42A     -0.444669
      43A     -0.417220    44A     -0.404765    45A     -0.354921
      46A     -0.332401

  @DF-RHF Final Energy:  -568.46518743801812

   => Energetics <=

    Nuclear Repulsion Energy =            760.9496914904345886
    One-Electron Energy =               -2281.9511832223915917
    Two-Electron Energy =                 952.5363042939388833
    Total Energy =                       -568.4651874380181198
  Basis Set: (AUG-CC-PVTZ AUX)
    Blend: AUG-CC-PVTZ-RI
    Molecular point group: c1

    Geometry (in Angstrom), charge = 0, multiplicity = 1:

       Center              X                  Y                   Z               Mass
    ------------   -----------------  -----------------  -----------------  -----------------
         O            3.111618368580    -1.422631744086    -0.212850891373    15.994914619570
         N            0.870161368580    -1.224557744086    -0.587895891373    14.003074004430
         N            1.518399368580     1.491738255914     0.336630108627    14.003074004430
         C           -0.732244631420     0.533390255914     0.035196108627    12.000000000000
         C           -0.427242631420    -0.819398744086    -0.234860891373    12.000000000000
         C            0.298368368580     1.591314255914    -0.082396891373    12.000000000000
         C            1.878979168580     0.281552255914     1.031629608627    12.000000000000
         C           -2.064422631420     0.868446255914     0.338656108627    12.000000000000
         C           -1.448736631420    -1.782633744086    -0.229628891373    12.000000000000
         C            2.051048368580    -0.865621744086     0.046080108627    12.000000000000
         C           -0.094586631420     2.874170255914    -0.767547891373    12.000000000000
         C           -3.068087631420    -0.093521744086     0.363799108627    12.000000000000
         C           -2.759212631420    -1.424423744086     0.063112108627    12.000000000000
         H            0.961332368580    -2.063214744086    -1.156163891373     1.007825032230
         H            1.128959368580    -0.019789744086     1.790422108627     1.007825032230
         H            2.846016368580     0.410557255914     1.533722108627     1.007825032230
         H           -2.311539631420     1.903683255914     0.558863108627     1.007825032230
         H           -1.197041631420    -2.819927744086    -0.443212891373     1.007825032230
         H           -0.830686631420     3.430548255914    -0.177595891373     1.007825032230
         H           -0.539881631420     2.674598255914    -1.747053891373     1.007825032230
         H            0.797082368580     3.492202255914    -0.884033891373     1.007825032230
         H           -4.087918631420     0.190356255914     0.609722108627     1.007825032230
         H           -3.536954631420    -2.184013744086     0.068693108627     1.007825032230

  Basis Set: AUG-CC-PVTZ
    Blend: AUG-CC-PVTZ
  Basis Set: (AUG-CC-PVTZ AUX)
    Blend: AUG-CC-PVTZ-JKFIT
	 Reference Energy          =    -568.4651874380181198 [Eh]
	 Singles Energy            =      -0.0000000000000000 [Eh]
	 Same-Spin Energy          =      -0.6145845307394521 [Eh]
	 Opposite-Spin Energy      =      -1.8871235260699755 [Eh]
	 Correlation Energy        =      -2.5017080568094276 [Eh]
	 Total Energy              =    -570.9668954948275541 [Eh]

	 ================> DF-SCS-MP2 Energies <==================
	-----------------------------------------------------------
	 SCS Same-Spin Scale       =       0.3333333333333333 [-]
	 SCS Opposite-Spin Scale   =       1.2000000000000000 [-]
	 SCS Same-Spin Energy      =      -0.2048615102464840 [Eh]
	 SCS Opposite-Spin Energy  =      -2.2645482312839706 [Eh]
	 SCS Correlation Energy    =      -2.4694097415304546 [Eh]
	 SCS Total Energy          =    -570.9345971795485184 [Eh]
	-----------------------------------------------------------

  Dipole Moment: [D]
     X:    -5.1197      Y:    -0.2406      Z:     0.2043     Total:     5.1294

*** Psi4 exiting successfully. Buy a developer a beer!
