                               Psi4 1.3.2 release

  ==> Input File <==

--------------------------------------------------------------------------
#psi4
#
memory 32 gb

molecule  {
0 1
  O        3.1477550    -1.4485350    -0.2143050
  N        0.9062980    -1.2504610    -0.5893500
  N        1.5545360     1.4658350     0.3351760
  C       -0.6789555     0.4924468     0.0459183
  C       -0.3911060    -0.8453020    -0.2363150
  C        0.3345050     1.5654110    -0.0838510
  C        1.9201190     0.2388570     1.0398190
  C       -2.0282860     0.8425430     0.3372020
  C       -1.4126000    -1.8085370    -0.2310830
  C        2.0871850    -0.8915250     0.0446260
  C       -0.0584500     2.8482670    -0.7690020
  C       -3.0319510    -0.1194250     0.3623450
  C       -2.7230760    -1.4503270     0.0616580
  H        0.9974690    -2.0891180    -1.1576180
  H        1.1650960    -0.0456930     1.7889680
  H        2.8821530     0.3846540     1.5322680
  H       -2.2754030     1.8777800     0.5574090
  H       -1.1609050    -2.8458310    -0.4446670
  H       -0.7945500     3.4046450    -0.1790500
  H       -0.5037450     2.6486950    -1.7485080
  H        0.8332190     3.4662990    -0.8854880
  H       -4.0517820     0.1644530     0.6082680
  H       -3.5008180    -2.2099170     0.0672390
units angstrom
no_reorient  #important for SAPT in psi4, default
symmetry c1  #important for SAPT in psi4, default
}

set PROPERTIES_ORIGIN ["COM"]
properties('MP2/aug-cc-pvtz', properties = ['dipole'])
--------------------------------------------------------------------------

    Molecular point group: c1
  Charge       = 0
  Multiplicity = 1
  Basis Set: AUG-CC-PVTZ
    Blend: AUG-CC-PVTZ
  Basis Set: (AUG-CC-PVTZ AUX)
    Blend: AUG-CC-PVTZ-JKFIT

    Orbital Energies [Eh]
    ---------------------

    Doubly Occupied:

       1A    -20.531932     2A    -15.606504     3A    -15.566505
       4A    -11.362389     5A    -11.312959     6A    -11.302221
       7A    -11.268057     8A    -11.266761     9A    -11.265657
      10A    -11.265587    11A    -11.258503    12A    -11.253866
      13A    -11.234942    14A     -1.387254    15A     -1.276512
      16A     -1.232818    17A     -1.163744    18A     -1.064754
      19A     -1.034551    20A     -1.012373    21A     -0.951597
      22A     -0.885999    23A     -0.858050    24A     -0.795269
      25A     -0.767967    26A     -0.728655    27A     -0.691114
      28A     -0.677548    29A     -0.657030    30A     -0.649486
      31A     -0.624658    32A     -0.618797    33A     -0.604561
      34A     -0.586646    35A     -0.566833    36A     -0.558875
      37A     -0.543053    38A     -0.538323    39A     -0.527808
      40A     -0.517567    41A     -0.457241    42A     -0.444429
      43A     -0.417470    44A     -0.404616    45A     -0.353419
      46A     -0.333717

  @DF-RHF Final Energy:  -568.46507098318739

   => Energetics <=

    Nuclear Repulsion Energy =            760.9000943442705420
    One-Electron Energy =               -2281.8730906719806626
    Two-Electron Energy =                 952.5079253445226186
    Total Energy =                       -568.4650709831873883
  Basis Set: (AUG-CC-PVTZ AUX)
    Blend: AUG-CC-PVTZ-RI
    Molecular point group: c1

    Geometry (in Angstrom), charge = 0, multiplicity = 1:

       Center              X                  Y                   Z               Mass
    ------------   -----------------  -----------------  -----------------  -----------------
         O            3.110091085438    -1.420437420168    -0.214355019552    15.994914619570
         N            0.868634085438    -1.222363420168    -0.589400019552    14.003074004430
         N            1.516872085438     1.493932579832     0.335125980448    14.003074004430
         C           -0.716619414562     0.520544379832     0.045868280448    12.000000000000
         C           -0.428769914562    -0.817204420168    -0.236365019552    12.000000000000
         C            0.296841085438     1.593508579832    -0.083901019552    12.000000000000
         C            1.882455085438     0.266954579832     1.039768980448    12.000000000000
         C           -2.065949914562     0.870640579832     0.337151980448    12.000000000000
         C           -1.450263914562    -1.780439420168    -0.231133019552    12.000000000000
         C            2.049521085438    -0.863427420168     0.044575980448    12.000000000000
         C           -0.096113914562     2.876364579832    -0.769052019552    12.000000000000
         C           -3.069614914562    -0.091327420168     0.362294980448    12.000000000000
         C           -2.760739914562    -1.422229420168     0.061607980448    12.000000000000
         H            0.959805085438    -2.061020420168    -1.157668019552     1.007825032230
         H            1.127432085438    -0.017595420168     1.788917980448     1.007825032230
         H            2.844489085438     0.412751579832     1.532217980448     1.007825032230
         H           -2.313066914562     1.905877579832     0.557358980448     1.007825032230
         H           -1.198568914562    -2.817733420168    -0.444717019552     1.007825032230
         H           -0.832213914562     3.432742579832    -0.179100019552     1.007825032230
         H           -0.541408914562     2.676792579832    -1.748558019552     1.007825032230
         H            0.795555085438     3.494396579832    -0.885538019552     1.007825032230
         H           -4.089445914562     0.192550579832     0.608217980448     1.007825032230
         H           -3.538481914562    -2.181819420168     0.067188980448     1.007825032230

  Basis Set: AUG-CC-PVTZ
    Blend: AUG-CC-PVTZ
  Basis Set: (AUG-CC-PVTZ AUX)
    Blend: AUG-CC-PVTZ-JKFIT
	 Reference Energy          =    -568.4650709831873883 [Eh]
	 Singles Energy            =      -0.0000000000000000 [Eh]
	 Same-Spin Energy          =      -0.6144304780151355 [Eh]
	 Opposite-Spin Energy      =      -1.8872377698887286 [Eh]
	 Correlation Energy        =      -2.5016682479038641 [Eh]
	 Total Energy              =    -570.9667392310911964 [Eh]

	 ================> DF-SCS-MP2 Energies <==================
	-----------------------------------------------------------
	 SCS Same-Spin Scale       =       0.3333333333333333 [-]
	 SCS Opposite-Spin Scale   =       1.2000000000000000 [-]
	 SCS Same-Spin Energy      =      -0.2048101593383785 [Eh]
	 SCS Opposite-Spin Energy  =      -2.2646853238664741 [Eh]
	 SCS Correlation Energy    =      -2.4694954832048528 [Eh]
	 SCS Total Energy          =    -570.9345664663921980 [Eh]
	-----------------------------------------------------------

  Dipole Moment: [D]
     X:    -5.1339      Y:    -0.2307      Z:     0.2179     Total:     5.1437

*** Psi4 exiting successfully. Buy a developer a beer!
