                               Psi4 1.3.2 release

  ==> Input File <==

--------------------------------------------------------------------------
#psi4
#
memory 32 gb

molecule  {
0 1
  O        3.1477550    -1.4485350    -0.2143050
  N        0.9062980    -1.2504610    -0.5893500
  N        1.5739995     1.5906156     0.2862742
  C       -0.6961080     0.5074870     0.0337420
  C       -0.3911060    -0.8453020    -0.2363150
  C        0.3345050     1.5654110    -0.0838510
  C        1.9201190     0.2388570     1.0398190
  C       -2.0282860     0.8425430     0.3372020
  C       -1.4126000    -1.8085370    -0.2310830
  C        2.0871850    -0.8915250     0.0446260
  C       -0.0584500     2.8482670    -0.7690020
  C       -3.0319510    -0.1194250     0.3623450
  C       -2.7230760    -1.4503270     0.0616580
  H        0.9974690    -2.0891180    -1.1576180
  H        1.1650960    -0.0456930     1.7889680
  H        2.8821530     0.3846540     1.5322680
  H       -2.2754030     1.8777800     0.5574090
  H       -1.1609050    -2.8458310    -0.4446670
  H       -0.7945500     3.4046450    -0.1790500
  H       -0.5037450     2.6486950    -1.7485080
  H        0.8332190     3.4662990    -0.8854880
  H       -4.0517820     0.1644530     0.6082680
  H       -3.5008180    -2.2099170     0.0672390
units angstrom
no_reorient  #important for SAPT in psi4, default
symmetry c1  #important for SAPT in psi4, default
}

set PROPERTIES_ORIGIN ["COM"]
properties('MP2/aug-cc-pvtz', properties = ['dipole'])
--------------------------------------------------------------------------

    Molecular point group: c1
  Charge       = 0
  Multiplicity = 1
  Basis Set: AUG-CC-PVTZ
    Blend: AUG-CC-PVTZ
  Basis Set: (AUG-CC-PVTZ AUX)
    Blend: AUG-CC-PVTZ-JKFIT

    Orbital Energies [Eh]
    ---------------------

    Doubly Occupied:

       1A    -20.532864     2A    -15.608069     3A    -15.579651
       4A    -11.363928     5A    -11.316612     6A    -11.301630
       7A    -11.271038     8A    -11.270641     9A    -11.268907
      10A    -11.267513    11A    -11.259775    12A    -11.255474
      13A    -11.229339    14A     -1.387753    15A     -1.273909
      16A     -1.224380    17A     -1.165394    18A     -1.060028
      19A     -1.036239    20A     -1.008614    21A     -0.951740
      22A     -0.885228    23A     -0.859872    24A     -0.795793
      25A     -0.763441    26A     -0.729943    27A     -0.685117
      28A     -0.674754    29A     -0.658056    30A     -0.644350
      31A     -0.627573    32A     -0.611923    33A     -0.600386
      34A     -0.584906    35A     -0.567803    36A     -0.558460
      37A     -0.542666    38A     -0.534201    39A     -0.525187
      40A     -0.512119    41A     -0.456087    42A     -0.445414
      43A     -0.424674    44A     -0.410414    45A     -0.358281
      46A     -0.333850

  @DF-RHF Final Energy:  -568.45093490361285

   => Energetics <=

    Nuclear Repulsion Energy =            758.0776515870082903
    One-Electron Energy =               -2276.2091859661127273
    Two-Electron Energy =                 949.6805994754914764
    Total Energy =                       -568.4509349036128469
  Basis Set: (AUG-CC-PVTZ AUX)
    Blend: AUG-CC-PVTZ-RI
    Molecular point group: c1

    Geometry (in Angstrom), charge = 0, multiplicity = 1:

       Center              X                  Y                   Z               Mass
    ------------   -----------------  -----------------  -----------------  -----------------
         O            3.109707818583    -1.431511650319    -0.209581958869    15.994914619570
         N            0.868250818583    -1.233437650319    -0.584626958869    14.003074004430
         N            1.535952318583     1.607638949681     0.290997241131    14.003074004430
         C           -0.734155181417     0.524510349681     0.038465041131    12.000000000000
         C           -0.429153181417    -0.828278650319    -0.231591958869    12.000000000000
         C            0.296457818583     1.582434349681    -0.079127958869    12.000000000000
         C            1.882071818583     0.255880349681     1.044542041131    12.000000000000
         C           -2.066333181417     0.859566349681     0.341925041131    12.000000000000
         C           -1.450647181417    -1.791513650319    -0.226359958869    12.000000000000
         C            2.049137818583    -0.874501650319     0.049349041131    12.000000000000
         C           -0.096497181417     2.865290349681    -0.764278958869    12.000000000000
         C           -3.069998181417    -0.102401650319     0.367068041131    12.000000000000
         C           -2.761123181417    -1.433303650319     0.066381041131    12.000000000000
         H            0.959421818583    -2.072094650319    -1.152894958869     1.007825032230
         H            1.127048818583    -0.028669650319     1.793691041131     1.007825032230
         H            2.844105818583     0.401677349681     1.536991041131     1.007825032230
         H           -2.313450181417     1.894803349681     0.562132041131     1.007825032230
         H           -1.198952181417    -2.828807650319    -0.439943958869     1.007825032230
         H           -0.832597181417     3.421668349681    -0.174326958869     1.007825032230
         H           -0.541792181417     2.665718349681    -1.743784958869     1.007825032230
         H            0.795171818583     3.483322349681    -0.880764958869     1.007825032230
         H           -4.089829181417     0.181476349681     0.612991041131     1.007825032230
         H           -3.538865181417    -2.192893650319     0.071962041131     1.007825032230

  Basis Set: AUG-CC-PVTZ
    Blend: AUG-CC-PVTZ
  Basis Set: (AUG-CC-PVTZ AUX)
    Blend: AUG-CC-PVTZ-JKFIT
	 Reference Energy          =    -568.4509349036128469 [Eh]
	 Singles Energy            =      -0.0000000000000000 [Eh]
	 Same-Spin Energy          =      -0.6148693386381959 [Eh]
	 Opposite-Spin Energy      =      -1.8904019374966152 [Eh]
	 Correlation Energy        =      -2.5052712761348110 [Eh]
	 Total Energy              =    -570.9562061797477099 [Eh]

	 ================> DF-SCS-MP2 Energies <==================
	-----------------------------------------------------------
	 SCS Same-Spin Scale       =       0.3333333333333333 [-]
	 SCS Opposite-Spin Scale   =       1.2000000000000000 [-]
	 SCS Same-Spin Energy      =      -0.2049564462127320 [Eh]
	 SCS Opposite-Spin Energy  =      -2.2684823249959383 [Eh]
	 SCS Correlation Energy    =      -2.4734387712086701 [Eh]
	 SCS Total Energy          =    -570.9243736748214815 [Eh]
	-----------------------------------------------------------

  Dipole Moment: [D]
     X:    -5.2221      Y:    -0.4309      Z:     0.3029     Total:     5.2486

*** Psi4 exiting successfully. Buy a developer a beer!
