                               Psi4 1.3.2 release

  ==> Input File <==

--------------------------------------------------------------------------
#psi4
#
memory 32 gb

molecule  {
0 1
  O        3.1477550    -1.4485350    -0.2143050
  N        0.9339575    -1.1567419    -0.5816505
  N        1.5545360     1.4658350     0.3351760
  C       -0.6961080     0.5074870     0.0337420
  C       -0.3911060    -0.8453020    -0.2363150
  C        0.3345050     1.5654110    -0.0838510
  C        1.9201190     0.2388570     1.0398190
  C       -2.0282860     0.8425430     0.3372020
  C       -1.4126000    -1.8085370    -0.2310830
  C        2.0871850    -0.8915250     0.0446260
  C       -0.0584500     2.8482670    -0.7690020
  C       -3.0319510    -0.1194250     0.3623450
  C       -2.7230760    -1.4503270     0.0616580
  H        0.9974690    -2.0891180    -1.1576180
  H        1.1650960    -0.0456930     1.7889680
  H        2.8821530     0.3846540     1.5322680
  H       -2.2754030     1.8777800     0.5574090
  H       -1.1609050    -2.8458310    -0.4446670
  H       -0.7945500     3.4046450    -0.1790500
  H       -0.5037450     2.6486950    -1.7485080
  H        0.8332190     3.4662990    -0.8854880
  H       -4.0517820     0.1644530     0.6082680
  H       -3.5008180    -2.2099170     0.0672390
units angstrom
no_reorient  #important for SAPT in psi4, default
symmetry c1  #important for SAPT in psi4, default
}

set PROPERTIES_ORIGIN ["COM"]
properties('MP2/aug-cc-pvtz', properties = ['dipole'])
--------------------------------------------------------------------------

    Molecular point group: c1
  Charge       = 0
  Multiplicity = 1
  Basis Set: AUG-CC-PVTZ
    Blend: AUG-CC-PVTZ
  Basis Set: (AUG-CC-PVTZ AUX)
    Blend: AUG-CC-PVTZ-JKFIT

    Orbital Energies [Eh]
    ---------------------

    Doubly Occupied:

       1A    -20.527530     2A    -15.614656     3A    -15.566708
       4A    -11.356947     5A    -11.316684     6A    -11.301437
       7A    -11.267859     8A    -11.267266     9A    -11.265902
      10A    -11.263104    11A    -11.262823    12A    -11.255964
      13A    -11.233935    14A     -1.387956    15A     -1.280890
      16A     -1.231440    17A     -1.167948    18A     -1.066716
      19A     -1.039868    20A     -1.010249    21A     -0.949928
      22A     -0.888484    23A     -0.863529    24A     -0.794461
      25A     -0.765379    26A     -0.724228    27A     -0.692654
      28A     -0.676383    29A     -0.660790    30A     -0.645356
      31A     -0.627462    32A     -0.618447    33A     -0.595015
      34A     -0.586202    35A     -0.568645    36A     -0.559422
      37A     -0.543870    38A     -0.538921    39A     -0.528822
      40A     -0.512952    41A     -0.456933    42A     -0.444306
      43A     -0.417156    44A     -0.403394    45A     -0.355831
      46A     -0.336049

  @DF-RHF Final Energy:  -568.45373120132081

   => Energetics <=

    Nuclear Repulsion Energy =            762.1315620573365095
    One-Electron Energy =               -2284.2895836749730734
    Two-Electron Energy =                 953.7042904163158710
    Total Energy =                       -568.4537312013208066
  Basis Set: (AUG-CC-PVTZ AUX)
    Blend: AUG-CC-PVTZ-RI
    Molecular point group: c1

    Geometry (in Angstrom), charge = 0, multiplicity = 1:

       Center              X                  Y                   Z               Mass
    ------------   -----------------  -----------------  -----------------  -----------------
         O            3.109048526031    -1.429013039336    -0.214135011034    15.994914619570
         N            0.895251026031    -1.137219939336    -0.581480511034    14.003074004430
         N            1.515829526031     1.485356960664     0.335345988966    14.003074004430
         C           -0.734814473969     0.527008960664     0.033911988966    12.000000000000
         C           -0.429812473969    -0.825780039336    -0.236145011034    12.000000000000
         C            0.295798526031     1.584932960664    -0.083681011034    12.000000000000
         C            1.881412526031     0.258378960664     1.039988988966    12.000000000000
         C           -2.066992473969     0.862064960664     0.337371988966    12.000000000000
         C           -1.451306473969    -1.789015039336    -0.230913011034    12.000000000000
         C            2.048478526031    -0.872003039336     0.044795988966    12.000000000000
         C           -0.097156473969     2.867788960664    -0.768832011034    12.000000000000
         C           -3.070657473969    -0.099903039336     0.362514988966    12.000000000000
         C           -2.761782473969    -1.430805039336     0.061827988966    12.000000000000
         H            0.958762526031    -2.069596039336    -1.157448011034     1.007825032230
         H            1.126389526031    -0.026171039336     1.789137988966     1.007825032230
         H            2.843446526031     0.404175960664     1.532437988966     1.007825032230
         H           -2.314109473969     1.897301960664     0.557578988966     1.007825032230
         H           -1.199611473969    -2.826309039336    -0.444497011034     1.007825032230
         H           -0.833256473969     3.424166960664    -0.178880011034     1.007825032230
         H           -0.542451473969     2.668216960664    -1.748338011034     1.007825032230
         H            0.794512526031     3.485820960664    -0.885318011034     1.007825032230
         H           -4.090488473969     0.183974960664     0.608437988966     1.007825032230
         H           -3.539524473969    -2.190395039336     0.067408988966     1.007825032230

  Basis Set: AUG-CC-PVTZ
    Blend: AUG-CC-PVTZ
  Basis Set: (AUG-CC-PVTZ AUX)
    Blend: AUG-CC-PVTZ-JKFIT
	 Reference Energy          =    -568.4537312013208066 [Eh]
	 Singles Energy            =      -0.0000000000000000 [Eh]
	 Same-Spin Energy          =      -0.6156292984856668 [Eh]
	 Opposite-Spin Energy      =      -1.8891187494011941 [Eh]
	 Correlation Energy        =      -2.5047480478868609 [Eh]
	 Total Energy              =    -570.9584792492076986 [Eh]

	 ================> DF-SCS-MP2 Energies <==================
	-----------------------------------------------------------
	 SCS Same-Spin Scale       =       0.3333333333333333 [-]
	 SCS Opposite-Spin Scale   =       1.2000000000000000 [-]
	 SCS Same-Spin Energy      =      -0.2052097661618889 [Eh]
	 SCS Opposite-Spin Energy  =      -2.2669424992814329 [Eh]
	 SCS Correlation Energy    =      -2.4721522654433219 [Eh]
	 SCS Total Energy          =    -570.9258834667641622 [Eh]
	-----------------------------------------------------------

  Dipole Moment: [D]
     X:    -5.3961      Y:    -0.3125      Z:     0.2195     Total:     5.4096

*** Psi4 exiting successfully. Buy a developer a beer!
