                               Psi4 1.3.2 release

  ==> Input File <==

--------------------------------------------------------------------------
#psi4
#
memory 32 gb

molecule  {
0 1
  O        3.1477550    -1.4485350    -0.2143050
  N        0.9062980    -1.2504610    -0.5893500
  N        1.5545360     1.4658350     0.3351760
  C       -0.8367930     0.4646077     0.0491578
  C       -0.3911060    -0.8453020    -0.2363150
  C        0.3345050     1.5654110    -0.0838510
  C        1.9201190     0.2388570     1.0398190
  C       -2.0282860     0.8425430     0.3372020
  C       -1.4126000    -1.8085370    -0.2310830
  C        2.0871850    -0.8915250     0.0446260
  C       -0.0584500     2.8482670    -0.7690020
  C       -3.0319510    -0.1194250     0.3623450
  C       -2.7230760    -1.4503270     0.0616580
  H        0.9974690    -2.0891180    -1.1576180
  H        1.1650960    -0.0456930     1.7889680
  H        2.8821530     0.3846540     1.5322680
  H       -2.2754030     1.8777800     0.5574090
  H       -1.1609050    -2.8458310    -0.4446670
  H       -0.7945500     3.4046450    -0.1790500
  H       -0.5037450     2.6486950    -1.7485080
  H        0.8332190     3.4662990    -0.8854880
  H       -4.0517820     0.1644530     0.6082680
  H       -3.5008180    -2.2099170     0.0672390
units angstrom
no_reorient  #important for SAPT in psi4, default
symmetry c1  #important for SAPT in psi4, default
}

set PROPERTIES_ORIGIN ["COM"]
properties('MP2/aug-cc-pvtz', properties = ['dipole'])
--------------------------------------------------------------------------

    Molecular point group: c1
  Charge       = 0
  Multiplicity = 1
  Basis Set: AUG-CC-PVTZ
    Blend: AUG-CC-PVTZ
  Basis Set: (AUG-CC-PVTZ AUX)
    Blend: AUG-CC-PVTZ-JKFIT

    Orbital Energies [Eh]
    ---------------------

    Doubly Occupied:

       1A    -20.533724     2A    -15.610025     3A    -15.568214
       4A    -11.363431     5A    -11.311817     6A    -11.308258
       7A    -11.267998     8A    -11.263291     9A    -11.260238
      10A    -11.256339    11A    -11.252757    12A    -11.249660
      13A    -11.233310    14A     -1.388546    15A     -1.274255
      16A     -1.230092    17A     -1.179525    18A     -1.063745
      19A     -1.040944    20A     -1.011667    21A     -0.951384
      22A     -0.873851    23A     -0.863055    24A     -0.794497
      25A     -0.767054    26A     -0.724496    27A     -0.693824
      28A     -0.677764    29A     -0.657808    30A     -0.644857
      31A     -0.634567    32A     -0.615217    33A     -0.604949
      34A     -0.585127    35A     -0.568984    36A     -0.559972
      37A     -0.543939    38A     -0.539556    39A     -0.533170
      40A     -0.504150    41A     -0.459168    42A     -0.446739
      43A     -0.409518    44A     -0.402970    45A     -0.368945
      46A     -0.328271

  @DF-RHF Final Energy:  -568.44113436915950

   => Energetics <=

    Nuclear Repulsion Energy =            760.4840361767979857
    One-Electron Energy =               -2281.0070054222160252
    Two-Electron Energy =                 952.0818348762586538
    Total Energy =                       -568.4411343691594993
  Basis Set: (AUG-CC-PVTZ AUX)
    Blend: AUG-CC-PVTZ-RI
    Molecular point group: c1

    Geometry (in Angstrom), charge = 0, multiplicity = 1:

       Center              X                  Y                   Z               Mass
    ------------   -----------------  -----------------  -----------------  -----------------
         O            3.120971470752    -1.418518356987    -0.214578331555    15.994914619570
         N            0.879514470752    -1.220444356987    -0.589623331555    14.003074004430
         N            1.527752470752     1.495851643013     0.334902668445    14.003074004430
         C           -0.863576529248     0.494624343013     0.048884468445    12.000000000000
         C           -0.417889529248    -0.815285356987    -0.236588331555    12.000000000000
         C            0.307721470752     1.595427643013    -0.084124331555    12.000000000000
         C            1.893335470752     0.268873643013     1.039545668445    12.000000000000
         C           -2.055069529248     0.872559643013     0.336928668445    12.000000000000
         C           -1.439383529248    -1.778520356987    -0.231356331555    12.000000000000
         C            2.060401470752    -0.861508356987     0.044352668445    12.000000000000
         C           -0.085233529248     2.878283643013    -0.769275331555    12.000000000000
         C           -3.058734529248    -0.089408356987     0.362071668445    12.000000000000
         C           -2.749859529248    -1.420310356987     0.061384668445    12.000000000000
         H            0.970685470752    -2.059101356987    -1.157891331555     1.007825032230
         H            1.138312470752    -0.015676356987     1.788694668445     1.007825032230
         H            2.855369470752     0.414670643013     1.531994668445     1.007825032230
         H           -2.302186529248     1.907796643013     0.557135668445     1.007825032230
         H           -1.187688529248    -2.815814356987    -0.444940331555     1.007825032230
         H           -0.821333529248     3.434661643013    -0.179323331555     1.007825032230
         H           -0.530528529248     2.678711643013    -1.748781331555     1.007825032230
         H            0.806435470752     3.496315643013    -0.885761331555     1.007825032230
         H           -4.078565529248     0.194469643013     0.607994668445     1.007825032230
         H           -3.527601529248    -2.179900356987     0.066965668445     1.007825032230

  Basis Set: AUG-CC-PVTZ
    Blend: AUG-CC-PVTZ
  Basis Set: (AUG-CC-PVTZ AUX)
    Blend: AUG-CC-PVTZ-JKFIT
	 Reference Energy          =    -568.4411343691594993 [Eh]
	 Singles Energy            =      -0.0000000000000000 [Eh]
	 Same-Spin Energy          =      -0.6137880865112451 [Eh]
	 Opposite-Spin Energy      =      -1.8867818796172044 [Eh]
	 Correlation Energy        =      -2.5005699661284497 [Eh]
	 Total Energy              =    -570.9417043352879091 [Eh]

	 ================> DF-SCS-MP2 Energies <==================
	-----------------------------------------------------------
	 SCS Same-Spin Scale       =       0.3333333333333333 [-]
	 SCS Opposite-Spin Scale   =       1.2000000000000000 [-]
	 SCS Same-Spin Energy      =      -0.2045960288370817 [Eh]
	 SCS Opposite-Spin Energy  =      -2.2641382555406451 [Eh]
	 SCS Correlation Energy    =      -2.4687342843777267 [Eh]
	 SCS Total Energy          =    -570.9098686535372735 [Eh]
	-----------------------------------------------------------

  Dipole Moment: [D]
     X:    -4.9598      Y:    -0.1398      Z:     0.2654     Total:     4.9688

*** Psi4 exiting successfully. Buy a developer a beer!
