                               Psi4 1.3.2 release

  ==> Input File <==

--------------------------------------------------------------------------
#psi4
#
memory 32 gb

molecule  {
0 1
  O        3.1477550    -1.4485350    -0.2143050
  N        0.9062980    -1.2504610    -0.5893500
  N        1.5545360     1.4658350     0.3351760
  C       -0.6961080     0.5074870     0.0337420
  C       -0.3911060    -0.8453020    -0.2363150
  C        0.3688365     1.6233623    -0.0031040
  C        1.9201190     0.2388570     1.0398190
  C       -2.0282860     0.8425430     0.3372020
  C       -1.4126000    -1.8085370    -0.2310830
  C        2.0871850    -0.8915250     0.0446260
  C       -0.0584500     2.8482670    -0.7690020
  C       -3.0319510    -0.1194250     0.3623450
  C       -2.7230760    -1.4503270     0.0616580
  H        0.9974690    -2.0891180    -1.1576180
  H        1.1650960    -0.0456930     1.7889680
  H        2.8821530     0.3846540     1.5322680
  H       -2.2754030     1.8777800     0.5574090
  H       -1.1609050    -2.8458310    -0.4446670
  H       -0.7945500     3.4046450    -0.1790500
  H       -0.5037450     2.6486950    -1.7485080
  H        0.8332190     3.4662990    -0.8854880
  H       -4.0517820     0.1644530     0.6082680
  H       -3.5008180    -2.2099170     0.0672390
units angstrom
no_reorient  #important for SAPT in psi4, default
symmetry c1  #important for SAPT in psi4, default
}

set PROPERTIES_ORIGIN ["COM"]
properties('MP2/aug-cc-pvtz', properties = ['dipole'])
--------------------------------------------------------------------------

    Molecular point group: c1
  Charge       = 0
  Multiplicity = 1
  Basis Set: AUG-CC-PVTZ
    Blend: AUG-CC-PVTZ
  Basis Set: (AUG-CC-PVTZ AUX)
    Blend: AUG-CC-PVTZ-JKFIT

    Orbital Energies [Eh]
    ---------------------

    Doubly Occupied:

       1A    -20.533290     2A    -15.606444     3A    -15.564372
       4A    -11.363772     5A    -11.311924     6A    -11.300154
       7A    -11.270828     8A    -11.266777     9A    -11.262767
      10A    -11.262594    11A    -11.256742    12A    -11.251569
      13A    -11.233848    14A     -1.388369    15A     -1.279548
      16A     -1.246448    17A     -1.161623    18A     -1.059587
      19A     -1.034481    20A     -1.011695    21A     -0.958985
      22A     -0.877927    23A     -0.855651    24A     -0.794264
      25A     -0.764159    26A     -0.726332    27A     -0.692901
      28A     -0.679907    29A     -0.654451    30A     -0.647760
      31A     -0.624967    32A     -0.622949    33A     -0.605720
      34A     -0.586003    35A     -0.566957    36A     -0.556957
      37A     -0.550359    38A     -0.535622    39A     -0.527880
      40A     -0.512694    41A     -0.462816    42A     -0.444124
      43A     -0.418603    44A     -0.404780    45A     -0.355997
      46A     -0.330724

  @DF-RHF Final Energy:  -568.46268314049246

   => Energetics <=

    Nuclear Repulsion Energy =            760.2268893687358968
    One-Electron Energy =               -2280.5265101223308193
    Two-Electron Energy =                 951.8369376131023500
    Total Energy =                       -568.4626831404924587
  Basis Set: (AUG-CC-PVTZ AUX)
    Blend: AUG-CC-PVTZ-RI
    Molecular point group: c1

    Geometry (in Angstrom), charge = 0, multiplicity = 1:

       Center              X                  Y                   Z               Mass
    ------------   -----------------  -----------------  -----------------  -----------------
         O            3.108906866610    -1.425469023206    -0.219081878741    15.994914619570
         N            0.867449866610    -1.227395023206    -0.594126878741    14.003074004430
         N            1.515687866610     1.488900976794     0.330399121259    14.003074004430
         C           -0.734956133390     0.530552976794     0.028965121259    12.000000000000
         C           -0.429954133390    -0.822236023206    -0.241091878741    12.000000000000
         C            0.329988366610     1.646428276794    -0.007880878741    12.000000000000
         C            1.881270866610     0.261922976794     1.035042121259    12.000000000000
         C           -2.067134133390     0.865608976794     0.332425121259    12.000000000000
         C           -1.451448133390    -1.785471023206    -0.235859878741    12.000000000000
         C            2.048336866610    -0.868459023206     0.039849121259    12.000000000000
         C           -0.097298133390     2.871332976794    -0.773778878741    12.000000000000
         C           -3.070799133390    -0.096359023206     0.357568121259    12.000000000000
         C           -2.761924133390    -1.427261023206     0.056881121259    12.000000000000
         H            0.958620866610    -2.066052023206    -1.162394878741     1.007825032230
         H            1.126247866610    -0.022627023206     1.784191121259     1.007825032230
         H            2.843304866610     0.407719976794     1.527491121259     1.007825032230
         H           -2.314251133390     1.900845976794     0.552632121259     1.007825032230
         H           -1.199753133390    -2.822765023206    -0.449443878741     1.007825032230
         H           -0.833398133390     3.427710976794    -0.183826878741     1.007825032230
         H           -0.542593133390     2.671760976794    -1.753284878741     1.007825032230
         H            0.794370866610     3.489364976794    -0.890264878741     1.007825032230
         H           -4.090630133390     0.187518976794     0.603491121259     1.007825032230
         H           -3.539666133390    -2.186851023206     0.062462121259     1.007825032230

  Basis Set: AUG-CC-PVTZ
    Blend: AUG-CC-PVTZ
  Basis Set: (AUG-CC-PVTZ AUX)
    Blend: AUG-CC-PVTZ-JKFIT
	 Reference Energy          =    -568.4626831404924587 [Eh]
	 Singles Energy            =      -0.0000000000000000 [Eh]
	 Same-Spin Energy          =      -0.6130545278767670 [Eh]
	 Opposite-Spin Energy      =      -1.8849020080197980 [Eh]
	 Correlation Energy        =      -2.4979565358965647 [Eh]
	 Total Energy              =    -570.9606396763890643 [Eh]

	 ================> DF-SCS-MP2 Energies <==================
	-----------------------------------------------------------
	 SCS Same-Spin Scale       =       0.3333333333333333 [-]
	 SCS Opposite-Spin Scale   =       1.2000000000000000 [-]
	 SCS Same-Spin Energy      =      -0.2043515092922557 [Eh]
	 SCS Opposite-Spin Energy  =      -2.2618824096237575 [Eh]
	 SCS Correlation Energy    =      -2.4662339189160134 [Eh]
	 SCS Total Energy          =    -570.9289170594084908 [Eh]
	-----------------------------------------------------------

  Dipole Moment: [D]
     X:    -4.9359      Y:    -0.1377      Z:     0.2598     Total:     4.9447

*** Psi4 exiting successfully. Buy a developer a beer!
