                               Psi4 1.3.2 release

  ==> Input File <==

--------------------------------------------------------------------------
#psi4
#
memory 32 gb

molecule  {
0 1
  O        3.1477550    -1.4485350    -0.2143050
  N        0.9062980    -1.2504610    -0.5893500
  N        1.5545360     1.4658350     0.3351760
  C       -0.6732381     0.6022673     0.0453776
  C       -0.3911060    -0.8453020    -0.2363150
  C        0.3345050     1.5654110    -0.0838510
  C        1.9201190     0.2388570     1.0398190
  C       -2.0282860     0.8425430     0.3372020
  C       -1.4126000    -1.8085370    -0.2310830
  C        2.0871850    -0.8915250     0.0446260
  C       -0.0584500     2.8482670    -0.7690020
  C       -3.0319510    -0.1194250     0.3623450
  C       -2.7230760    -1.4503270     0.0616580
  H        0.9974690    -2.0891180    -1.1576180
  H        1.1650960    -0.0456930     1.7889680
  H        2.8821530     0.3846540     1.5322680
  H       -2.2754030     1.8777800     0.5574090
  H       -1.1609050    -2.8458310    -0.4446670
  H       -0.7945500     3.4046450    -0.1790500
  H       -0.5037450     2.6486950    -1.7485080
  H        0.8332190     3.4662990    -0.8854880
  H       -4.0517820     0.1644530     0.6082680
  H       -3.5008180    -2.2099170     0.0672390
units angstrom
no_reorient  #important for SAPT in psi4, default
symmetry c1  #important for SAPT in psi4, default
}

set PROPERTIES_ORIGIN ["COM"]
properties('MP2/aug-cc-pvtz', properties = ['dipole'])
--------------------------------------------------------------------------

    Molecular point group: c1
  Charge       = 0
  Multiplicity = 1
  Basis Set: AUG-CC-PVTZ
    Blend: AUG-CC-PVTZ
  Basis Set: (AUG-CC-PVTZ AUX)
    Blend: AUG-CC-PVTZ-JKFIT

    Orbital Energies [Eh]
    ---------------------

    Doubly Occupied:

       1A    -20.533010     2A    -15.608948     3A    -15.567118
       4A    -11.363293     5A    -11.325123     6A    -11.296663
       7A    -11.269829     8A    -11.268797     9A    -11.268669
      10A    -11.266977    11A    -11.258334    12A    -11.253949
      13A    -11.232541    14A     -1.388180    15A     -1.276082
      16A     -1.235726    17A     -1.161081    18A     -1.073034
      19A     -1.035072    20A     -1.004284    21A     -0.952229
      22A     -0.895527    23A     -0.854417    24A     -0.797261
      25A     -0.769562    26A     -0.732689    27A     -0.692975
      28A     -0.678593    29A     -0.661612    30A     -0.643963
      31A     -0.625188    32A     -0.617274    33A     -0.604861
      34A     -0.586912    35A     -0.566845    36A     -0.559001
      37A     -0.548865    38A     -0.538682    39A     -0.525046
      40A     -0.507325    41A     -0.458165    42A     -0.445300
      43A     -0.419177    44A     -0.409299    45A     -0.354269
      46A     -0.325619

  @DF-RHF Final Energy:  -568.45077621303722

   => Energetics <=

    Nuclear Repulsion Energy =            760.3454962922071445
    One-Electron Energy =               -2280.6778167266497803
    Two-Electron Energy =                 951.8815442214054201
    Total Energy =                       -568.4507762130372157
  Basis Set: (AUG-CC-PVTZ AUX)
    Blend: AUG-CC-PVTZ-RI
    Molecular point group: c1

    Geometry (in Angstrom), charge = 0, multiplicity = 1:

       Center              X                  Y                   Z               Mass
    ------------   -----------------  -----------------  -----------------  -----------------
         O            3.109696961640    -1.428007797013    -0.214317746887    15.994914619570
         N            0.868239961640    -1.229933797013    -0.589362746887    14.003074004430
         N            1.516477961640     1.486362202987     0.335163253113    14.003074004430
         C           -0.711296138360     0.622794502987     0.045364853113    12.000000000000
         C           -0.429164038360    -0.824774797013    -0.236327746887    12.000000000000
         C            0.296446961640     1.585938202987    -0.083863746887    12.000000000000
         C            1.882060961640     0.259384202987     1.039806253113    12.000000000000
         C           -2.066344038360     0.863070202987     0.337189253113    12.000000000000
         C           -1.450658038360    -1.788009797013    -0.231095746887    12.000000000000
         C            2.049126961640    -0.870997797013     0.044613253113    12.000000000000
         C           -0.096508038360     2.868794202987    -0.769014746887    12.000000000000
         C           -3.070009038360    -0.098897797013     0.362332253113    12.000000000000
         C           -2.761134038360    -1.429799797013     0.061645253113    12.000000000000
         H            0.959410961640    -2.068590797013    -1.157630746887     1.007825032230
         H            1.127037961640    -0.025165797013     1.788955253113     1.007825032230
         H            2.844094961640     0.405181202987     1.532255253113     1.007825032230
         H           -2.313461038360     1.898307202987     0.557396253113     1.007825032230
         H           -1.198963038360    -2.825303797013    -0.444679746887     1.007825032230
         H           -0.832608038360     3.425172202987    -0.179062746887     1.007825032230
         H           -0.541803038360     2.669222202987    -1.748520746887     1.007825032230
         H            0.795160961640     3.486826202987    -0.885500746887     1.007825032230
         H           -4.089840038360     0.184980202987     0.608255253113     1.007825032230
         H           -3.538876038360    -2.189389797013     0.067226253113     1.007825032230

  Basis Set: AUG-CC-PVTZ
    Blend: AUG-CC-PVTZ
  Basis Set: (AUG-CC-PVTZ AUX)
    Blend: AUG-CC-PVTZ-JKFIT
	 Reference Energy          =    -568.4507762130372157 [Eh]
	 Singles Energy            =      -0.0000000000000000 [Eh]
	 Same-Spin Energy          =      -0.6162018220177491 [Eh]
	 Opposite-Spin Energy      =      -1.8896336241610792 [Eh]
	 Correlation Energy        =      -2.5058354461788284 [Eh]
	 Total Energy              =    -570.9566116592160370 [Eh]

	 ================> DF-SCS-MP2 Energies <==================
	-----------------------------------------------------------
	 SCS Same-Spin Scale       =       0.3333333333333333 [-]
	 SCS Opposite-Spin Scale   =       1.2000000000000000 [-]
	 SCS Same-Spin Energy      =      -0.2054006073392497 [Eh]
	 SCS Opposite-Spin Energy  =      -2.2675603489932947 [Eh]
	 SCS Correlation Energy    =      -2.4729609563325443 [Eh]
	 SCS Total Energy          =    -570.9237371693698151 [Eh]
	-----------------------------------------------------------

  Dipole Moment: [D]
     X:    -5.1075      Y:    -0.3463      Z:     0.2271     Total:     5.1243

*** Psi4 exiting successfully. Buy a developer a beer!
