                               Psi4 1.3.2 release

  ==> Input File <==

--------------------------------------------------------------------------
#psi4
#
memory 32 gb

molecule  {
0 1
  O        3.1477550    -1.4485350    -0.2143050
  N        0.9062980    -1.2504610    -0.5893500
  N        1.5501227     1.4449167     0.3424464
  C       -0.6961080     0.5074870     0.0337420
  C       -0.3911060    -0.8453020    -0.2363150
  C        0.3345050     1.5654110    -0.0838510
  C        1.9201190     0.2388570     1.0398190
  C       -2.0282860     0.8425430     0.3372020
  C       -1.4126000    -1.8085370    -0.2310830
  C        2.0871850    -0.8915250     0.0446260
  C       -0.0584500     2.8482670    -0.7690020
  C       -3.0319510    -0.1194250     0.3623450
  C       -2.7230760    -1.4503270     0.0616580
  H        0.9974690    -2.0891180    -1.1576180
  H        1.1650960    -0.0456930     1.7889680
  H        2.8821530     0.3846540     1.5322680
  H       -2.2754030     1.8777800     0.5574090
  H       -1.1609050    -2.8458310    -0.4446670
  H       -0.7945500     3.4046450    -0.1790500
  H       -0.5037450     2.6486950    -1.7485080
  H        0.8332190     3.4662990    -0.8854880
  H       -4.0517820     0.1644530     0.6082680
  H       -3.5008180    -2.2099170     0.0672390
units angstrom
no_reorient  #important for SAPT in psi4, default
symmetry c1  #important for SAPT in psi4, default
}

set PROPERTIES_ORIGIN ["COM"]
properties('MP2/aug-cc-pvtz', properties = ['dipole'])
--------------------------------------------------------------------------

    Molecular point group: c1
  Charge       = 0
  Multiplicity = 1
  Basis Set: AUG-CC-PVTZ
    Blend: AUG-CC-PVTZ
  Basis Set: (AUG-CC-PVTZ AUX)
    Blend: AUG-CC-PVTZ-JKFIT

    Orbital Energies [Eh]
    ---------------------

    Doubly Occupied:

       1A    -20.532115     2A    -15.606867     3A    -15.565036
       4A    -11.362353     5A    -11.314029     6A    -11.302739
       7A    -11.266269     8A    -11.266222     9A    -11.265099
      10A    -11.264984    11A    -11.257998    12A    -11.253460
      13A    -11.235101    14A     -1.387442    15A     -1.276747
      16A     -1.234703    17A     -1.164421    18A     -1.066836
      19A     -1.034993    20A     -1.011450    21A     -0.951739
      22A     -0.885849    23A     -0.857754    24A     -0.795552
      25A     -0.768942    26A     -0.728758    27A     -0.692676
      28A     -0.678432    29A     -0.657361    30A     -0.648845
      31A     -0.625960    32A     -0.619741    33A     -0.605195
      34A     -0.586815    35A     -0.566766    36A     -0.558960
      37A     -0.545128    38A     -0.539569    39A     -0.527931
      40A     -0.515718    41A     -0.458015    42A     -0.444431
      43A     -0.415473    44A     -0.403938    45A     -0.354337
      46A     -0.331932

  @DF-RHF Final Energy:  -568.46575585025982

   => Energetics <=

    Nuclear Repulsion Energy =            761.2203795375139634
    One-Electron Energy =               -2282.5029058381542200
    Two-Electron Energy =                 952.8167704503804316
    Total Energy =                       -568.4657558502598249
  Basis Set: (AUG-CC-PVTZ AUX)
    Blend: AUG-CC-PVTZ-RI
    Molecular point group: c1

    Geometry (in Angstrom), charge = 0, multiplicity = 1:

       Center              X                  Y                   Z               Mass
    ------------   -----------------  -----------------  -----------------  -----------------
         O            3.111628486764    -1.419791518590    -0.214100493899    15.994914619570
         N            0.870171486764    -1.221717518590    -0.589145493899    14.003074004430
         N            1.513996186764     1.473660181410     0.342650906101    14.003074004430
         C           -0.732234513236     0.536230481410     0.033946506101    12.000000000000
         C           -0.427232513236    -0.816558518590    -0.236110493899    12.000000000000
         C            0.298378486764     1.594154481410    -0.083646493899    12.000000000000
         C            1.883992486764     0.267600481410     1.040023506101    12.000000000000
         C           -2.064412513236     0.871286481410     0.337406506101    12.000000000000
         C           -1.448726513236    -1.779793518590    -0.230878493899    12.000000000000
         C            2.051058486764    -0.862781518590     0.044830506101    12.000000000000
         C           -0.094576513236     2.877010481410    -0.768797493899    12.000000000000
         C           -3.068077513236    -0.090681518590     0.362549506101    12.000000000000
         C           -2.759202513236    -1.421583518590     0.061862506101    12.000000000000
         H            0.961342486764    -2.060374518590    -1.157413493899     1.007825032230
         H            1.128969486764    -0.016949518590     1.789172506101     1.007825032230
         H            2.846026486764     0.413397481410     1.532472506101     1.007825032230
         H           -2.311529513236     1.906523481410     0.557613506101     1.007825032230
         H           -1.197031513236    -2.817087518590    -0.444462493899     1.007825032230
         H           -0.830676513236     3.433388481410    -0.178845493899     1.007825032230
         H           -0.539871513236     2.677438481410    -1.748303493899     1.007825032230
         H            0.797092486764     3.495042481410    -0.885283493899     1.007825032230
         H           -4.087908513236     0.193196481410     0.608472506101     1.007825032230
         H           -3.536944513236    -2.181173518590     0.067443506101     1.007825032230

  Basis Set: AUG-CC-PVTZ
    Blend: AUG-CC-PVTZ
  Basis Set: (AUG-CC-PVTZ AUX)
    Blend: AUG-CC-PVTZ-JKFIT
	 Reference Energy          =    -568.4657558502598249 [Eh]
	 Singles Energy            =      -0.0000000000000000 [Eh]
	 Same-Spin Energy          =      -0.6145414235550660 [Eh]
	 Opposite-Spin Energy      =      -1.8868900461298304 [Eh]
	 Correlation Energy        =      -2.5014314696848965 [Eh]
	 Total Energy              =    -570.9671873199447418 [Eh]

	 ================> DF-SCS-MP2 Energies <==================
	-----------------------------------------------------------
	 SCS Same-Spin Scale       =       0.3333333333333333 [-]
	 SCS Opposite-Spin Scale   =       1.2000000000000000 [-]
	 SCS Same-Spin Energy      =      -0.2048471411850220 [Eh]
	 SCS Opposite-Spin Energy  =      -2.2642680553557963 [Eh]
	 SCS Correlation Energy    =      -2.4691151965408182 [Eh]
	 SCS Total Energy          =    -570.9348710468005947 [Eh]
	-----------------------------------------------------------

  Dipole Moment: [D]
     X:    -5.0922      Y:    -0.2030      Z:     0.2116     Total:     5.1006

*** Psi4 exiting successfully. Buy a developer a beer!
