                               Psi4 1.3.2 release

  ==> Input File <==

--------------------------------------------------------------------------
#psi4
#
memory 32 gb

molecule  {
0 1
  O        3.1477550    -1.4485350    -0.2143050
  N        0.9062980    -1.2504610    -0.5893500
  N        1.5545360     1.4658350     0.3351760
  C       -0.6961080     0.5074870     0.0337420
  C       -0.3282068    -0.9171112    -0.2584758
  C        0.3345050     1.5654110    -0.0838510
  C        1.9201190     0.2388570     1.0398190
  C       -2.0282860     0.8425430     0.3372020
  C       -1.4126000    -1.8085370    -0.2310830
  C        2.0871850    -0.8915250     0.0446260
  C       -0.0584500     2.8482670    -0.7690020
  C       -3.0319510    -0.1194250     0.3623450
  C       -2.7230760    -1.4503270     0.0616580
  H        0.9974690    -2.0891180    -1.1576180
  H        1.1650960    -0.0456930     1.7889680
  H        2.8821530     0.3846540     1.5322680
  H       -2.2754030     1.8777800     0.5574090
  H       -1.1609050    -2.8458310    -0.4446670
  H       -0.7945500     3.4046450    -0.1790500
  H       -0.5037450     2.6486950    -1.7485080
  H        0.8332190     3.4662990    -0.8854880
  H       -4.0517820     0.1644530     0.6082680
  H       -3.5008180    -2.2099170     0.0672390
units angstrom
no_reorient  #important for SAPT in psi4, default
symmetry c1  #important for SAPT in psi4, default
}

set PROPERTIES_ORIGIN ["COM"]
properties('MP2/aug-cc-pvtz', properties = ['dipole'])
--------------------------------------------------------------------------

    Molecular point group: c1
  Charge       = 0
  Multiplicity = 1
  Basis Set: AUG-CC-PVTZ
    Blend: AUG-CC-PVTZ
  Basis Set: (AUG-CC-PVTZ AUX)
    Blend: AUG-CC-PVTZ-JKFIT

    Orbital Energies [Eh]
    ---------------------

    Doubly Occupied:

       1A    -20.540196     2A    -15.614372     3A    -15.565215
       4A    -11.370008     5A    -11.318598     6A    -11.300710
       7A    -11.269225     8A    -11.269006     9A    -11.264544
      10A    -11.264410    11A    -11.254492    12A    -11.249829
      13A    -11.232729    14A     -1.396959    15A     -1.297644
      16A     -1.238127    17A     -1.157013    18A     -1.061188
      19A     -1.035822    20A     -1.003131    21A     -0.954011
      22A     -0.891549    23A     -0.859511    24A     -0.802038
      25A     -0.761950    26A     -0.742814    27A     -0.694168
      28A     -0.681321    29A     -0.660364    30A     -0.638504
      31A     -0.622610    32A     -0.619793    33A     -0.612727
      34A     -0.586365    35A     -0.572832    36A     -0.558006
      37A     -0.543367    38A     -0.538348    39A     -0.523791
      40A     -0.503946    41A     -0.463292    42A     -0.453832
      43A     -0.415361    44A     -0.407082    45A     -0.352841
      46A     -0.319945

  @DF-RHF Final Energy:  -568.45178811476626

   => Energetics <=

    Nuclear Repulsion Energy =            760.4064491273327349
    One-Electron Energy =               -2280.7492999856694951
    Two-Electron Energy =                 951.8910627435705010
    Total Energy =                       -568.4517881147662592
  Basis Set: (AUG-CC-PVTZ AUX)
    Blend: AUG-CC-PVTZ-RI
    Molecular point group: c1

    Geometry (in Angstrom), charge = 0, multiplicity = 1:

       Center              X                  Y                   Z               Mass
    ------------   -----------------  -----------------  -----------------  -----------------
         O            3.106937578047    -1.416524100495    -0.211988022618    15.994914619570
         N            0.865480578047    -1.218450100495    -0.587033022618    14.003074004430
         N            1.513718578047     1.497845899505     0.337492977382    14.003074004430
         C           -0.736925421953     0.539497899505     0.036058977382    12.000000000000
         C           -0.369024221953    -0.885100300495    -0.256158822618    12.000000000000
         C            0.293687578047     1.597421899505    -0.081534022618    12.000000000000
         C            1.879301578047     0.270867899505     1.042135977382    12.000000000000
         C           -2.069103421953     0.874553899505     0.339518977382    12.000000000000
         C           -1.453417421953    -1.776526100495    -0.228766022618    12.000000000000
         C            2.046367578047    -0.859514100495     0.046942977382    12.000000000000
         C           -0.099267421953     2.880277899505    -0.766685022618    12.000000000000
         C           -3.072768421953    -0.087414100495     0.364661977382    12.000000000000
         C           -2.763893421953    -1.418316100495     0.063974977382    12.000000000000
         H            0.956651578047    -2.057107100495    -1.155301022618     1.007825032230
         H            1.124278578047    -0.013682100495     1.791284977382     1.007825032230
         H            2.841335578047     0.416664899505     1.534584977382     1.007825032230
         H           -2.316220421953     1.909790899505     0.559725977382     1.007825032230
         H           -1.201722421953    -2.813820100495    -0.442350022618     1.007825032230
         H           -0.835367421953     3.436655899505    -0.176733022618     1.007825032230
         H           -0.544562421953     2.680705899505    -1.746191022618     1.007825032230
         H            0.792401578047     3.498309899505    -0.883171022618     1.007825032230
         H           -4.092599421953     0.196463899505     0.610584977382     1.007825032230
         H           -3.541635421953    -2.177906100495     0.069555977382     1.007825032230

  Basis Set: AUG-CC-PVTZ
    Blend: AUG-CC-PVTZ
  Basis Set: (AUG-CC-PVTZ AUX)
    Blend: AUG-CC-PVTZ-JKFIT
	 Reference Energy          =    -568.4517881147662592 [Eh]
	 Singles Energy            =      -0.0000000000000000 [Eh]
	 Same-Spin Energy          =      -0.6157641062201220 [Eh]
	 Opposite-Spin Energy      =      -1.8886347227705853 [Eh]
	 Correlation Energy        =      -2.5043988289907073 [Eh]
	 Total Energy              =    -570.9561869437569612 [Eh]

	 ================> DF-SCS-MP2 Energies <==================
	-----------------------------------------------------------
	 SCS Same-Spin Scale       =       0.3333333333333333 [-]
	 SCS Opposite-Spin Scale   =       1.2000000000000000 [-]
	 SCS Same-Spin Energy      =      -0.2052547020733740 [Eh]
	 SCS Opposite-Spin Energy  =      -2.2663616673247025 [Eh]
	 SCS Correlation Energy    =      -2.4716163693980766 [Eh]
	 SCS Total Energy          =    -570.9234044841642799 [Eh]
	-----------------------------------------------------------

  Dipole Moment: [D]
     X:    -4.6644      Y:    -0.3746      Z:     0.1608     Total:     4.6822

*** Psi4 exiting successfully. Buy a developer a beer!
