                               Psi4 1.3.2 release

  ==> Input File <==

--------------------------------------------------------------------------
#psi4
#
memory 32 gb

molecule  {
0 1
  O        3.1477550    -1.4485350    -0.2143050
  N        0.9062980    -1.2504610    -0.5893500
  N        1.5545360     1.4658350     0.3351760
  C       -0.6961080     0.5074870     0.0337420
  C       -0.5344213    -0.8740164    -0.2138481
  C        0.3345050     1.5654110    -0.0838510
  C        1.9201190     0.2388570     1.0398190
  C       -2.0282860     0.8425430     0.3372020
  C       -1.4126000    -1.8085370    -0.2310830
  C        2.0871850    -0.8915250     0.0446260
  C       -0.0584500     2.8482670    -0.7690020
  C       -3.0319510    -0.1194250     0.3623450
  C       -2.7230760    -1.4503270     0.0616580
  H        0.9974690    -2.0891180    -1.1576180
  H        1.1650960    -0.0456930     1.7889680
  H        2.8821530     0.3846540     1.5322680
  H       -2.2754030     1.8777800     0.5574090
  H       -1.1609050    -2.8458310    -0.4446670
  H       -0.7945500     3.4046450    -0.1790500
  H       -0.5037450     2.6486950    -1.7485080
  H        0.8332190     3.4662990    -0.8854880
  H       -4.0517820     0.1644530     0.6082680
  H       -3.5008180    -2.2099170     0.0672390
units angstrom
no_reorient  #important for SAPT in psi4, default
symmetry c1  #important for SAPT in psi4, default
}

set PROPERTIES_ORIGIN ["COM"]
properties('MP2/aug-cc-pvtz', properties = ['dipole'])
--------------------------------------------------------------------------

    Molecular point group: c1
  Charge       = 0
  Multiplicity = 1
  Basis Set: AUG-CC-PVTZ
    Blend: AUG-CC-PVTZ
  Basis Set: (AUG-CC-PVTZ AUX)
    Blend: AUG-CC-PVTZ-JKFIT

    Orbital Energies [Eh]
    ---------------------

    Doubly Occupied:

       1A    -20.523409     2A    -15.593346     3A    -15.568685
       4A    -11.354584     5A    -11.308620     6A    -11.305777
       7A    -11.271641     8A    -11.269997     9A    -11.269498
      10A    -11.264157    11A    -11.257961    12A    -11.249872
      13A    -11.236212    14A     -1.376932    15A     -1.260118
      16A     -1.221452    17A     -1.173072    18A     -1.072593
      19A     -1.048959    20A     -1.012164    21A     -0.949198
      22A     -0.890207    23A     -0.848785    24A     -0.787886
      25A     -0.775206    26A     -0.717184    27A     -0.683219
      28A     -0.674908    29A     -0.662957    30A     -0.648418
      31A     -0.630434    32A     -0.615938    33A     -0.594326
      34A     -0.586772    35A     -0.561769    36A     -0.558764
      37A     -0.549676    38A     -0.535095    39A     -0.530583
      40A     -0.519185    41A     -0.450160    42A     -0.431181
      43A     -0.420399    44A     -0.404700    45A     -0.361530
      46A     -0.343945

  @DF-RHF Final Energy:  -568.43911571214858

   => Energetics <=

    Nuclear Repulsion Energy =            760.3264205714850732
    One-Electron Energy =               -2280.7881272263211940
    Two-Electron Energy =                 952.0225909426876569
    Total Energy =                       -568.4391157121485776
  Basis Set: (AUG-CC-PVTZ AUX)
    Blend: AUG-CC-PVTZ-RI
    Molecular point group: c1

    Geometry (in Angstrom), charge = 0, multiplicity = 1:

       Center              X                  Y                   Z               Mass
    ------------   -----------------  -----------------  -----------------  -----------------
         O            3.121152788103    -1.419494801558    -0.215064392756    15.994914619570
         N            0.879695788103    -1.221420801558    -0.590109392756    14.003074004430
         N            1.527933788103     1.494875198442     0.334416607244    14.003074004430
         C           -0.722710211897     0.536527198442     0.032982607244    12.000000000000
         C           -0.561023511897    -0.844976201558    -0.214607492756    12.000000000000
         C            0.307902788103     1.594451198442    -0.084610392756    12.000000000000
         C            1.893516788103     0.267897198442     1.039059607244    12.000000000000
         C           -2.054888211897     0.871583198442     0.336442607244    12.000000000000
         C           -1.439202211897    -1.779496801558    -0.231842392756    12.000000000000
         C            2.060582788103    -0.862484801558     0.043866607244    12.000000000000
         C           -0.085052211897     2.877307198442    -0.769761392756    12.000000000000
         C           -3.058553211897    -0.090384801558     0.361585607244    12.000000000000
         C           -2.749678211897    -1.421286801558     0.060898607244    12.000000000000
         H            0.970866788103    -2.060077801558    -1.158377392756     1.007825032230
         H            1.138493788103    -0.016652801558     1.788208607244     1.007825032230
         H            2.855550788103     0.413694198442     1.531508607244     1.007825032230
         H           -2.302005211897     1.906820198442     0.556649607244     1.007825032230
         H           -1.187507211897    -2.816790801558    -0.445426392756     1.007825032230
         H           -0.821152211897     3.433685198442    -0.179809392756     1.007825032230
         H           -0.530347211897     2.677735198442    -1.749267392756     1.007825032230
         H            0.806616788103     3.495339198442    -0.886247392756     1.007825032230
         H           -4.078384211897     0.193493198442     0.607508607244     1.007825032230
         H           -3.527420211897    -2.180876801558     0.066479607244     1.007825032230

  Basis Set: AUG-CC-PVTZ
    Blend: AUG-CC-PVTZ
  Basis Set: (AUG-CC-PVTZ AUX)
    Blend: AUG-CC-PVTZ-JKFIT
	 Reference Energy          =    -568.4391157121485776 [Eh]
	 Singles Energy            =      -0.0000000000000000 [Eh]
	 Same-Spin Energy          =      -0.6139743962609139 [Eh]
	 Opposite-Spin Energy      =      -1.8877912361257005 [Eh]
	 Correlation Energy        =      -2.5017656323866144 [Eh]
	 Total Energy              =    -570.9408813445352280 [Eh]

	 ================> DF-SCS-MP2 Energies <==================
	-----------------------------------------------------------
	 SCS Same-Spin Scale       =       0.3333333333333333 [-]
	 SCS Opposite-Spin Scale   =       1.2000000000000000 [-]
	 SCS Same-Spin Energy      =      -0.2046581320869713 [Eh]
	 SCS Opposite-Spin Energy  =      -2.2653494833508407 [Eh]
	 SCS Correlation Energy    =      -2.4700076154378121 [Eh]
	 SCS Total Energy          =    -570.9091233275863715 [Eh]
	-----------------------------------------------------------

  Dipole Moment: [D]
     X:    -5.7285      Y:    -0.0926      Z:     0.3494     Total:     5.7399

*** Psi4 exiting successfully. Buy a developer a beer!
