                               Psi4 1.3.2 release

  ==> Input File <==

--------------------------------------------------------------------------
#psi4
#
memory 32 gb

molecule  {
0 1
  O        3.1477550    -1.4485350    -0.2143050
  N        0.9062980    -1.2504610    -0.5893500
  N        1.5545360     1.4658350     0.3351760
  C       -0.7425620     0.3685406     0.0189503
  C       -0.3911060    -0.8453020    -0.2363150
  C        0.3345050     1.5654110    -0.0838510
  C        1.9201190     0.2388570     1.0398190
  C       -2.0282860     0.8425430     0.3372020
  C       -1.4126000    -1.8085370    -0.2310830
  C        2.0871850    -0.8915250     0.0446260
  C       -0.0584500     2.8482670    -0.7690020
  C       -3.0319510    -0.1194250     0.3623450
  C       -2.7230760    -1.4503270     0.0616580
  H        0.9974690    -2.0891180    -1.1576180
  H        1.1650960    -0.0456930     1.7889680
  H        2.8821530     0.3846540     1.5322680
  H       -2.2754030     1.8777800     0.5574090
  H       -1.1609050    -2.8458310    -0.4446670
  H       -0.7945500     3.4046450    -0.1790500
  H       -0.5037450     2.6486950    -1.7485080
  H        0.8332190     3.4662990    -0.8854880
  H       -4.0517820     0.1644530     0.6082680
  H       -3.5008180    -2.2099170     0.0672390
units angstrom
no_reorient  #important for SAPT in psi4, default
symmetry c1  #important for SAPT in psi4, default
}

set PROPERTIES_ORIGIN ["COM"]
properties('MP2/aug-cc-pvtz', properties = ['dipole'])
--------------------------------------------------------------------------

    Molecular point group: c1
  Charge       = 0
  Multiplicity = 1
  Basis Set: AUG-CC-PVTZ
    Blend: AUG-CC-PVTZ
  Basis Set: (AUG-CC-PVTZ AUX)
    Blend: AUG-CC-PVTZ-JKFIT

    Orbital Energies [Eh]
    ---------------------

    Doubly Occupied:

       1A    -20.531321     2A    -15.604960     3A    -15.566012
       4A    -11.361632     5A    -11.307712     6A    -11.296378
       7A    -11.266646     8A    -11.264438     9A    -11.261381
      10A    -11.260442    11A    -11.258808    12A    -11.254445
      13A    -11.236130    14A     -1.386591    15A     -1.277464
      16A     -1.229012    17A     -1.173119    18A     -1.059081
      19A     -1.038646    20A     -1.019808    21A     -0.950937
      22A     -0.877233    23A     -0.862501    24A     -0.791551
      25A     -0.768321    26A     -0.723310    27A     -0.690035
      28A     -0.676631    29A     -0.657055    30A     -0.651381
      31A     -0.627722    32A     -0.616039    33A     -0.604652
      34A     -0.585811    35A     -0.568614    36A     -0.558897
      37A     -0.542572    38A     -0.539310    39A     -0.531704
      40A     -0.512607    41A     -0.455931    42A     -0.443899
      43A     -0.410818    44A     -0.397819    45A     -0.358524
      46A     -0.341076

  @DF-RHF Final Energy:  -568.44316396486761

   => Energetics <=

    Nuclear Repulsion Energy =            761.4877693740585300
    One-Electron Energy =               -2283.0639076681550250
    Two-Electron Energy =                 953.1329743292287731
    Total Energy =                       -568.4431639648676082
  Basis Set: (AUG-CC-PVTZ AUX)
    Blend: AUG-CC-PVTZ-RI
    Molecular point group: c1

    Geometry (in Angstrom), charge = 0, multiplicity = 1:

       Center              X                  Y                   Z               Mass
    ------------   -----------------  -----------------  -----------------  -----------------
         O            3.114475741990    -1.411896058332    -0.212496004862    15.994914619570
         N            0.873018741990    -1.213822058332    -0.587541004862    14.003074004430
         N            1.521256741990     1.502473941668     0.336984995138    14.003074004430
         C           -0.775841258010     0.405179541668     0.020759295138    12.000000000000
         C           -0.424385258010    -0.808663058332    -0.234506004862    12.000000000000
         C            0.301225741990     1.602049941668    -0.082042004862    12.000000000000
         C            1.886839741990     0.275495941668     1.041627995138    12.000000000000
         C           -2.061565258010     0.879181941668     0.339010995138    12.000000000000
         C           -1.445879258010    -1.771898058332    -0.229274004862    12.000000000000
         C            2.053905741990    -0.854886058332     0.046434995138    12.000000000000
         C           -0.091729258010     2.884905941668    -0.767193004862    12.000000000000
         C           -3.065230258010    -0.082786058332     0.364153995138    12.000000000000
         C           -2.756355258010    -1.413688058332     0.063466995138    12.000000000000
         H            0.964189741990    -2.052479058332    -1.155809004862     1.007825032230
         H            1.131816741990    -0.009054058332     1.790776995138     1.007825032230
         H            2.848873741990     0.421292941668     1.534076995138     1.007825032230
         H           -2.308682258010     1.914418941668     0.559217995138     1.007825032230
         H           -1.194184258010    -2.809192058332    -0.442858004862     1.007825032230
         H           -0.827829258010     3.441283941668    -0.177241004862     1.007825032230
         H           -0.537024258010     2.685333941668    -1.746699004862     1.007825032230
         H            0.799939741990     3.502937941668    -0.883679004862     1.007825032230
         H           -4.085061258010     0.201091941668     0.610076995138     1.007825032230
         H           -3.534097258010    -2.173278058332     0.069047995138     1.007825032230

  Basis Set: AUG-CC-PVTZ
    Blend: AUG-CC-PVTZ
  Basis Set: (AUG-CC-PVTZ AUX)
    Blend: AUG-CC-PVTZ-JKFIT
	 Reference Energy          =    -568.4431639648676082 [Eh]
	 Singles Energy            =      -0.0000000000000000 [Eh]
	 Same-Spin Energy          =      -0.6132431660526427 [Eh]
	 Opposite-Spin Energy      =      -1.8865189494664585 [Eh]
	 Correlation Energy        =      -2.4997621155191014 [Eh]
	 Total Energy              =    -570.9429260803866555 [Eh]

	 ================> DF-SCS-MP2 Energies <==================
	-----------------------------------------------------------
	 SCS Same-Spin Scale       =       0.3333333333333333 [-]
	 SCS Opposite-Spin Scale   =       1.2000000000000000 [-]
	 SCS Same-Spin Energy      =      -0.2044143886842142 [Eh]
	 SCS Opposite-Spin Energy  =      -2.2638227393597501 [Eh]
	 SCS Correlation Energy    =      -2.4682371280439641 [Eh]
	 SCS Total Energy          =    -570.9114010929115466 [Eh]
	-----------------------------------------------------------

  Dipole Moment: [D]
     X:    -5.1147      Y:    -0.0803      Z:     0.2336     Total:     5.1207

*** Psi4 exiting successfully. Buy a developer a beer!
