                               Psi4 1.3.2 release

  ==> Input File <==

--------------------------------------------------------------------------
#psi4
#
memory 32 gb

molecule  {
0 1
  O        3.1477550    -1.4485350    -0.2143050
  N        0.9062980    -1.2504610    -0.5893500
  N        1.5545360     1.4658350     0.3351760
  C       -0.6961080     0.5074870     0.0337420
  C       -0.4385834    -0.8565392    -0.2291433
  C        0.3345050     1.5654110    -0.0838510
  C        1.9201190     0.2388570     1.0398190
  C       -2.0282860     0.8425430     0.3372020
  C       -1.4126000    -1.8085370    -0.2310830
  C        2.0871850    -0.8915250     0.0446260
  C       -0.0584500     2.8482670    -0.7690020
  C       -3.0319510    -0.1194250     0.3623450
  C       -2.7230760    -1.4503270     0.0616580
  H        0.9974690    -2.0891180    -1.1576180
  H        1.1650960    -0.0456930     1.7889680
  H        2.8821530     0.3846540     1.5322680
  H       -2.2754030     1.8777800     0.5574090
  H       -1.1609050    -2.8458310    -0.4446670
  H       -0.7945500     3.4046450    -0.1790500
  H       -0.5037450     2.6486950    -1.7485080
  H        0.8332190     3.4662990    -0.8854880
  H       -4.0517820     0.1644530     0.6082680
  H       -3.5008180    -2.2099170     0.0672390
units angstrom
no_reorient  #important for SAPT in psi4, default
symmetry c1  #important for SAPT in psi4, default
}

set PROPERTIES_ORIGIN ["COM"]
properties('MP2/aug-cc-pvtz', properties = ['dipole'])
--------------------------------------------------------------------------

    Molecular point group: c1
  Charge       = 0
  Multiplicity = 1
  Basis Set: AUG-CC-PVTZ
    Blend: AUG-CC-PVTZ
  Basis Set: (AUG-CC-PVTZ AUX)
    Blend: AUG-CC-PVTZ-JKFIT

    Orbital Energies [Eh]
    ---------------------

    Doubly Occupied:

       1A    -20.529298     2A    -15.602757     3A    -15.567721
       4A    -11.360046     5A    -11.312149     6A    -11.303573
       7A    -11.268207     8A    -11.267000     9A    -11.266846
      10A    -11.266112    11A    -11.255600    12A    -11.255259
      13A    -11.234927    14A     -1.383801    15A     -1.268508
      16A     -1.228982    17A     -1.168125    18A     -1.066951
      19A     -1.040334    20A     -1.011597    21A     -0.950880
      22A     -0.886608    23A     -0.854749    24A     -0.793243
      25A     -0.769882    26A     -0.723861    27A     -0.688790
      28A     -0.676395    29A     -0.658250    30A     -0.649210
      31A     -0.628468    32A     -0.617679    33A     -0.601324
      34A     -0.586790    35A     -0.564421    36A     -0.559092
      37A     -0.545199    38A     -0.537566    39A     -0.529387
      40A     -0.518263    41A     -0.455394    42A     -0.440199
      43A     -0.418686    44A     -0.405102    45A     -0.356314
      46A     -0.337242

  @DF-RHF Final Energy:  -568.46295738713570

   => Energetics <=

    Nuclear Repulsion Energy =            760.5459512965386466
    One-Electron Energy =               -2281.1962478124746667
    Two-Electron Energy =                 952.1873391288004314
    Total Energy =                       -568.4629573871357024
  Basis Set: (AUG-CC-PVTZ AUX)
    Blend: AUG-CC-PVTZ-RI
    Molecular point group: c1

    Geometry (in Angstrom), charge = 0, multiplicity = 1:

       Center              X                  Y                   Z               Mass
    ------------   -----------------  -----------------  -----------------  -----------------
         O            3.114546289143    -1.420699576533    -0.214010031977    15.994914619570
         N            0.873089289143    -1.222625576533    -0.589055031977    14.003074004430
         N            1.521327289143     1.493670423467     0.335470968023    14.003074004430
         C           -0.729316710857     0.535322423467     0.034036968023    12.000000000000
         C           -0.471792110857    -0.828703776533    -0.228848331977    12.000000000000
         C            0.301296289143     1.593246423467    -0.083556031977    12.000000000000
         C            1.886910289143     0.266692423467     1.040113968023    12.000000000000
         C           -2.061494710857     0.870378423467     0.337496968023    12.000000000000
         C           -1.445808710857    -1.780701576533    -0.230788031977    12.000000000000
         C            2.053976289143    -0.863689576533     0.044920968023    12.000000000000
         C           -0.091658710857     2.876102423467    -0.768707031977    12.000000000000
         C           -3.065159710857    -0.091589576533     0.362639968023    12.000000000000
         C           -2.756284710857    -1.422491576533     0.061952968023    12.000000000000
         H            0.964260289143    -2.061282576533    -1.157323031977     1.007825032230
         H            1.131887289143    -0.017857576533     1.789262968023     1.007825032230
         H            2.848944289143     0.412489423467     1.532562968023     1.007825032230
         H           -2.308611710857     1.905615423467     0.557703968023     1.007825032230
         H           -1.194113710857    -2.817995576533    -0.444372031977     1.007825032230
         H           -0.827758710857     3.432480423467    -0.178755031977     1.007825032230
         H           -0.536953710857     2.676530423467    -1.748213031977     1.007825032230
         H            0.800010289143     3.494134423467    -0.885193031977     1.007825032230
         H           -4.084990710857     0.192288423467     0.608562968023     1.007825032230
         H           -3.534026710857    -2.182081576533     0.067533968023     1.007825032230

  Basis Set: AUG-CC-PVTZ
    Blend: AUG-CC-PVTZ
  Basis Set: (AUG-CC-PVTZ AUX)
    Blend: AUG-CC-PVTZ-JKFIT
	 Reference Energy          =    -568.4629573871357024 [Eh]
	 Singles Energy            =      -0.0000000000000000 [Eh]
	 Same-Spin Energy          =      -0.6141583129647509 [Eh]
	 Opposite-Spin Energy      =      -1.8870346726474478 [Eh]
	 Correlation Energy        =      -2.5011929856121986 [Eh]
	 Total Energy              =    -570.9641503727478948 [Eh]

	 ================> DF-SCS-MP2 Energies <==================
	-----------------------------------------------------------
	 SCS Same-Spin Scale       =       0.3333333333333333 [-]
	 SCS Opposite-Spin Scale   =       1.2000000000000000 [-]
	 SCS Same-Spin Energy      =      -0.2047194376549170 [Eh]
	 SCS Opposite-Spin Energy  =      -2.2644416071769373 [Eh]
	 SCS Correlation Energy    =      -2.4691610448318544 [Eh]
	 SCS Total Energy          =    -570.9321184319675240 [Eh]
	-----------------------------------------------------------

  Dipole Moment: [D]
     X:    -5.3187      Y:    -0.1876      Z:     0.2701     Total:     5.3289

*** Psi4 exiting successfully. Buy a developer a beer!
