                               Psi4 1.4a3.dev225

  ==> Input File <==

--------------------------------------------------------------------------
#psi4
#
memory 32 gb

molecule  {
0 1
  O        3.1477550    -1.4485350    -0.2143050
  N        0.9062980    -1.2504610    -0.5893500
  N        1.5545360     1.4658350     0.3351760
  C       -0.6961080     0.5074870     0.0337420
  C       -0.3911060    -0.8453020    -0.2363150
  C        0.3345050     1.5654110    -0.0838510
  C        1.9201190     0.2388570     1.0398190
  C       -2.0282860     0.8425430     0.3372020
  C       -1.4126000    -1.8085370    -0.2310830
  C        2.0698782    -0.8824355     0.0488513
  C       -0.0584500     2.8482670    -0.7690020
  C       -3.0319510    -0.1194250     0.3623450
  C       -2.7230760    -1.4503270     0.0616580
  H        0.9974690    -2.0891180    -1.1576180
  H        1.1650960    -0.0456930     1.7889680
  H        2.8821530     0.3846540     1.5322680
  H       -2.2754030     1.8777800     0.5574090
  H       -1.1609050    -2.8458310    -0.4446670
  H       -0.7945500     3.4046450    -0.1790500
  H       -0.5037450     2.6486950    -1.7485080
  H        0.8332190     3.4662990    -0.8854880
  H       -4.0517820     0.1644530     0.6082680
  H       -3.5008180    -2.2099170     0.0672390
units angstrom
no_reorient  #important for SAPT in psi4, default
symmetry c1  #important for SAPT in psi4, default
}

set PROPERTIES_ORIGIN ["COM"]
properties('MP2/aug-cc-pvtz', properties = ['dipole'])
--------------------------------------------------------------------------

    Molecular point group: c1
  Charge       = 0
  Multiplicity = 1
  Basis Set: AUG-CC-PVTZ
    Blend: AUG-CC-PVTZ
  Basis Set: (AUG-CC-PVTZ AUX)
    Blend: AUG-CC-PVTZ-JKFIT

    Orbital Energies [Eh]
    ---------------------

    Doubly Occupied:

       1A    -20.528194     2A    -15.609731     3A    -15.567936
       4A    -11.362931     5A    -11.315289     6A    -11.303286
       7A    -11.267888     8A    -11.267564     9A    -11.266743
      10A    -11.266370    11A    -11.259378    12A    -11.254810
      13A    -11.234858    14A     -1.376200    15A     -1.275961
      16A     -1.234564    17A     -1.165808    18A     -1.066819
      19A     -1.036722    20A     -1.012716    21A     -0.953744
      22A     -0.887313    23A     -0.859235    24A     -0.797972
      25A     -0.769473    26A     -0.730348    27A     -0.692141
      28A     -0.677031    29A     -0.658381    30A     -0.649187
      31A     -0.626360    32A     -0.618828    33A     -0.601627
      34A     -0.586392    35A     -0.565656    36A     -0.559575
      37A     -0.544278    38A     -0.539546    39A     -0.526262
      40A     -0.516410    41A     -0.454970    42A     -0.441509
      43A     -0.418248    44A     -0.406378    45A     -0.356016
      46A     -0.333313

  @DF-RHF Final Energy:  -568.46332044550547

   => Energetics <=

    Nuclear Repulsion Energy =            760.9064946970048595
    One-Electron Energy =               -2281.8517096323994338
    Two-Electron Energy =                 952.4818944898892141
    Total Energy =                       -568.4633204455054738
  Basis Set: (AUG-CC-PVTZ AUX)
    Blend: AUG-CC-PVTZ-RI
    Molecular point group: c1

    Geometry (in Angstrom), charge = 0, multiplicity = 1:

       Center              X                  Y                   Z               Mass
    ------------   -----------------  -----------------  -----------------  -----------------
         O            3.112466506119    -1.422100779214    -0.213806924558    15.994914619570
         N            0.871009506119    -1.224026779214    -0.588851924558    14.003074004430
         N            1.519247506119     1.492269220786     0.335674075442    14.003074004430
         C           -0.731396493881     0.533921220786     0.034240075442    12.000000000000
         C           -0.426394493881    -0.818867779214    -0.235816924558    12.000000000000
         C            0.299216506119     1.591845220786    -0.083352924558    12.000000000000
         C            1.884830506119     0.265291220786     1.040317075442    12.000000000000
         C           -2.063574493881     0.868977220786     0.337700075442    12.000000000000
         C           -1.447888493881    -1.782102779214    -0.230584924558    12.000000000000
         C            2.034589706119    -0.856001279214     0.049349375442    12.000000000000
         C           -0.093738493881     2.874701220786    -0.768503924558    12.000000000000
         C           -3.067239493881    -0.092990779214     0.362843075442    12.000000000000
         C           -2.758364493881    -1.423892779214     0.062156075442    12.000000000000
         H            0.962180506119    -2.062683779214    -1.157119924558     1.007825032230
         H            1.129807506119    -0.019258779214     1.789466075442     1.007825032230
         H            2.846864506119     0.411088220786     1.532766075442     1.007825032230
         H           -2.310691493881     1.904214220786     0.557907075442     1.007825032230
         H           -1.196193493881    -2.819396779214    -0.444168924558     1.007825032230
         H           -0.829838493881     3.431079220786    -0.178551924558     1.007825032230
         H           -0.539033493881     2.675129220786    -1.748009924558     1.007825032230
         H            0.797930506119     3.492733220786    -0.884989924558     1.007825032230
         H           -4.087070493881     0.190887220786     0.608766075442     1.007825032230
         H           -3.536106493881    -2.183482779214     0.067737075442     1.007825032230

  Basis Set: AUG-CC-PVTZ
    Blend: AUG-CC-PVTZ
  Basis Set: (AUG-CC-PVTZ AUX)
    Blend: AUG-CC-PVTZ-JKFIT
	 Reference Energy          =    -568.4633204455054738 [Eh]
	 Singles Energy            =      -0.0000000000000000 [Eh]
	 Same-Spin Energy          =      -0.6149102936327415 [Eh]
	 Opposite-Spin Energy      =      -1.8880589181222196 [Eh]
	 Correlation Energy        =      -2.5029692117549613 [Eh]
	 Total Energy              =    -570.9662896572604041 [Eh]

	 ================> DF-SCS-MP2 Energies <==================
	-----------------------------------------------------------
	 SCS Same-Spin Scale       =       0.3333333333333333 [-]
	 SCS Opposite-Spin Scale   =       1.2000000000000000 [-]
	 SCS Same-Spin Energy      =      -0.2049700978775805 [Eh]
	 SCS Opposite-Spin Energy  =      -2.2656707017466635 [Eh]
	 SCS Correlation Energy    =      -2.4706407996242441 [Eh]
	 SCS Total Energy          =    -570.9339612451296944 [Eh]
	-----------------------------------------------------------

  Dipole Moment: [D]
     X:    -5.2992      Y:    -0.1753      Z:     0.2353     Total:     5.3073

*** Psi4 exiting successfully. Buy a developer a beer!
