                               Psi4 1.3.2 release

  ==> Input File <==

--------------------------------------------------------------------------
#psi4
#
memory 32 gb

molecule  {
0 1
  O        3.1477550    -1.4485350    -0.2143050
  N        0.9062980    -1.2504610    -0.5893500
  N        1.5545360     1.4658350     0.3351760
  C       -0.6961080     0.5074870     0.0337420
  C       -0.3911060    -0.8453020    -0.2363150
  C        0.4040649     1.6368142    -0.0917878
  C        1.9201190     0.2388570     1.0398190
  C       -2.0282860     0.8425430     0.3372020
  C       -1.4126000    -1.8085370    -0.2310830
  C        2.0871850    -0.8915250     0.0446260
  C       -0.0584500     2.8482670    -0.7690020
  C       -3.0319510    -0.1194250     0.3623450
  C       -2.7230760    -1.4503270     0.0616580
  H        0.9974690    -2.0891180    -1.1576180
  H        1.1650960    -0.0456930     1.7889680
  H        2.8821530     0.3846540     1.5322680
  H       -2.2754030     1.8777800     0.5574090
  H       -1.1609050    -2.8458310    -0.4446670
  H       -0.7945500     3.4046450    -0.1790500
  H       -0.5037450     2.6486950    -1.7485080
  H        0.8332190     3.4662990    -0.8854880
  H       -4.0517820     0.1644530     0.6082680
  H       -3.5008180    -2.2099170     0.0672390
units angstrom
no_reorient  #important for SAPT in psi4, default
symmetry c1  #important for SAPT in psi4, default
}

set PROPERTIES_ORIGIN ["COM"]
properties('MP2/aug-cc-pvtz', properties = ['dipole'])
--------------------------------------------------------------------------

    Molecular point group: c1
  Charge       = 0
  Multiplicity = 1
  Basis Set: AUG-CC-PVTZ
    Blend: AUG-CC-PVTZ
  Basis Set: (AUG-CC-PVTZ AUX)
    Blend: AUG-CC-PVTZ-JKFIT

    Orbital Energies [Eh]
    ---------------------

    Doubly Occupied:

       1A    -20.533207     2A    -15.605298     3A    -15.563222
       4A    -11.363795     5A    -11.309205     6A    -11.301513
       7A    -11.272605     8A    -11.265670     9A    -11.261274
      10A    -11.260653    11A    -11.255207    12A    -11.250552
      13A    -11.234210    14A     -1.388188    15A     -1.278567
      16A     -1.246285    17A     -1.159514    18A     -1.060621
      19A     -1.033792    20A     -1.014289    21A     -0.964671
      22A     -0.873969    23A     -0.853962    24A     -0.792630
      25A     -0.761500    26A     -0.725334    27A     -0.693404
      28A     -0.678773    29A     -0.654769    30A     -0.646082
      31A     -0.628303    32A     -0.624090    33A     -0.605776
      34A     -0.591601    35A     -0.566301    36A     -0.558150
      37A     -0.554524    38A     -0.533900    39A     -0.525844
      40A     -0.512948    41A     -0.463287    42A     -0.443307
      43A     -0.417367    44A     -0.400211    45A     -0.355423
      46A     -0.328959

  @DF-RHF Final Energy:  -568.46047643860368

   => Energetics <=

    Nuclear Repulsion Energy =            760.0233729375886469
    One-Electron Energy =               -2280.1421906086256968
    Two-Electron Energy =                 951.6583412324333722
    Total Energy =                       -568.4604764386036777
  Basis Set: (AUG-CC-PVTZ AUX)
    Blend: AUG-CC-PVTZ-RI
    Molecular point group: c1

    Geometry (in Angstrom), charge = 0, multiplicity = 1:

       Center              X                  Y                   Z               Mass
    ------------   -----------------  -----------------  -----------------  -----------------
         O            3.106478428717    -1.426396317767    -0.212968541194    15.994914619570
         N            0.865021428717    -1.228322317767    -0.588013541194    14.003074004430
         N            1.513259428717     1.487973682233     0.336512458806    14.003074004430
         C           -0.737384571283     0.529625682233     0.035078458806    12.000000000000
         C           -0.432382571283    -0.823163317767    -0.234978541194    12.000000000000
         C            0.362788328717     1.658952882233    -0.090451341194    12.000000000000
         C            1.878842428717     0.260995682233     1.041155458806    12.000000000000
         C           -2.069562571283     0.864681682233     0.338538458806    12.000000000000
         C           -1.453876571283    -1.786398317767    -0.229746541194    12.000000000000
         C            2.045908428717    -0.869386317767     0.045962458806    12.000000000000
         C           -0.099726571283     2.870405682233    -0.767665541194    12.000000000000
         C           -3.073227571283    -0.097286317767     0.363681458806    12.000000000000
         C           -2.764352571283    -1.428188317767     0.062994458806    12.000000000000
         H            0.956192428717    -2.066979317767    -1.156281541194     1.007825032230
         H            1.123819428717    -0.023554317767     1.790304458806     1.007825032230
         H            2.840876428717     0.406792682233     1.533604458806     1.007825032230
         H           -2.316679571283     1.899918682233     0.558745458806     1.007825032230
         H           -1.202181571283    -2.823692317767    -0.443330541194     1.007825032230
         H           -0.835826571283     3.426783682233    -0.177713541194     1.007825032230
         H           -0.545021571283     2.670833682233    -1.747171541194     1.007825032230
         H            0.791942428717     3.488437682233    -0.884151541194     1.007825032230
         H           -4.093058571283     0.186591682233     0.609604458806     1.007825032230
         H           -3.542094571283    -2.187778317767     0.068575458806     1.007825032230

  Basis Set: AUG-CC-PVTZ
    Blend: AUG-CC-PVTZ
  Basis Set: (AUG-CC-PVTZ AUX)
    Blend: AUG-CC-PVTZ-JKFIT
	 Reference Energy          =    -568.4604764386036777 [Eh]
	 Singles Energy            =      -0.0000000000000000 [Eh]
	 Same-Spin Energy          =      -0.6130370545085995 [Eh]
	 Opposite-Spin Energy      =      -1.8844257885896587 [Eh]
	 Correlation Energy        =      -2.4974628430982584 [Eh]
	 Total Energy              =    -570.9579392817018970 [Eh]

	 ================> DF-SCS-MP2 Energies <==================
	-----------------------------------------------------------
	 SCS Same-Spin Scale       =       0.3333333333333333 [-]
	 SCS Opposite-Spin Scale   =       1.2000000000000000 [-]
	 SCS Same-Spin Energy      =      -0.2043456848361998 [Eh]
	 SCS Opposite-Spin Energy  =      -2.2613109463075904 [Eh]
	 SCS Correlation Energy    =      -2.4656566311437902 [Eh]
	 SCS Total Energy          =    -570.9261330697474932 [Eh]
	-----------------------------------------------------------

  Dipole Moment: [D]
     X:    -4.8674      Y:     0.0529      Z:     0.1999     Total:     4.8718

*** Psi4 exiting successfully. Buy a developer a beer!
