                               Psi4 1.3.2 release

  ==> Input File <==

--------------------------------------------------------------------------
#psi4
#
memory 32 gb

molecule  {
0 1
  O        3.1477550    -1.4485350    -0.2143050
  N        0.9062980    -1.2504610    -0.5893500
  N        1.5545360     1.4658350     0.3351760
  C       -0.6961080     0.5074870     0.0337420
  C       -0.3695175    -0.9410545    -0.2554301
  C        0.3345050     1.5654110    -0.0838510
  C        1.9201190     0.2388570     1.0398190
  C       -2.0282860     0.8425430     0.3372020
  C       -1.4126000    -1.8085370    -0.2310830
  C        2.0871850    -0.8915250     0.0446260
  C       -0.0584500     2.8482670    -0.7690020
  C       -3.0319510    -0.1194250     0.3623450
  C       -2.7230760    -1.4503270     0.0616580
  H        0.9974690    -2.0891180    -1.1576180
  H        1.1650960    -0.0456930     1.7889680
  H        2.8821530     0.3846540     1.5322680
  H       -2.2754030     1.8777800     0.5574090
  H       -1.1609050    -2.8458310    -0.4446670
  H       -0.7945500     3.4046450    -0.1790500
  H       -0.5037450     2.6486950    -1.7485080
  H        0.8332190     3.4662990    -0.8854880
  H       -4.0517820     0.1644530     0.6082680
  H       -3.5008180    -2.2099170     0.0672390
units angstrom
no_reorient  #important for SAPT in psi4, default
symmetry c1  #important for SAPT in psi4, default
}

set PROPERTIES_ORIGIN ["COM"]
properties('MP2/aug-cc-pvtz', properties = ['dipole'])
--------------------------------------------------------------------------

    Molecular point group: c1
  Charge       = 0
  Multiplicity = 1
  Basis Set: AUG-CC-PVTZ
    Blend: AUG-CC-PVTZ
  Basis Set: (AUG-CC-PVTZ AUX)
    Blend: AUG-CC-PVTZ-JKFIT

    Orbital Energies [Eh]
    ---------------------

    Doubly Occupied:

       1A    -20.537574     2A    -15.610697     3A    -15.565831
       4A    -11.368020     5A    -11.315619     6A    -11.301719
       7A    -11.271396     8A    -11.268199     9A    -11.265597
      10A    -11.265247    11A    -11.251720    12A    -11.250911
      13A    -11.233320    14A     -1.393161    15A     -1.286796
      16A     -1.236711    17A     -1.160607    18A     -1.062025
      19A     -1.041547    20A     -1.002842    21A     -0.953293
      22A     -0.890812    23A     -0.855830    24A     -0.801260
      25A     -0.762551    26A     -0.738584    27A     -0.692602
      28A     -0.680125    29A     -0.660640    30A     -0.636832
      31A     -0.625232    32A     -0.619289    33A     -0.610601
      34A     -0.586350    35A     -0.570970    36A     -0.558399
      37A     -0.544512    38A     -0.537754    39A     -0.525027
      40A     -0.504886    41A     -0.461592    42A     -0.450634
      43A     -0.416411    44A     -0.407140    45A     -0.354987
      46A     -0.323970

  @DF-RHF Final Energy:  -568.45285567843825

   => Energetics <=

    Nuclear Repulsion Energy =            760.0767767248196378
    One-Electron Energy =               -2280.1396236293421680
    Two-Electron Energy =                 951.6099912260842757
    Total Energy =                       -568.4528556784382545
  Basis Set: (AUG-CC-PVTZ AUX)
    Blend: AUG-CC-PVTZ-RI
    Molecular point group: c1

    Geometry (in Angstrom), charge = 0, multiplicity = 1:

       Center              X                  Y                   Z               Mass
    ------------   -----------------  -----------------  -----------------  -----------------
         O            3.109785293790    -1.414873590764    -0.212197975193    15.994914619570
         N            0.868328293790    -1.216799590764    -0.587242975193    14.003074004430
         N            1.516566293790     1.499496409236     0.337283024807    14.003074004430
         C           -0.734077706210     0.541148409236     0.035849024807    12.000000000000
         C           -0.407487206210    -0.907393090764    -0.253323075193    12.000000000000
         C            0.296535293790     1.599072409236    -0.081743975193    12.000000000000
         C            1.882149293790     0.272518409236     1.041926024807    12.000000000000
         C           -2.066255706210     0.876204409236     0.339309024807    12.000000000000
         C           -1.450569706210    -1.774875590764    -0.228975975193    12.000000000000
         C            2.049215293790    -0.857863590764     0.046733024807    12.000000000000
         C           -0.096419706210     2.881928409236    -0.766894975193    12.000000000000
         C           -3.069920706210    -0.085763590764     0.364452024807    12.000000000000
         C           -2.761045706210    -1.416665590764     0.063765024807    12.000000000000
         H            0.959499293790    -2.055456590764    -1.155510975193     1.007825032230
         H            1.127126293790    -0.012031590764     1.791075024807     1.007825032230
         H            2.844183293790     0.418315409236     1.534375024807     1.007825032230
         H           -2.313372706210     1.911441409236     0.559516024807     1.007825032230
         H           -1.198874706210    -2.812169590764    -0.442559975193     1.007825032230
         H           -0.832519706210     3.438306409236    -0.176942975193     1.007825032230
         H           -0.541714706210     2.682356409236    -1.746400975193     1.007825032230
         H            0.795249293790     3.499960409236    -0.883380975193     1.007825032230
         H           -4.089751706210     0.198114409236     0.610375024807     1.007825032230
         H           -3.538787706210    -2.176255590764     0.069346024807     1.007825032230

  Basis Set: AUG-CC-PVTZ
    Blend: AUG-CC-PVTZ
  Basis Set: (AUG-CC-PVTZ AUX)
    Blend: AUG-CC-PVTZ-JKFIT
	 Reference Energy          =    -568.4528556784382545 [Eh]
	 Singles Energy            =      -0.0000000000000000 [Eh]
	 Same-Spin Energy          =      -0.6151738483515077 [Eh]
	 Opposite-Spin Energy      =      -1.8883031205388492 [Eh]
	 Correlation Energy        =      -2.5034769688903569 [Eh]
	 Total Energy              =    -570.9563326473286224 [Eh]

	 ================> DF-SCS-MP2 Energies <==================
	-----------------------------------------------------------
	 SCS Same-Spin Scale       =       0.3333333333333333 [-]
	 SCS Opposite-Spin Scale   =       1.2000000000000000 [-]
	 SCS Same-Spin Energy      =      -0.2050579494505025 [Eh]
	 SCS Opposite-Spin Energy  =      -2.2659637446466188 [Eh]
	 SCS Correlation Energy    =      -2.4710216940971215 [Eh]
	 SCS Total Energy          =    -570.9238773725353440 [Eh]
	-----------------------------------------------------------

  Dipole Moment: [D]
     X:    -4.8395      Y:    -0.3262      Z:     0.2034     Total:     4.8547

*** Psi4 exiting successfully. Buy a developer a beer!
