                               Psi4 1.4a3.dev225

  ==> Input File <==

--------------------------------------------------------------------------
#psi4
#
memory 32 gb

molecule  {
0 1
  O        3.1477550    -1.4485350    -0.2143050
  N        0.9062980    -1.2504610    -0.5893500
  N        1.5545360     1.4658350     0.3351760
  C       -0.6961080     0.5074870     0.0337420
  C       -0.4373001    -0.8308763    -0.2237452
  C        0.3345050     1.5654110    -0.0838510
  C        1.9201190     0.2388570     1.0398190
  C       -2.0282860     0.8425430     0.3372020
  C       -1.4126000    -1.8085370    -0.2310830
  C        2.0871850    -0.8915250     0.0446260
  C       -0.0584500     2.8482670    -0.7690020
  C       -3.0319510    -0.1194250     0.3623450
  C       -2.7230760    -1.4503270     0.0616580
  H        0.9974690    -2.0891180    -1.1576180
  H        1.1650960    -0.0456930     1.7889680
  H        2.8821530     0.3846540     1.5322680
  H       -2.2754030     1.8777800     0.5574090
  H       -1.1609050    -2.8458310    -0.4446670
  H       -0.7945500     3.4046450    -0.1790500
  H       -0.5037450     2.6486950    -1.7485080
  H        0.8332190     3.4662990    -0.8854880
  H       -4.0517820     0.1644530     0.6082680
  H       -3.5008180    -2.2099170     0.0672390
units angstrom
no_reorient  #important for SAPT in psi4, default
symmetry c1  #important for SAPT in psi4, default
}

set PROPERTIES_ORIGIN ["COM"]
properties('MP2/aug-cc-pvtz', properties = ['dipole'])
--------------------------------------------------------------------------

    Molecular point group: c1
  Charge       = 0
  Multiplicity = 1
  Basis Set: AUG-CC-PVTZ
    Blend: AUG-CC-PVTZ
  Basis Set: (AUG-CC-PVTZ AUX)
    Blend: AUG-CC-PVTZ-JKFIT

    Orbital Energies [Eh]
    ---------------------

    Doubly Occupied:

       1A    -20.528462     2A    -15.602369     3A    -15.567984
       4A    -11.359082     5A    -11.312188     6A    -11.303647
       7A    -11.267712     8A    -11.266615     9A    -11.265983
      10A    -11.265572    11A    -11.258043    12A    -11.255551
      13A    -11.235091    14A     -1.383027    15A     -1.268167
      16A     -1.227893    17A     -1.168663    18A     -1.068003
      19A     -1.037936    20A     -1.013818    21A     -0.950691
      22A     -0.885356    23A     -0.856279    24A     -0.792149
      25A     -0.770755    26A     -0.722424    27A     -0.688826
      28A     -0.675983    29A     -0.657335    30A     -0.652158
      31A     -0.628062    32A     -0.617588    33A     -0.600299
      34A     -0.586856    35A     -0.563677    36A     -0.559227
      37A     -0.544845    38A     -0.537876    39A     -0.529920
      40A     -0.519786    41A     -0.454935    42A     -0.439064
      43A     -0.418679    44A     -0.404613    45A     -0.356417
      46A     -0.338573

  @DF-RHF Final Energy:  -568.46323958305743

   => Energetics <=

    Nuclear Repulsion Energy =            760.7590538163177598
    One-Electron Energy =               -2281.6282278050493915
    Two-Electron Energy =                 952.4059344056743157
    Total Energy =                       -568.4632395830574296
  Basis Set: (AUG-CC-PVTZ AUX)
    Blend: AUG-CC-PVTZ-RI
    Molecular point group: c1

    Geometry (in Angstrom), charge = 0, multiplicity = 1:

       Center              X                  Y                   Z               Mass
    ------------   -----------------  -----------------  -----------------  -----------------
         O            3.114457826018    -1.422468625335    -0.214382145119    15.994914619570
         N            0.873000826018    -1.224394625335    -0.589427145119    14.003074004430
         N            1.521238826018     1.491901374665     0.335098854881    14.003074004430
         C           -0.729405173982     0.533553374665     0.033664854881    12.000000000000
         C           -0.470597273982    -0.804809925335    -0.223822345119    12.000000000000
         C            0.301207826018     1.591477374665    -0.083928145119    12.000000000000
         C            1.886821826018     0.264923374665     1.039741854881    12.000000000000
         C           -2.061583173982     0.868609374665     0.337124854881    12.000000000000
         C           -1.445897173982    -1.782470625335    -0.231160145119    12.000000000000
         C            2.053887826018    -0.865458625335     0.044548854881    12.000000000000
         C           -0.091747173982     2.874333374665    -0.769079145119    12.000000000000
         C           -3.065248173982    -0.093358625335     0.362267854881    12.000000000000
         C           -2.756373173982    -1.424260625335     0.061580854881    12.000000000000
         H            0.964171826018    -2.063051625335    -1.157695145119     1.007825032230
         H            1.131798826018    -0.019626625335     1.788890854881     1.007825032230
         H            2.848855826018     0.410720374665     1.532190854881     1.007825032230
         H           -2.308700173982     1.903846374665     0.557331854881     1.007825032230
         H           -1.194202173982    -2.819764625335    -0.444744145119     1.007825032230
         H           -0.827847173982     3.430711374665    -0.179127145119     1.007825032230
         H           -0.537042173982     2.674761374665    -1.748585145119     1.007825032230
         H            0.799921826018     3.492365374665    -0.885565145119     1.007825032230
         H           -4.085079173982     0.190519374665     0.608190854881     1.007825032230
         H           -3.534115173982    -2.183850625335     0.067161854881     1.007825032230

  Basis Set: AUG-CC-PVTZ
    Blend: AUG-CC-PVTZ
  Basis Set: (AUG-CC-PVTZ AUX)
    Blend: AUG-CC-PVTZ-JKFIT
	 Reference Energy          =    -568.4632395830574296 [Eh]
	 Singles Energy            =      -0.0000000000000000 [Eh]
	 Same-Spin Energy          =      -0.6140609511059396 [Eh]
	 Opposite-Spin Energy      =      -1.8869673874232329 [Eh]
	 Correlation Energy        =      -2.5010283385291725 [Eh]
	 Total Energy              =    -570.9642679215866110 [Eh]

	 ================> DF-SCS-MP2 Energies <==================
	-----------------------------------------------------------
	 SCS Same-Spin Scale       =       0.3333333333333333 [-]
	 SCS Opposite-Spin Scale   =       1.2000000000000000 [-]
	 SCS Same-Spin Energy      =      -0.2046869837019799 [Eh]
	 SCS Opposite-Spin Energy  =      -2.2643608649078795 [Eh]
	 SCS Correlation Energy    =      -2.4690478486098595 [Eh]
	 SCS Total Energy          =    -570.9322874316673051 [Eh]
	-----------------------------------------------------------

  Dipole Moment: [D]
     X:    -5.3557      Y:    -0.1716      Z:     0.2707     Total:     5.3653

*** Psi4 exiting successfully. Buy a developer a beer!
