                               Psi4 1.4a3.dev225

  ==> Input File <==

--------------------------------------------------------------------------
#psi4
#
memory 32 gb

molecule  {
0 1
  O        3.1477550    -1.4485350    -0.2143050
  N        0.9062980    -1.2504610    -0.5893500
  N        1.5545360     1.4658350     0.3351760
  C       -0.6961080     0.5074870     0.0337420
  C       -0.3911060    -0.8453020    -0.2363150
  C        0.3345050     1.5654110    -0.0838510
  C        1.9201190     0.2388570     1.0398190
  C       -2.0282860     0.8425430     0.3372020
  C       -1.4126000    -1.8085370    -0.2310830
  C        2.0871850    -0.8915250     0.0446260
  C       -0.0584500     2.8482670    -0.7690020
  C       -3.0319510    -0.1194250     0.3623450
  C       -2.7230760    -1.4503270     0.0616580
  H        0.9992617    -2.1056084    -1.1687918
  H        1.1650960    -0.0456930     1.7889680
  H        2.8821530     0.3846540     1.5322680
  H       -2.2754030     1.8777800     0.5574090
  H       -1.1609050    -2.8458310    -0.4446670
  H       -0.7945500     3.4046450    -0.1790500
  H       -0.5037450     2.6486950    -1.7485080
  H        0.8332190     3.4662990    -0.8854880
  H       -4.0517820     0.1644530     0.6082680
  H       -3.5008180    -2.2099170     0.0672390
units angstrom
no_reorient  #important for SAPT in psi4, default
symmetry c1  #important for SAPT in psi4, default
}

set PROPERTIES_ORIGIN ["COM"]
properties('MP2/aug-cc-pvtz', properties = ['dipole'])
--------------------------------------------------------------------------

    Molecular point group: c1
  Charge       = 0
  Multiplicity = 1
  Basis Set: AUG-CC-PVTZ
    Blend: AUG-CC-PVTZ
  Basis Set: (AUG-CC-PVTZ AUX)
    Blend: AUG-CC-PVTZ-JKFIT

    Orbital Energies [Eh]
    ---------------------

    Doubly Occupied:

       1A    -20.532067     2A    -15.608734     3A    -15.566988
       4A    -11.362509     5A    -11.314372     6A    -11.302330
       7A    -11.267043     8A    -11.266771     9A    -11.265584
      10A    -11.265379    11A    -11.258155    12A    -11.253672
      13A    -11.234162    14A     -1.387075    15A     -1.274975
      16A     -1.232114    17A     -1.164185    18A     -1.065483
      19A     -1.035093    20A     -1.010621    21A     -0.951304
      22A     -0.885516    23A     -0.857598    24A     -0.793638
      25A     -0.767369    26A     -0.727176    27A     -0.691355
      28A     -0.677610    29A     -0.657284    30A     -0.647702
      31A     -0.626088    32A     -0.618021    33A     -0.603849
      34A     -0.586376    35A     -0.566548    36A     -0.558753
      37A     -0.543486    38A     -0.538890    39A     -0.527759
      40A     -0.515238    41A     -0.457530    42A     -0.444276
      43A     -0.417520    44A     -0.405317    45A     -0.354893
      46A     -0.332032

  @DF-RHF Final Energy:  -568.46443155663837

   => Energetics <=

    Nuclear Repulsion Energy =            760.6091423576360739
    One-Electron Energy =               -2281.3062666289720255
    Two-Electron Energy =                 952.2326927146975777
    Total Energy =                       -568.4644315566383739
  Basis Set: (AUG-CC-PVTZ AUX)
    Blend: AUG-CC-PVTZ-RI
    Molecular point group: c1

    Geometry (in Angstrom), charge = 0, multiplicity = 1:

       Center              X                  Y                   Z               Mass
    ------------   -----------------  -----------------  -----------------  -----------------
         O            3.111263098750    -1.421378732259    -0.213450967068    15.994914619570
         N            0.869806098750    -1.223304732259    -0.588495967068    14.003074004430
         N            1.518044098750     1.492991267741     0.336030032932    14.003074004430
         C           -0.732599901250     0.534643267741     0.034596032932    12.000000000000
         C           -0.427597901250    -0.818145732259    -0.235460967068    12.000000000000
         C            0.298013098750     1.592567267741    -0.082996967068    12.000000000000
         C            1.883627098750     0.266013267741     1.040673032932    12.000000000000
         C           -2.064777901250     0.869699267741     0.338056032932    12.000000000000
         C           -1.449091901250    -1.781380732259    -0.230228967068    12.000000000000
         C            2.050693098750    -0.864368732259     0.045480032932    12.000000000000
         C           -0.094941901250     2.875423267741    -0.768147967068    12.000000000000
         C           -3.068442901250    -0.092268732259     0.363199032932    12.000000000000
         C           -2.759567901250    -1.423170732259     0.062512032932    12.000000000000
         H            0.962769798750    -2.078452132259    -1.167937767068     1.007825032230
         H            1.128604098750    -0.018536732259     1.789822032932     1.007825032230
         H            2.845661098750     0.411810267741     1.533122032932     1.007825032230
         H           -2.311894901250     1.904936267741     0.558263032932     1.007825032230
         H           -1.197396901250    -2.818674732259    -0.443812967068     1.007825032230
         H           -0.831041901250     3.431801267741    -0.178195967068     1.007825032230
         H           -0.540236901250     2.675851267741    -1.747653967068     1.007825032230
         H            0.796727098750     3.493455267741    -0.884633967068     1.007825032230
         H           -4.088273901250     0.191609267741     0.609122032932     1.007825032230
         H           -3.537309901250    -2.182760732259     0.068093032932     1.007825032230

  Basis Set: AUG-CC-PVTZ
    Blend: AUG-CC-PVTZ
  Basis Set: (AUG-CC-PVTZ AUX)
    Blend: AUG-CC-PVTZ-JKFIT
	 Reference Energy          =    -568.4644315566383739 [Eh]
	 Singles Energy            =      -0.0000000000000000 [Eh]
	 Same-Spin Energy          =      -0.6146481433260582 [Eh]
	 Opposite-Spin Energy      =      -1.8875764999724702 [Eh]
	 Correlation Energy        =      -2.5022246432985282 [Eh]
	 Total Energy              =    -570.9666561999368923 [Eh]

	 ================> DF-SCS-MP2 Energies <==================
	-----------------------------------------------------------
	 SCS Same-Spin Scale       =       0.3333333333333333 [-]
	 SCS Opposite-Spin Scale   =       1.2000000000000000 [-]
	 SCS Same-Spin Energy      =      -0.2048827144420194 [Eh]
	 SCS Opposite-Spin Energy  =      -2.2650917999669642 [Eh]
	 SCS Correlation Energy    =      -2.4699745144089835 [Eh]
	 SCS Total Energy          =    -570.9344060710473059 [Eh]
	-----------------------------------------------------------

  Dipole Moment: [D]
     X:    -5.1108      Y:    -0.2572      Z:     0.2165     Total:     5.1218

*** Psi4 exiting successfully. Buy a developer a beer!
