                               Psi4 1.3.2 release

  ==> Input File <==

--------------------------------------------------------------------------
#psi4
#
memory 32 gb

molecule  {
0 1
  O        3.1477550    -1.4485350    -0.2143050
  N        0.9062980    -1.2504610    -0.5893500
  N        1.5545360     1.4658350     0.3351760
  C       -0.6961080     0.5074870     0.0337420
  C       -0.4589818    -0.7781856    -0.2141287
  C        0.3345050     1.5654110    -0.0838510
  C        1.9201190     0.2388570     1.0398190
  C       -2.0282860     0.8425430     0.3372020
  C       -1.4126000    -1.8085370    -0.2310830
  C        2.0871850    -0.8915250     0.0446260
  C       -0.0584500     2.8482670    -0.7690020
  C       -3.0319510    -0.1194250     0.3623450
  C       -2.7230760    -1.4503270     0.0616580
  H        0.9974690    -2.0891180    -1.1576180
  H        1.1650960    -0.0456930     1.7889680
  H        2.8821530     0.3846540     1.5322680
  H       -2.2754030     1.8777800     0.5574090
  H       -1.1609050    -2.8458310    -0.4446670
  H       -0.7945500     3.4046450    -0.1790500
  H       -0.5037450     2.6486950    -1.7485080
  H        0.8332190     3.4662990    -0.8854880
  H       -4.0517820     0.1644530     0.6082680
  H       -3.5008180    -2.2099170     0.0672390
units angstrom
no_reorient  #important for SAPT in psi4, default
symmetry c1  #important for SAPT in psi4, default
}

set PROPERTIES_ORIGIN ["COM"]
properties('MP2/aug-cc-pvtz', properties = ['dipole'])
--------------------------------------------------------------------------

    Molecular point group: c1
  Charge       = 0
  Multiplicity = 1
  Basis Set: AUG-CC-PVTZ
    Blend: AUG-CC-PVTZ
  Basis Set: (AUG-CC-PVTZ AUX)
    Blend: AUG-CC-PVTZ-JKFIT

    Orbital Energies [Eh]
    ---------------------

    Doubly Occupied:

       1A    -20.525272     2A    -15.599149     3A    -15.568952
       4A    -11.355827     5A    -11.310983     6A    -11.304493
       7A    -11.268422     8A    -11.266773     9A    -11.265294
      10A    -11.262098    11A    -11.261359    12A    -11.256929
      13A    -11.235861    14A     -1.379679    15A     -1.265771
      16A     -1.223040    17A     -1.171594    18A     -1.072016
      19A     -1.035052    20A     -1.018870    21A     -0.949999
      22A     -0.883592    23A     -0.858143    24A     -0.789026
      25A     -0.773235    26A     -0.717863    27A     -0.687547
      28A     -0.674527    29A     -0.660005    30A     -0.654229
      31A     -0.627834    32A     -0.617135    33A     -0.596273
      34A     -0.587111    35A     -0.561247    36A     -0.559839
      37A     -0.545614    38A     -0.536929    39A     -0.531671
      40A     -0.522917    41A     -0.453002    42A     -0.434265
      43A     -0.418975    44A     -0.403345    45A     -0.359320
      46A     -0.342432

  @DF-RHF Final Energy:  -568.45507206455750

   => Energetics <=

    Nuclear Repulsion Energy =            761.1677440583941916
    One-Electron Energy =               -2282.4586139863158678
    Two-Electron Energy =                 952.8357978633641778
    Total Energy =                       -568.4550720645574984
  Basis Set: (AUG-CC-PVTZ AUX)
    Blend: AUG-CC-PVTZ-RI
    Molecular point group: c1

    Geometry (in Angstrom), charge = 0, multiplicity = 1:

       Center              X                  Y                   Z               Mass
    ------------   -----------------  -----------------  -----------------  -----------------
         O            3.115952434399    -1.426100811086    -0.215045049849    15.994914619570
         N            0.874495434399    -1.228026811086    -0.590090049849    14.003074004430
         N            1.522733434399     1.488269188914     0.334435950151    14.003074004430
         C           -0.727910565601     0.529921188914     0.033001950151    12.000000000000
         C           -0.490784365601    -0.755751411086    -0.214868749849    12.000000000000
         C            0.302702434399     1.587845188914    -0.084591049849    12.000000000000
         C            1.888316434399     0.261291188914     1.039078950151    12.000000000000
         C           -2.060088565601     0.864977188914     0.336461950151    12.000000000000
         C           -1.444402565601    -1.786102811086    -0.231823049849    12.000000000000
         C            2.055382434399    -0.869090811086     0.043885950151    12.000000000000
         C           -0.090252565601     2.870701188914    -0.769742049849    12.000000000000
         C           -3.063753565601    -0.096990811086     0.361604950151    12.000000000000
         C           -2.754878565601    -1.427892811086     0.060917950151    12.000000000000
         H            0.965666434399    -2.066683811086    -1.158358049849     1.007825032230
         H            1.133293434399    -0.023258811086     1.788227950151     1.007825032230
         H            2.850350434399     0.407088188914     1.531527950151     1.007825032230
         H           -2.307205565601     1.900214188914     0.556668950151     1.007825032230
         H           -1.192707565601    -2.823396811086    -0.445407049849     1.007825032230
         H           -0.826352565601     3.427079188914    -0.179790049849     1.007825032230
         H           -0.535547565601     2.671129188914    -1.749248049849     1.007825032230
         H            0.801416434399     3.488733188914    -0.886228049849     1.007825032230
         H           -4.083584565601     0.186887188914     0.607527950151     1.007825032230
         H           -3.532620565601    -2.187482811086     0.066498950151     1.007825032230

  Basis Set: AUG-CC-PVTZ
    Blend: AUG-CC-PVTZ
  Basis Set: (AUG-CC-PVTZ AUX)
    Blend: AUG-CC-PVTZ-JKFIT
	 Reference Energy          =    -568.4550720645574984 [Eh]
	 Singles Energy            =      -0.0000000000000000 [Eh]
	 Same-Spin Energy          =      -0.6136919134892342 [Eh]
	 Opposite-Spin Energy      =      -1.8871036902406884 [Eh]
	 Correlation Energy        =      -2.5007956037299226 [Eh]
	 Total Energy              =    -570.9558676682873966 [Eh]

	 ================> DF-SCS-MP2 Energies <==================
	-----------------------------------------------------------
	 SCS Same-Spin Scale       =       0.3333333333333333 [-]
	 SCS Opposite-Spin Scale   =       1.2000000000000000 [-]
	 SCS Same-Spin Energy      =      -0.2045639711630781 [Eh]
	 SCS Opposite-Spin Energy  =      -2.2645244282888259 [Eh]
	 SCS Correlation Energy    =      -2.4690883994519042 [Eh]
	 SCS Total Energy          =    -570.9241604640094465 [Eh]
	-----------------------------------------------------------

  Dipole Moment: [D]
     X:    -5.5324      Y:    -0.1022      Z:     0.2927     Total:     5.5411

*** Psi4 exiting successfully. Buy a developer a beer!
