                               Psi4 1.3.2 release

  ==> Input File <==

--------------------------------------------------------------------------
#psi4
#
memory 32 gb

molecule  {
0 1
  O        3.1477550    -1.4485350    -0.2143050
  N        0.9062980    -1.2504610    -0.5893500
  N        1.5545360     1.4658350     0.3351760
  C       -0.7434513     0.4948208     0.0392184
  C       -0.3911060    -0.8453020    -0.2363150
  C        0.3345050     1.5654110    -0.0838510
  C        1.9201190     0.2388570     1.0398190
  C       -2.0282860     0.8425430     0.3372020
  C       -1.4126000    -1.8085370    -0.2310830
  C        2.0871850    -0.8915250     0.0446260
  C       -0.0584500     2.8482670    -0.7690020
  C       -3.0319510    -0.1194250     0.3623450
  C       -2.7230760    -1.4503270     0.0616580
  H        0.9974690    -2.0891180    -1.1576180
  H        1.1650960    -0.0456930     1.7889680
  H        2.8821530     0.3846540     1.5322680
  H       -2.2754030     1.8777800     0.5574090
  H       -1.1609050    -2.8458310    -0.4446670
  H       -0.7945500     3.4046450    -0.1790500
  H       -0.5037450     2.6486950    -1.7485080
  H        0.8332190     3.4662990    -0.8854880
  H       -4.0517820     0.1644530     0.6082680
  H       -3.5008180    -2.2099170     0.0672390
units angstrom
no_reorient  #important for SAPT in psi4, default
symmetry c1  #important for SAPT in psi4, default
}

set PROPERTIES_ORIGIN ["COM"]
properties('MP2/aug-cc-pvtz', properties = ['dipole'])
--------------------------------------------------------------------------

    Molecular point group: c1
  Charge       = 0
  Multiplicity = 1
  Basis Set: AUG-CC-PVTZ
    Blend: AUG-CC-PVTZ
  Basis Set: (AUG-CC-PVTZ AUX)
    Blend: AUG-CC-PVTZ-JKFIT

    Orbital Energies [Eh]
    ---------------------

    Doubly Occupied:

       1A    -20.532797     2A    -15.608017     3A    -15.567672
       4A    -11.362926     5A    -11.313242     6A    -11.304993
       7A    -11.267452     8A    -11.265296     9A    -11.263592
      10A    -11.260926    11A    -11.257493    12A    -11.253194
      13A    -11.233949    14A     -1.387880    15A     -1.275268
      16A     -1.231926    17A     -1.168782    18A     -1.064187
      19A     -1.037304    20A     -1.011611    21A     -0.951669
      22A     -0.880941    23A     -0.860053    24A     -0.794856
      25A     -0.767619    26A     -0.727443    27A     -0.691882
      28A     -0.677822    29A     -0.656810    30A     -0.647022
      31A     -0.630326    32A     -0.617360    33A     -0.604847
      34A     -0.586072    35A     -0.567528    36A     -0.559210
      37A     -0.542883    38A     -0.539555    39A     -0.529410
      40A     -0.512843    41A     -0.458368    42A     -0.445169
      43A     -0.415022    44A     -0.405527    45A     -0.359643
      46A     -0.330871

  @DF-RHF Final Energy:  -568.46379517281241

   => Energetics <=

    Nuclear Repulsion Energy =            760.6047539641352841
    One-Electron Energy =               -2281.2785790125726635
    Two-Electron Energy =                 952.2100298756248549
    Total Energy =                       -568.4637951728124108
  Basis Set: (AUG-CC-PVTZ AUX)
    Blend: AUG-CC-PVTZ-RI
    Molecular point group: c1

    Geometry (in Angstrom), charge = 0, multiplicity = 1:

       Center              X                  Y                   Z               Mass
    ------------   -----------------  -----------------  -----------------  -----------------
         O            3.114537045081    -1.420601069711    -0.213893168005    15.994914619570
         N            0.873080045081    -1.222527069711    -0.588938168005    14.003074004430
         N            1.521318045081     1.493768930289     0.335587831995    14.003074004430
         C           -0.776669254919     0.522754730289     0.039630231995    12.000000000000
         C           -0.424323954919    -0.817368069711    -0.235903168005    12.000000000000
         C            0.301287045081     1.593344930289    -0.083439168005    12.000000000000
         C            1.886901045081     0.266790930289     1.040230831995    12.000000000000
         C           -2.061503954919     0.870476930289     0.337613831995    12.000000000000
         C           -1.445817954919    -1.780603069711    -0.230671168005    12.000000000000
         C            2.053967045081    -0.863591069711     0.045037831995    12.000000000000
         C           -0.091667954919     2.876200930289    -0.768590168005    12.000000000000
         C           -3.065168954919    -0.091491069711     0.362756831995    12.000000000000
         C           -2.756293954919    -1.422393069711     0.062069831995    12.000000000000
         H            0.964251045081    -2.061184069711    -1.157206168005     1.007825032230
         H            1.131878045081    -0.017759069711     1.789379831995     1.007825032230
         H            2.848935045081     0.412587930289     1.532679831995     1.007825032230
         H           -2.308620954919     1.905713930289     0.557820831995     1.007825032230
         H           -1.194122954919    -2.817897069711    -0.444255168005     1.007825032230
         H           -0.827767954919     3.432578930289    -0.178638168005     1.007825032230
         H           -0.536962954919     2.676628930289    -1.748096168005     1.007825032230
         H            0.800001045081     3.494232930289    -0.885076168005     1.007825032230
         H           -4.084999954919     0.192386930289     0.608679831995     1.007825032230
         H           -3.534035954919    -2.181983069711     0.067650831995     1.007825032230

  Basis Set: AUG-CC-PVTZ
    Blend: AUG-CC-PVTZ
  Basis Set: (AUG-CC-PVTZ AUX)
    Blend: AUG-CC-PVTZ-JKFIT
	 Reference Energy          =    -568.4637951728124108 [Eh]
	 Singles Energy            =      -0.0000000000000000 [Eh]
	 Same-Spin Energy          =      -0.6140391389235325 [Eh]
	 Opposite-Spin Energy      =      -1.8866187378656085 [Eh]
	 Correlation Energy        =      -2.5006578767891412 [Eh]
	 Total Energy              =    -570.9644530496015022 [Eh]

	 ================> DF-SCS-MP2 Energies <==================
	-----------------------------------------------------------
	 SCS Same-Spin Scale       =       0.3333333333333333 [-]
	 SCS Opposite-Spin Scale   =       1.2000000000000000 [-]
	 SCS Same-Spin Energy      =      -0.2046797129745108 [Eh]
	 SCS Opposite-Spin Energy  =      -2.2639424854387302 [Eh]
	 SCS Correlation Energy    =      -2.4686221984132413 [Eh]
	 SCS Total Energy          =    -570.9324173712255970 [Eh]
	-----------------------------------------------------------

  Dipole Moment: [D]
     X:    -5.0617      Y:    -0.2060      Z:     0.2412     Total:     5.0716

*** Psi4 exiting successfully. Buy a developer a beer!
