                               Psi4 1.3.2 release

  ==> Input File <==

--------------------------------------------------------------------------
#psi4
#
memory 32 gb

molecule  {
0 1
  O        3.1270927    -1.4730800    -0.2426018
  N        0.9062980    -1.2504610    -0.5893500
  N        1.5545360     1.4658350     0.3351760
  C       -0.6961080     0.5074870     0.0337420
  C       -0.3911060    -0.8453020    -0.2363150
  C        0.3345050     1.5654110    -0.0838510
  C        1.9201190     0.2388570     1.0398190
  C       -2.0282860     0.8425430     0.3372020
  C       -1.4126000    -1.8085370    -0.2310830
  C        2.0871850    -0.8915250     0.0446260
  C       -0.0584500     2.8482670    -0.7690020
  C       -3.0319510    -0.1194250     0.3623450
  C       -2.7230760    -1.4503270     0.0616580
  H        0.9974690    -2.0891180    -1.1576180
  H        1.1650960    -0.0456930     1.7889680
  H        2.8821530     0.3846540     1.5322680
  H       -2.2754030     1.8777800     0.5574090
  H       -1.1609050    -2.8458310    -0.4446670
  H       -0.7945500     3.4046450    -0.1790500
  H       -0.5037450     2.6486950    -1.7485080
  H        0.8332190     3.4662990    -0.8854880
  H       -4.0517820     0.1644530     0.6082680
  H       -3.5008180    -2.2099170     0.0672390
units angstrom
no_reorient  #important for SAPT in psi4, default
symmetry c1  #important for SAPT in psi4, default
}

set PROPERTIES_ORIGIN ["COM"]
properties('MP2/aug-cc-pvtz', properties = ['dipole'])
--------------------------------------------------------------------------

    Molecular point group: c1
  Charge       = 0
  Multiplicity = 1
  Basis Set: AUG-CC-PVTZ
    Blend: AUG-CC-PVTZ
  Basis Set: (AUG-CC-PVTZ AUX)
    Blend: AUG-CC-PVTZ-JKFIT

    Orbital Energies [Eh]
    ---------------------

    Doubly Occupied:

       1A    -20.531821     2A    -15.605018     3A    -15.567575
       4A    -11.362665     5A    -11.313645     6A    -11.303024
       7A    -11.269072     8A    -11.266612     9A    -11.265344
      10A    -11.265201    11A    -11.257684    12A    -11.253371
      13A    -11.234491    14A     -1.388192    15A     -1.274810
      16A     -1.232764    17A     -1.164039    18A     -1.065773
      19A     -1.034891    20A     -1.011238    21A     -0.952631
      22A     -0.885348    23A     -0.857468    24A     -0.795078
      25A     -0.768095    26A     -0.728371    27A     -0.691525
      28A     -0.678005    29A     -0.657253    30A     -0.648066
      31A     -0.626004    32A     -0.618372    33A     -0.605208
      34A     -0.586635    35A     -0.566859    36A     -0.558863
      37A     -0.543638    38A     -0.539183    39A     -0.527841
      40A     -0.515464    41A     -0.457495    42A     -0.443459
      43A     -0.418271    44A     -0.406400    45A     -0.355013
      46A     -0.331433

  @DF-RHF Final Energy:  -568.46532751790050

   => Energetics <=

    Nuclear Repulsion Energy =            760.8231609583191357
    One-Electron Energy =               -2281.7185590797921577
    Two-Electron Energy =                 952.4300706035726307
    Total Energy =                       -568.4653275179005050
  Basis Set: (AUG-CC-PVTZ AUX)
    Blend: AUG-CC-PVTZ-RI
    Molecular point group: c1

    Geometry (in Angstrom), charge = 0, multiplicity = 1:

       Center              X                  Y                   Z               Mass
    ------------   -----------------  -----------------  -----------------  -----------------
         O            3.092509689856    -1.443763936617    -0.239212464870    15.994914619570
         N            0.871714989856    -1.221144936617    -0.585960664870    14.003074004430
         N            1.519952989856     1.495151063383     0.338565335130    14.003074004430
         C           -0.730691010144     0.536803063383     0.037131335130    12.000000000000
         C           -0.425689010144    -0.815985936617    -0.232925664870    12.000000000000
         C            0.299921989856     1.594727063383    -0.080461664870    12.000000000000
         C            1.885535989856     0.268173063383     1.043208335130    12.000000000000
         C           -2.062869010144     0.871859063383     0.340591335130    12.000000000000
         C           -1.447183010144    -1.779220936617    -0.227693664870    12.000000000000
         C            2.052601989856    -0.862208936617     0.048015335130    12.000000000000
         C           -0.093033010144     2.877583063383    -0.765612664870    12.000000000000
         C           -3.066534010144    -0.090108936617     0.365734335130    12.000000000000
         C           -2.757659010144    -1.421010936617     0.065047335130    12.000000000000
         H            0.962885989856    -2.059801936617    -1.154228664870     1.007825032230
         H            1.130512989856    -0.016376936617     1.792357335130     1.007825032230
         H            2.847569989856     0.413970063383     1.535657335130     1.007825032230
         H           -2.309986010144     1.907096063383     0.560798335130     1.007825032230
         H           -1.195488010144    -2.816514936617    -0.441277664870     1.007825032230
         H           -0.829133010144     3.433961063383    -0.175660664870     1.007825032230
         H           -0.538328010144     2.678011063383    -1.745118664870     1.007825032230
         H            0.798635989856     3.495615063383    -0.882098664870     1.007825032230
         H           -4.086365010144     0.193769063383     0.611657335130     1.007825032230
         H           -3.535401010144    -2.180600936617     0.070628335130     1.007825032230

  Basis Set: AUG-CC-PVTZ
    Blend: AUG-CC-PVTZ
  Basis Set: (AUG-CC-PVTZ AUX)
    Blend: AUG-CC-PVTZ-JKFIT
	 Reference Energy          =    -568.4653275179005050 [Eh]
	 Singles Energy            =      -0.0000000000000000 [Eh]
	 Same-Spin Energy          =      -0.6144594847738016 [Eh]
	 Opposite-Spin Energy      =      -1.8871191381633170 [Eh]
	 Correlation Energy        =      -2.5015786229371186 [Eh]
	 Total Energy              =    -570.9669061408376365 [Eh]

	 ================> DF-SCS-MP2 Energies <==================
	-----------------------------------------------------------
	 SCS Same-Spin Scale       =       0.3333333333333333 [-]
	 SCS Opposite-Spin Scale   =       1.2000000000000000 [-]
	 SCS Same-Spin Energy      =      -0.2048198282579339 [Eh]
	 SCS Opposite-Spin Energy  =      -2.2645429657959801 [Eh]
	 SCS Correlation Energy    =      -2.4693627940539140 [Eh]
	 SCS Total Energy          =    -570.9346903119544550 [Eh]
	-----------------------------------------------------------

  Dipole Moment: [D]
     X:    -5.0607      Y:    -0.1798      Z:     0.2886     Total:     5.0721

*** Psi4 exiting successfully. Buy a developer a beer!
