                               Psi4 1.3.2 release

  ==> Input File <==

--------------------------------------------------------------------------
#psi4
#
memory 32 gb

molecule  {
0 1
  O        3.1477550    -1.4485350    -0.2143050
  N        0.9062980    -1.2504610    -0.5893500
  N        1.5625226     1.5073747     0.3193600
  C       -0.6961080     0.5074870     0.0337420
  C       -0.3911060    -0.8453020    -0.2363150
  C        0.3345050     1.5654110    -0.0838510
  C        1.9201190     0.2388570     1.0398190
  C       -2.0282860     0.8425430     0.3372020
  C       -1.4126000    -1.8085370    -0.2310830
  C        2.0871850    -0.8915250     0.0446260
  C       -0.0584500     2.8482670    -0.7690020
  C       -3.0319510    -0.1194250     0.3623450
  C       -2.7230760    -1.4503270     0.0616580
  H        0.9974690    -2.0891180    -1.1576180
  H        1.1650960    -0.0456930     1.7889680
  H        2.8821530     0.3846540     1.5322680
  H       -2.2754030     1.8777800     0.5574090
  H       -1.1609050    -2.8458310    -0.4446670
  H       -0.7945500     3.4046450    -0.1790500
  H       -0.5037450     2.6486950    -1.7485080
  H        0.8332190     3.4662990    -0.8854880
  H       -4.0517820     0.1644530     0.6082680
  H       -3.5008180    -2.2099170     0.0672390
units angstrom
no_reorient  #important for SAPT in psi4, default
symmetry c1  #important for SAPT in psi4, default
}

set PROPERTIES_ORIGIN ["COM"]
properties('MP2/aug-cc-pvtz', properties = ['dipole'])
--------------------------------------------------------------------------

    Molecular point group: c1
  Charge       = 0
  Multiplicity = 1
  Basis Set: AUG-CC-PVTZ
    Blend: AUG-CC-PVTZ
  Basis Set: (AUG-CC-PVTZ AUX)
    Blend: AUG-CC-PVTZ-JKFIT

    Orbital Energies [Eh]
    ---------------------

    Doubly Occupied:

       1A    -20.532517     2A    -15.607419     3A    -15.571182
       4A    -11.363079     5A    -11.315168     6A    -11.301886
       7A    -11.268565     8A    -11.268020     9A    -11.266856
      10A    -11.266165    11A    -11.258787    12A    -11.254353
      13A    -11.232490    14A     -1.387607    15A     -1.274998
      16A     -1.229534    17A     -1.164824    18A     -1.063276
      19A     -1.035648    20A     -1.010555    21A     -0.951660
      22A     -0.885464    23A     -0.858698    24A     -0.795347
      25A     -0.766439    26A     -0.729155    27A     -0.689187
      28A     -0.676627    29A     -0.657686    30A     -0.647219
      31A     -0.626638    32A     -0.615779    33A     -0.603516
      34A     -0.585859    35A     -0.567215    36A     -0.558619
      37A     -0.542511    38A     -0.536705    39A     -0.527294
      40A     -0.514685    41A     -0.456989    42A     -0.444835
      43A     -0.421265    44A     -0.407710    45A     -0.356146
      46A     -0.332806

  @DF-RHF Final Energy:  -568.46308790695809

   => Energetics <=

    Nuclear Repulsion Energy =            759.8154184071604504
    One-Electron Energy =               -2279.6990421515447451
    Two-Electron Energy =                 951.4205358374262005
    Total Energy =                       -568.4630879069580942
  Basis Set: (AUG-CC-PVTZ AUX)
    Blend: AUG-CC-PVTZ-RI
    Molecular point group: c1

    Geometry (in Angstrom), charge = 0, multiplicity = 1:

       Center              X                  Y                   Z               Mass
    ------------   -----------------  -----------------  -----------------  -----------------
         O            3.110631029258    -1.424815688213    -0.212243406103    15.994914619570
         N            0.869174029258    -1.226741688213    -0.587288406103    14.003074004430
         N            1.525398629258     1.531094011787     0.321421593897    14.003074004430
         C           -0.733231970742     0.531206311787     0.035803593897    12.000000000000
         C           -0.428229970742    -0.821582688213    -0.234253406103    12.000000000000
         C            0.297381029258     1.589130311787    -0.081789406103    12.000000000000
         C            1.882995029258     0.262576311787     1.041880593897    12.000000000000
         C           -2.065409970742     0.866262311787     0.339263593897    12.000000000000
         C           -1.449723970742    -1.784817688213    -0.229021406103    12.000000000000
         C            2.050061029258    -0.867805688213     0.046687593897    12.000000000000
         C           -0.095573970742     2.871986311787    -0.766940406103    12.000000000000
         C           -3.069074970742    -0.095705688213     0.364406593897    12.000000000000
         C           -2.760199970742    -1.426607688213     0.063719593897    12.000000000000
         H            0.960345029258    -2.065398688213    -1.155556406103     1.007825032230
         H            1.127972029258    -0.021973688213     1.791029593897     1.007825032230
         H            2.845029029258     0.408373311787     1.534329593897     1.007825032230
         H           -2.312526970742     1.901499311787     0.559470593897     1.007825032230
         H           -1.198028970742    -2.822111688213    -0.442605406103     1.007825032230
         H           -0.831673970742     3.428364311787    -0.176988406103     1.007825032230
         H           -0.540868970742     2.672414311787    -1.746446406103     1.007825032230
         H            0.796095029258     3.490018311787    -0.883426406103     1.007825032230
         H           -4.088905970742     0.188172311787     0.610329593897     1.007825032230
         H           -3.537941970742    -2.186197688213     0.069300593897     1.007825032230

  Basis Set: AUG-CC-PVTZ
    Blend: AUG-CC-PVTZ
  Basis Set: (AUG-CC-PVTZ AUX)
    Blend: AUG-CC-PVTZ-JKFIT
	 Reference Energy          =    -568.4630879069580942 [Eh]
	 Singles Energy            =      -0.0000000000000000 [Eh]
	 Same-Spin Energy          =      -0.6144425585340121 [Eh]
	 Opposite-Spin Energy      =      -1.8879856930911836 [Eh]
	 Correlation Energy        =      -2.5024282516251954 [Eh]
	 Total Energy              =    -570.9655161585833412 [Eh]

	 ================> DF-SCS-MP2 Energies <==================
	-----------------------------------------------------------
	 SCS Same-Spin Scale       =       0.3333333333333333 [-]
	 SCS Opposite-Spin Scale   =       1.2000000000000000 [-]
	 SCS Same-Spin Energy      =      -0.2048141861780040 [Eh]
	 SCS Opposite-Spin Energy  =      -2.2655828317094202 [Eh]
	 SCS Correlation Energy    =      -2.4703970178874242 [Eh]
	 SCS Total Energy          =    -570.9334849248455157 [Eh]
	-----------------------------------------------------------

  Dipole Moment: [D]
     X:    -5.1546      Y:    -0.3138      Z:     0.2568     Total:     5.1705

*** Psi4 exiting successfully. Buy a developer a beer!
