                               Psi4 1.3.2 release

  ==> Input File <==

--------------------------------------------------------------------------
#psi4
#
memory 32 gb

molecule  {
0 1
  O        3.1477550    -1.4485350    -0.2143050
  N        0.9062980    -1.2504610    -0.5893500
  N        1.5225326     1.3410031     0.3768075
  C       -0.6961080     0.5074870     0.0337420
  C       -0.3911060    -0.8453020    -0.2363150
  C        0.3345050     1.5654110    -0.0838510
  C        1.9201190     0.2388570     1.0398190
  C       -2.0282860     0.8425430     0.3372020
  C       -1.4126000    -1.8085370    -0.2310830
  C        2.0871850    -0.8915250     0.0446260
  C       -0.0584500     2.8482670    -0.7690020
  C       -3.0319510    -0.1194250     0.3623450
  C       -2.7230760    -1.4503270     0.0616580
  H        0.9974690    -2.0891180    -1.1576180
  H        1.1650960    -0.0456930     1.7889680
  H        2.8821530     0.3846540     1.5322680
  H       -2.2754030     1.8777800     0.5574090
  H       -1.1609050    -2.8458310    -0.4446670
  H       -0.7945500     3.4046450    -0.1790500
  H       -0.5037450     2.6486950    -1.7485080
  H        0.8332190     3.4662990    -0.8854880
  H       -4.0517820     0.1644530     0.6082680
  H       -3.5008180    -2.2099170     0.0672390
units angstrom
no_reorient  #important for SAPT in psi4, default
symmetry c1  #important for SAPT in psi4, default
}

set PROPERTIES_ORIGIN ["COM"]
properties('MP2/aug-cc-pvtz', properties = ['dipole'])
--------------------------------------------------------------------------

    Molecular point group: c1
  Charge       = 0
  Multiplicity = 1
  Basis Set: AUG-CC-PVTZ
    Blend: AUG-CC-PVTZ
  Basis Set: (AUG-CC-PVTZ AUX)
    Blend: AUG-CC-PVTZ-JKFIT

    Orbital Energies [Eh]
    ---------------------

    Doubly Occupied:

       1A    -20.531320     2A    -15.605899     3A    -15.555610
       4A    -11.361180     5A    -11.311988     6A    -11.305295
       7A    -11.263527     8A    -11.263149     9A    -11.262033
      10A    -11.261499    11A    -11.256587    12A    -11.251855
      13A    -11.239724    14A     -1.387270    15A     -1.283448
      16A     -1.243954    17A     -1.163757    18A     -1.074399
      19A     -1.033531    20A     -1.011970    21A     -0.952715
      22A     -0.886718    23A     -0.856063    24A     -0.797479
      25A     -0.772666    26A     -0.728692    27A     -0.698252
      28A     -0.682816    29A     -0.656714    30A     -0.650702
      31A     -0.627747    32A     -0.624890    33A     -0.607117
      34A     -0.588786    35A     -0.566125    36A     -0.560643
      37A     -0.557486    38A     -0.539135    39A     -0.527318
      40A     -0.515932    41A     -0.460205    42A     -0.443557
      43A     -0.405663    44A     -0.391932    45A     -0.350805
      46A     -0.330226

  @DF-RHF Final Energy:  -568.45499928791673

   => Energetics <=

    Nuclear Repulsion Energy =            763.7411671988259059
    One-Electron Energy =               -2287.4955736134329527
    Two-Electron Energy =                 955.2994071266903120
    Total Energy =                       -568.4549992879167348
  Basis Set: (AUG-CC-PVTZ AUX)
    Blend: AUG-CC-PVTZ-RI
    Molecular point group: c1

    Geometry (in Angstrom), charge = 0, multiplicity = 1:

       Center              X                  Y                   Z               Mass
    ------------   -----------------  -----------------  -----------------  -----------------
         O            3.113847855657    -1.411432628575    -0.216864527247    15.994914619570
         N            0.872390855657    -1.213358628575    -0.591909527247    14.003074004430
         N            1.488625455657     1.378105471425     0.374247972753    14.003074004430
         C           -0.730015144343     0.544589371425     0.031182472753    12.000000000000
         C           -0.425013144343    -0.808199628575    -0.238874527247    12.000000000000
         C            0.300597855657     1.602513371425    -0.086410527247    12.000000000000
         C            1.886211855657     0.275959371425     1.037259472753    12.000000000000
         C           -2.062193144343     0.879645371425     0.334642472753    12.000000000000
         C           -1.446507144343    -1.771434628575    -0.233642527247    12.000000000000
         C            2.053277855657    -0.854422628575     0.042066472753    12.000000000000
         C           -0.092357144343     2.885369371425    -0.771561527247    12.000000000000
         C           -3.065858144343    -0.082322628575     0.359785472753    12.000000000000
         C           -2.756983144343    -1.413224628575     0.059098472753    12.000000000000
         H            0.963561855657    -2.052015628575    -1.160177527247     1.007825032230
         H            1.131188855657    -0.008590628575     1.786408472753     1.007825032230
         H            2.848245855657     0.421756371425     1.529708472753     1.007825032230
         H           -2.309310144343     1.914882371425     0.554849472753     1.007825032230
         H           -1.194812144343    -2.808728628575    -0.447226527247     1.007825032230
         H           -0.828457144343     3.441747371425    -0.181609527247     1.007825032230
         H           -0.537652144343     2.685797371425    -1.751067527247     1.007825032230
         H            0.799311855657     3.503401371425    -0.888047527247     1.007825032230
         H           -4.085689144343     0.201555371425     0.605708472753     1.007825032230
         H           -3.534725144343    -2.172814628575     0.064679472753     1.007825032230

  Basis Set: AUG-CC-PVTZ
    Blend: AUG-CC-PVTZ
  Basis Set: (AUG-CC-PVTZ AUX)
    Blend: AUG-CC-PVTZ-JKFIT
	 Reference Energy          =    -568.4549992879167348 [Eh]
	 Singles Energy            =      -0.0000000000000000 [Eh]
	 Same-Spin Energy          =      -0.6155648489922337 [Eh]
	 Opposite-Spin Energy      =      -1.8865274080270229 [Eh]
	 Correlation Energy        =      -2.5020922570192567 [Eh]
	 Total Energy              =    -570.9570915449360200 [Eh]

	 ================> DF-SCS-MP2 Energies <==================
	-----------------------------------------------------------
	 SCS Same-Spin Scale       =       0.3333333333333333 [-]
	 SCS Opposite-Spin Scale   =       1.2000000000000000 [-]
	 SCS Same-Spin Energy      =      -0.2051882829974112 [Eh]
	 SCS Opposite-Spin Energy  =      -2.2638328896324276 [Eh]
	 SCS Correlation Energy    =      -2.4690211726298390 [Eh]
	 SCS Total Energy          =    -570.9240204605465578 [Eh]
	-----------------------------------------------------------

  Dipole Moment: [D]
     X:    -4.9611      Y:     0.0264      Z:     0.1125     Total:     4.9625

*** Psi4 exiting successfully. Buy a developer a beer!
