                               Psi4 1.3.2 release

  ==> Input File <==

--------------------------------------------------------------------------
#psi4
#
memory 32 gb

molecule  {
0 1
  O        3.1477550    -1.4485350    -0.2143050
  N        0.9062980    -1.2504610    -0.5893500
  N        1.5545360     1.4658350     0.3351760
  C       -0.6961080     0.5074870     0.0337420
  C       -0.3911060    -0.8453020    -0.2363150
  C        0.3345050     1.5654110    -0.0838510
  C        1.9201190     0.2388570     1.0398190
  C       -2.0282860     0.8425430     0.3372020
  C       -1.4126000    -1.8085370    -0.2310830
  C        2.0871850    -0.8915250     0.0446260
  C       -0.0584500     2.8482670    -0.7690020
  C       -3.0319510    -0.1194250     0.3623450
  C       -2.7230760    -1.4503270     0.0616580
  H        0.9974690    -2.0891180    -1.1576180
  H        1.1388989    -0.0474681     1.7609055
  H        2.8821530     0.3846540     1.5322680
  H       -2.2754030     1.8777800     0.5574090
  H       -1.1609050    -2.8458310    -0.4446670
  H       -0.7945500     3.4046450    -0.1790500
  H       -0.5037450     2.6486950    -1.7485080
  H        0.8332190     3.4662990    -0.8854880
  H       -4.0517820     0.1644530     0.6082680
  H       -3.5008180    -2.2099170     0.0672390
units angstrom
no_reorient  #important for SAPT in psi4, default
symmetry c1  #important for SAPT in psi4, default
}

set PROPERTIES_ORIGIN ["COM"]
properties('MP2/aug-cc-pvtz', properties = ['dipole'])
--------------------------------------------------------------------------

    Molecular point group: c1
  Charge       = 0
  Multiplicity = 1
  Basis Set: AUG-CC-PVTZ
    Blend: AUG-CC-PVTZ
  Basis Set: (AUG-CC-PVTZ AUX)
    Blend: AUG-CC-PVTZ-JKFIT

    Orbital Energies [Eh]
    ---------------------

    Doubly Occupied:

       1A    -20.532164     2A    -15.607110     3A    -15.566899
       4A    -11.362368     5A    -11.314522     6A    -11.302153
       7A    -11.267204     8A    -11.266929     9A    -11.265732
      10A    -11.265589    11A    -11.258377    12A    -11.253880
      13A    -11.234127    14A     -1.387471    15A     -1.276179
      16A     -1.232947    17A     -1.164676    18A     -1.065629
      19A     -1.035350    20A     -1.011322    21A     -0.951614
      22A     -0.885735    23A     -0.858198    24A     -0.795118
      25A     -0.768208    26A     -0.728690    27A     -0.691562
      28A     -0.678036    29A     -0.657635    30A     -0.648070
      31A     -0.626231    32A     -0.618850    33A     -0.604647
      34A     -0.586436    35A     -0.566816    36A     -0.558849
      37A     -0.543378    38A     -0.539894    39A     -0.527961
      40A     -0.516048    41A     -0.457626    42A     -0.444651
      43A     -0.416958    44A     -0.405295    45A     -0.355031
      46A     -0.332382

  @DF-RHF Final Energy:  -568.46533143123816

   => Energetics <=

    Nuclear Repulsion Energy =            760.8565381843179694
    One-Electron Energy =               -2281.7746390529068776
    Two-Electron Energy =                 952.4527694373507529
    Total Energy =                       -568.4653314312381553
  Basis Set: (AUG-CC-PVTZ AUX)
    Blend: AUG-CC-PVTZ-RI
    Molecular point group: c1

    Geometry (in Angstrom), charge = 0, multiplicity = 1:

       Center              X                  Y                   Z               Mass
    ------------   -----------------  -----------------  -----------------  -----------------
         O            3.111425144548    -1.421463925884    -0.213353190633    15.994914619570
         N            0.869968144548    -1.223389925884    -0.588398190633    14.003074004430
         N            1.518206144548     1.492906074116     0.336127809367    14.003074004430
         C           -0.732437855452     0.534558074116     0.034693809367    12.000000000000
         C           -0.427435855452    -0.818230925884    -0.235363190633    12.000000000000
         C            0.298175144548     1.592482074116    -0.082899190633    12.000000000000
         C            1.883789144548     0.265928074116     1.040770809367    12.000000000000
         C           -2.064615855452     0.869614074116     0.338153809367    12.000000000000
         C           -1.448929855452    -1.781465925884    -0.230131190633    12.000000000000
         C            2.050855144548    -0.864453925884     0.045577809367    12.000000000000
         C           -0.094779855452     2.875338074116    -0.768050190633    12.000000000000
         C           -3.068280855452    -0.092353925884     0.363296809367    12.000000000000
         C           -2.759405855452    -1.423255925884     0.062609809367    12.000000000000
         H            0.961139144548    -2.062046925884    -1.156666190633     1.007825032230
         H            1.102569044548    -0.020397025884     1.761857309367     1.007825032230
         H            2.845823144548     0.411725074116     1.533219809367     1.007825032230
         H           -2.311732855452     1.904851074116     0.558360809367     1.007825032230
         H           -1.197234855452    -2.818759925884    -0.443715190633     1.007825032230
         H           -0.830879855452     3.431716074116    -0.178098190633     1.007825032230
         H           -0.540074855452     2.675766074116    -1.747556190633     1.007825032230
         H            0.796889144548     3.493370074116    -0.884536190633     1.007825032230
         H           -4.088111855452     0.191524074116     0.609219809367     1.007825032230
         H           -3.537147855452    -2.182845925884     0.068190809367     1.007825032230

  Basis Set: AUG-CC-PVTZ
    Blend: AUG-CC-PVTZ
  Basis Set: (AUG-CC-PVTZ AUX)
    Blend: AUG-CC-PVTZ-JKFIT
	 Reference Energy          =    -568.4653314312381553 [Eh]
	 Singles Energy            =      -0.0000000000000000 [Eh]
	 Same-Spin Energy          =      -0.6145627192780482 [Eh]
	 Opposite-Spin Energy      =      -1.8872946428474828 [Eh]
	 Correlation Energy        =      -2.5018573621255311 [Eh]
	 Total Energy              =    -570.9671887933636754 [Eh]

	 ================> DF-SCS-MP2 Energies <==================
	-----------------------------------------------------------
	 SCS Same-Spin Scale       =       0.3333333333333333 [-]
	 SCS Opposite-Spin Scale   =       1.2000000000000000 [-]
	 SCS Same-Spin Energy      =      -0.2048542397593494 [Eh]
	 SCS Opposite-Spin Energy  =      -2.2647535714169793 [Eh]
	 SCS Correlation Energy    =      -2.4696078111763287 [Eh]
	 SCS Total Energy          =    -570.9349392424144298 [Eh]
	-----------------------------------------------------------

  Dipole Moment: [D]
     X:    -5.1229      Y:    -0.2476      Z:     0.2145     Total:     5.1333

*** Psi4 exiting successfully. Buy a developer a beer!
