                               Psi4 1.3.2 release

  ==> Input File <==

--------------------------------------------------------------------------
#psi4
#
memory 32 gb

molecule  {
0 1
  O        3.1477550    -1.4485350    -0.2143050
  N        0.9062980    -1.2504610    -0.5893500
  N        1.5545360     1.4658350     0.3351760
  C       -0.6961080     0.5074870     0.0337420
  C       -0.3911060    -0.8453020    -0.2363150
  C        0.3345050     1.5654110    -0.0838510
  C        1.9201190     0.2388570     1.0398190
  C       -2.0282860     0.8425430     0.3372020
  C       -1.4126000    -1.8085370    -0.2310830
  C        2.1722918    -0.8656564     0.0903168
  C       -0.0584500     2.8482670    -0.7690020
  C       -3.0319510    -0.1194250     0.3623450
  C       -2.7230760    -1.4503270     0.0616580
  H        0.9974690    -2.0891180    -1.1576180
  H        1.1650960    -0.0456930     1.7889680
  H        2.8821530     0.3846540     1.5322680
  H       -2.2754030     1.8777800     0.5574090
  H       -1.1609050    -2.8458310    -0.4446670
  H       -0.7945500     3.4046450    -0.1790500
  H       -0.5037450     2.6486950    -1.7485080
  H        0.8332190     3.4662990    -0.8854880
  H       -4.0517820     0.1644530     0.6082680
  H       -3.5008180    -2.2099170     0.0672390
units angstrom
no_reorient  #important for SAPT in psi4, default
symmetry c1  #important for SAPT in psi4, default
}

set PROPERTIES_ORIGIN ["COM"]
properties('MP2/aug-cc-pvtz', properties = ['dipole'])
--------------------------------------------------------------------------

    Molecular point group: c1
  Charge       = 0
  Multiplicity = 1
  Basis Set: AUG-CC-PVTZ
    Blend: AUG-CC-PVTZ
  Basis Set: (AUG-CC-PVTZ AUX)
    Blend: AUG-CC-PVTZ-JKFIT

    Orbital Energies [Eh]
    ---------------------

    Doubly Occupied:

       1A    -20.552036     2A    -15.589856     3A    -15.566800
       4A    -11.368762     5A    -11.307035     6A    -11.302806
       7A    -11.269663     8A    -11.262222     9A    -11.260565
      10A    -11.259041    11A    -11.250512    12A    -11.247305
      13A    -11.233416    14A     -1.426552    15A     -1.265189
      16A     -1.222591    17A     -1.155032    18A     -1.065161
      19A     -1.029414    20A     -1.004903    21A     -0.958908
      22A     -0.876239    23A     -0.847533    24A     -0.782789
      25A     -0.764301    26A     -0.719029    27A     -0.694439
      28A     -0.685410    29A     -0.657608    30A     -0.644335
      31A     -0.631856    32A     -0.616117    33A     -0.610008
      34A     -0.586631    35A     -0.568776    36A     -0.556281
      37A     -0.541152    38A     -0.536397    39A     -0.532104
      40A     -0.511595    41A     -0.462469    42A     -0.445337
      43A     -0.418953    44A     -0.409581    45A     -0.351717
      46A     -0.322435

  @DF-RHF Final Energy:  -568.45708925416238

   => Energetics <=

    Nuclear Repulsion Energy =            760.0276238493323717
    One-Electron Energy =               -2280.2277058332801971
    Two-Electron Energy =                 951.7429927297853283
    Total Energy =                       -568.4570892541623834
  Basis Set: (AUG-CC-PVTZ AUX)
    Blend: AUG-CC-PVTZ-RI
    Molecular point group: c1

    Geometry (in Angstrom), charge = 0, multiplicity = 1:

       Center              X                  Y                   Z               Mass
    ------------   -----------------  -----------------  -----------------  -----------------
         O            3.105406717226    -1.423257431298    -0.216665311299    15.994914619570
         N            0.863949717226    -1.225183431298    -0.591710311299    14.003074004430
         N            1.512187717226     1.491112568702     0.332815688701    14.003074004430
         C           -0.738456282774     0.532764568702     0.031381688701    12.000000000000
         C           -0.433454282774    -0.820024431298    -0.238675311299    12.000000000000
         C            0.292156717226     1.590688568702    -0.086211311299    12.000000000000
         C            1.877770717226     0.264134568702     1.037458688701    12.000000000000
         C           -2.070634282774     0.867820568702     0.334841688701    12.000000000000
         C           -1.454948282774    -1.783259431298    -0.233443311299    12.000000000000
         C            2.129943517226    -0.840378831298     0.087956488701    12.000000000000
         C           -0.100798282774     2.873544568702    -0.771362311299    12.000000000000
         C           -3.074299282774    -0.094147431298     0.359984688701    12.000000000000
         C           -2.765424282774    -1.425049431298     0.059297688701    12.000000000000
         H            0.955120717226    -2.063840431298    -1.159978311299     1.007825032230
         H            1.122747717226    -0.020415431298     1.786607688701     1.007825032230
         H            2.839804717226     0.409931568702     1.529907688701     1.007825032230
         H           -2.317751282774     1.903057568702     0.555048688701     1.007825032230
         H           -1.203253282774    -2.820553431298    -0.447027311299     1.007825032230
         H           -0.836898282774     3.429922568702    -0.181410311299     1.007825032230
         H           -0.546093282774     2.673972568702    -1.750868311299     1.007825032230
         H            0.790870717226     3.491576568702    -0.887848311299     1.007825032230
         H           -4.094130282774     0.189730568702     0.605907688701     1.007825032230
         H           -3.543166282774    -2.184639431298     0.064878688701     1.007825032230

  Basis Set: AUG-CC-PVTZ
    Blend: AUG-CC-PVTZ
  Basis Set: (AUG-CC-PVTZ AUX)
    Blend: AUG-CC-PVTZ-JKFIT
	 Reference Energy          =    -568.4570892541623834 [Eh]
	 Singles Energy            =      -0.0000000000000000 [Eh]
	 Same-Spin Energy          =      -0.6141413825811375 [Eh]
	 Opposite-Spin Energy      =      -1.8863722833348748 [Eh]
	 Correlation Energy        =      -2.5005136659160123 [Eh]
	 Total Energy              =    -570.9576029200784433 [Eh]

	 ================> DF-SCS-MP2 Energies <==================
	-----------------------------------------------------------
	 SCS Same-Spin Scale       =       0.3333333333333333 [-]
	 SCS Opposite-Spin Scale   =       1.2000000000000000 [-]
	 SCS Same-Spin Energy      =      -0.2047137941937125 [Eh]
	 SCS Opposite-Spin Energy  =      -2.2636467400018496 [Eh]
	 SCS Correlation Energy    =      -2.4683605341955621 [Eh]
	 SCS Total Energy          =    -570.9254497883579234 [Eh]
	-----------------------------------------------------------

  Dipole Moment: [D]
     X:    -4.1172      Y:    -0.2643      Z:     0.4096     Total:     4.1459

*** Psi4 exiting successfully. Buy a developer a beer!
