                               Psi4 1.3.2 release

  ==> Input File <==

--------------------------------------------------------------------------
#psi4
#
memory 32 gb

molecule  {
0 1
  O        3.1477550    -1.4485350    -0.2143050
  N        0.9062980    -1.2504610    -0.5893500
  N        1.5545360     1.4658350     0.3351760
  C       -0.6961080     0.5074870     0.0337420
  C       -0.3911060    -0.8453020    -0.2363150
  C        0.3345050     1.5654110    -0.0838510
  C        1.9201190     0.2388570     1.0398190
  C       -2.0282860     0.8425430     0.3372020
  C       -1.4126000    -1.8085370    -0.2310830
  C        2.0871850    -0.8915250     0.0446260
  C       -0.0584500     2.8482670    -0.7690020
  C       -3.0319510    -0.1194250     0.3623450
  C       -2.7230760    -1.4503270     0.0616580
  H        0.9974690    -2.0891180    -1.1576180
  H        1.2490733    -0.0382983     1.8675480
  H        2.8821530     0.3846540     1.5322680
  H       -2.2754030     1.8777800     0.5574090
  H       -1.1609050    -2.8458310    -0.4446670
  H       -0.7945500     3.4046450    -0.1790500
  H       -0.5037450     2.6486950    -1.7485080
  H        0.8332190     3.4662990    -0.8854880
  H       -4.0517820     0.1644530     0.6082680
  H       -3.5008180    -2.2099170     0.0672390
units angstrom
no_reorient  #important for SAPT in psi4, default
symmetry c1  #important for SAPT in psi4, default
}

set PROPERTIES_ORIGIN ["COM"]
properties('MP2/aug-cc-pvtz', properties = ['dipole'])
--------------------------------------------------------------------------

    Molecular point group: c1
  Charge       = 0
  Multiplicity = 1
  Basis Set: AUG-CC-PVTZ
    Blend: AUG-CC-PVTZ
  Basis Set: (AUG-CC-PVTZ AUX)
    Blend: AUG-CC-PVTZ-JKFIT

    Orbital Energies [Eh]
    ---------------------

    Doubly Occupied:

       1A    -20.532483     2A    -15.606890     3A    -15.567541
       4A    -11.363304     5A    -11.314126     6A    -11.303075
       7A    -11.266579     8A    -11.266428     9A    -11.265418
      10A    -11.265095    11A    -11.257959    12A    -11.253449
      13A    -11.234464    14A     -1.387548    15A     -1.275666
      16A     -1.232753    17A     -1.164227    18A     -1.065355
      19A     -1.034910    20A     -1.010928    21A     -0.951972
      22A     -0.885659    23A     -0.857753    24A     -0.796437
      25A     -0.767837    26A     -0.729479    27A     -0.691568
      28A     -0.677024    29A     -0.657064    30A     -0.649149
      31A     -0.626073    32A     -0.616881    33A     -0.604899
      34A     -0.586528    35A     -0.567084    36A     -0.558724
      37A     -0.544132    38A     -0.536049    39A     -0.527442
      40A     -0.513322    41A     -0.457667    42A     -0.444345
      43A     -0.418951    44A     -0.405594    45A     -0.354789
      46A     -0.331828

  @DF-RHF Final Energy:  -568.46437958186516

   => Energetics <=

    Nuclear Repulsion Energy =            760.4153704971130310
    One-Electron Energy =               -2280.9066052837583811
    Two-Electron Energy =                 952.0268552047800767
    Total Energy =                       -568.4643795818651597
  Basis Set: (AUG-CC-PVTZ AUX)
    Blend: AUG-CC-PVTZ-RI
    Molecular point group: c1

    Geometry (in Angstrom), charge = 0, multiplicity = 1:

       Center              X                  Y                   Z               Mass
    ------------   -----------------  -----------------  -----------------  -----------------
         O            3.110787294384    -1.421517014064    -0.213970593006    15.994914619570
         N            0.869330294384    -1.223443014064    -0.589015593006    14.003074004430
         N            1.517568294384     1.492852985936     0.335510406994    14.003074004430
         C           -0.733075705616     0.534504985936     0.034076406994    12.000000000000
         C           -0.428073705616    -0.818284014064    -0.235980593006    12.000000000000
         C            0.297537294384     1.592428985936    -0.083516593006    12.000000000000
         C            1.883151294384     0.265874985936     1.040153406994    12.000000000000
         C           -2.065253705616     0.869560985936     0.337536406994    12.000000000000
         C           -1.449567705616    -1.781519014064    -0.230748593006    12.000000000000
         C            2.050217294384    -0.864507014064     0.044960406994    12.000000000000
         C           -0.095417705616     2.875284985936    -0.768667593006    12.000000000000
         C           -3.068918705616    -0.092407014064     0.362679406994    12.000000000000
         C           -2.760043705616    -1.423309014064     0.061992406994    12.000000000000
         H            0.960501294384    -2.062100014064    -1.157283593006     1.007825032230
         H            1.212105594384    -0.011280314064     1.867882406994     1.007825032230
         H            2.845185294384     0.411671985936     1.532602406994     1.007825032230
         H           -2.312370705616     1.904797985936     0.557743406994     1.007825032230
         H           -1.197872705616    -2.818813014064    -0.444332593006     1.007825032230
         H           -0.831517705616     3.431662985936    -0.178715593006     1.007825032230
         H           -0.540712705616     2.675712985936    -1.748173593006     1.007825032230
         H            0.796251294384     3.493316985936    -0.885153593006     1.007825032230
         H           -4.088749705616     0.191470985936     0.608602406994     1.007825032230
         H           -3.537785705616    -2.182899014064     0.067573406994     1.007825032230

  Basis Set: AUG-CC-PVTZ
    Blend: AUG-CC-PVTZ
  Basis Set: (AUG-CC-PVTZ AUX)
    Blend: AUG-CC-PVTZ-JKFIT
	 Reference Energy          =    -568.4643795818651597 [Eh]
	 Singles Energy            =      -0.0000000000000000 [Eh]
	 Same-Spin Energy          =      -0.6142989792053937 [Eh]
	 Opposite-Spin Energy      =      -1.8870176132675329 [Eh]
	 Correlation Energy        =      -2.5013165924729268 [Eh]
	 Total Energy              =    -570.9656961743380634 [Eh]

	 ================> DF-SCS-MP2 Energies <==================
	-----------------------------------------------------------
	 SCS Same-Spin Scale       =       0.3333333333333333 [-]
	 SCS Opposite-Spin Scale   =       1.2000000000000000 [-]
	 SCS Same-Spin Energy      =      -0.2047663264017979 [Eh]
	 SCS Opposite-Spin Energy  =      -2.2644211359210393 [Eh]
	 SCS Correlation Energy    =      -2.4691874623228371 [Eh]
	 SCS Total Energy          =    -570.9335670441879529 [Eh]
	-----------------------------------------------------------

  Dipole Moment: [D]
     X:    -5.0872      Y:    -0.2253      Z:     0.2654     Total:     5.0991

*** Psi4 exiting successfully. Buy a developer a beer!
