                               Psi4 1.4a3.dev225

  ==> Input File <==

--------------------------------------------------------------------------
#psi4
#
memory 32 gb

molecule  {
0 1
  O        3.1477550    -1.4485350    -0.2143050
  N        0.9062980    -1.2504610    -0.5893500
  N        1.5545360     1.4658350     0.3351760
  C       -0.6961080     0.5074870     0.0337420
  C       -0.3911060    -0.8453020    -0.2363150
  C        0.3345050     1.5654110    -0.0838510
  C        1.9201190     0.2388570     1.0398190
  C       -2.0282860     0.8425430     0.3372020
  C       -1.4126000    -1.8085370    -0.2310830
  C        2.1044918    -0.9006145     0.0404007
  C       -0.0584500     2.8482670    -0.7690020
  C       -3.0319510    -0.1194250     0.3623450
  C       -2.7230760    -1.4503270     0.0616580
  H        0.9974690    -2.0891180    -1.1576180
  H        1.1650960    -0.0456930     1.7889680
  H        2.8821530     0.3846540     1.5322680
  H       -2.2754030     1.8777800     0.5574090
  H       -1.1609050    -2.8458310    -0.4446670
  H       -0.7945500     3.4046450    -0.1790500
  H       -0.5037450     2.6486950    -1.7485080
  H        0.8332190     3.4662990    -0.8854880
  H       -4.0517820     0.1644530     0.6082680
  H       -3.5008180    -2.2099170     0.0672390
units angstrom
no_reorient  #important for SAPT in psi4, default
symmetry c1  #important for SAPT in psi4, default
}

set PROPERTIES_ORIGIN ["COM"]
properties('MP2/aug-cc-pvtz', properties = ['dipole'])
--------------------------------------------------------------------------

    Molecular point group: c1
  Charge       = 0
  Multiplicity = 1
  Basis Set: AUG-CC-PVTZ
    Blend: AUG-CC-PVTZ
  Basis Set: (AUG-CC-PVTZ AUX)
    Blend: AUG-CC-PVTZ-JKFIT

    Orbital Energies [Eh]
    ---------------------

    Doubly Occupied:

       1A    -20.536337     2A    -15.604355     3A    -15.566180
       4A    -11.362208     5A    -11.313511     6A    -11.301486
       7A    -11.266464     8A    -11.265797     9A    -11.264542
      10A    -11.264488    11A    -11.257135    12A    -11.252705
      13A    -11.233560    14A     -1.400315    15A     -1.275252
      16A     -1.231174    17A     -1.163233    18A     -1.064282
      19A     -1.033702    20A     -1.009714    21A     -0.949593
      22A     -0.884095    23A     -0.856897    24A     -0.792901
      25A     -0.766752    26A     -0.727366    27A     -0.691107
      28A     -0.678894    29A     -0.656737    30A     -0.647606
      31A     -0.626720    32A     -0.618737    33A     -0.606312
      34A     -0.586392    35A     -0.568884    36A     -0.558053
      37A     -0.542866    38A     -0.538295    39A     -0.529575
      40A     -0.514479    41A     -0.459997    42A     -0.447119
      43A     -0.416830    44A     -0.404180    45A     -0.353879
      46A     -0.331081

  @DF-RHF Final Energy:  -568.46647415964844

   => Energetics <=

    Nuclear Repulsion Energy =            760.5883773317009400
    One-Electron Energy =               -2281.2661255622820136
    Two-Electron Energy =                 952.2112740709326317
    Total Energy =                       -568.4664741596484419
  Basis Set: (AUG-CC-PVTZ AUX)
    Blend: AUG-CC-PVTZ-RI
    Molecular point group: c1

    Geometry (in Angstrom), charge = 0, multiplicity = 1:

       Center              X                  Y                   Z               Mass
    ------------   -----------------  -----------------  -----------------  -----------------
         O            3.110080448907    -1.420847626290    -0.213224390090    15.994914619570
         N            0.868623448907    -1.222773626290    -0.588269390090    14.003074004430
         N            1.516861448907     1.493522373710     0.336256609910    14.003074004430
         C           -0.733782551093     0.535174373710     0.034822609910    12.000000000000
         C           -0.428780551093    -0.817614626290    -0.235234390090    12.000000000000
         C            0.296830448907     1.593098373710    -0.082770390090    12.000000000000
         C            1.882444448907     0.266544373710     1.040899609910    12.000000000000
         C           -2.065960551093     0.870230373710     0.338282609910    12.000000000000
         C           -1.450274551093    -1.780849626290    -0.230002390090    12.000000000000
         C            2.066817248907    -0.872927126290     0.041481309910    12.000000000000
         C           -0.096124551093     2.875954373710    -0.767921390090    12.000000000000
         C           -3.069625551093    -0.091737626290     0.363425609910    12.000000000000
         C           -2.760750551093    -1.422639626290     0.062738609910    12.000000000000
         H            0.959794448907    -2.061430626290    -1.156537390090     1.007825032230
         H            1.127421448907    -0.018005626290     1.790048609910     1.007825032230
         H            2.844478448907     0.412341373710     1.533348609910     1.007825032230
         H           -2.313077551093     1.905467373710     0.558489609910     1.007825032230
         H           -1.198579551093    -2.818143626290    -0.443586390090     1.007825032230
         H           -0.832224551093     3.432332373710    -0.177969390090     1.007825032230
         H           -0.541419551093     2.676382373710    -1.747427390090     1.007825032230
         H            0.795544448907     3.493986373710    -0.884407390090     1.007825032230
         H           -4.089456551093     0.192140373710     0.609348609910     1.007825032230
         H           -3.538492551093    -2.182229626290     0.068319609910     1.007825032230

  Basis Set: AUG-CC-PVTZ
    Blend: AUG-CC-PVTZ
  Basis Set: (AUG-CC-PVTZ AUX)
    Blend: AUG-CC-PVTZ-JKFIT
	 Reference Energy          =    -568.4664741596484419 [Eh]
	 Singles Energy            =      -0.0000000000000000 [Eh]
	 Same-Spin Energy          =      -0.6140464948754114 [Eh]
	 Opposite-Spin Energy      =      -1.8863410033879602 [Eh]
	 Correlation Energy        =      -2.5003874982633718 [Eh]
	 Total Energy              =    -570.9668616579118634 [Eh]

	 ================> DF-SCS-MP2 Energies <==================
	-----------------------------------------------------------
	 SCS Same-Spin Scale       =       0.3333333333333333 [-]
	 SCS Opposite-Spin Scale   =       1.2000000000000000 [-]
	 SCS Same-Spin Energy      =      -0.2046821649584705 [Eh]
	 SCS Opposite-Spin Energy  =      -2.2636092040655522 [Eh]
	 SCS Correlation Energy    =      -2.4682913690240227 [Eh]
	 SCS Total Energy          =    -570.9347655286724148 [Eh]
	-----------------------------------------------------------

  Dipole Moment: [D]
     X:    -4.9227      Y:    -0.3117      Z:     0.2186     Total:     4.9374

*** Psi4 exiting successfully. Buy a developer a beer!
