                               Psi4 1.3.2 release

  ==> Input File <==

--------------------------------------------------------------------------
#psi4
#
memory 32 gb

molecule  {
0 1
  O        3.1477550    -1.4485350    -0.2143050
  N        0.9062980    -1.2504610    -0.5893500
  N        1.5545360     1.4658350     0.3351760
  C       -0.6961080     0.5074870     0.0337420
  C       -0.3911060    -0.8453020    -0.2363150
  C        0.3165088     1.5832135    -0.0785705
  C        1.9201190     0.2388570     1.0398190
  C       -2.0282860     0.8425430     0.3372020
  C       -1.4126000    -1.8085370    -0.2310830
  C        2.0871850    -0.8915250     0.0446260
  C       -0.0584500     2.8482670    -0.7690020
  C       -3.0319510    -0.1194250     0.3623450
  C       -2.7230760    -1.4503270     0.0616580
  H        0.9974690    -2.0891180    -1.1576180
  H        1.1650960    -0.0456930     1.7889680
  H        2.8821530     0.3846540     1.5322680
  H       -2.2754030     1.8777800     0.5574090
  H       -1.1609050    -2.8458310    -0.4446670
  H       -0.7945500     3.4046450    -0.1790500
  H       -0.5037450     2.6486950    -1.7485080
  H        0.8332190     3.4662990    -0.8854880
  H       -4.0517820     0.1644530     0.6082680
  H       -3.5008180    -2.2099170     0.0672390
units angstrom
no_reorient  #important for SAPT in psi4, default
symmetry c1  #important for SAPT in psi4, default
}

set PROPERTIES_ORIGIN ["COM"]
properties('MP2/aug-cc-pvtz', properties = ['dipole'])
--------------------------------------------------------------------------

    Molecular point group: c1
  Charge       = 0
  Multiplicity = 1
  Basis Set: AUG-CC-PVTZ
    Blend: AUG-CC-PVTZ
  Basis Set: (AUG-CC-PVTZ AUX)
    Blend: AUG-CC-PVTZ-JKFIT

    Orbital Energies [Eh]
    ---------------------

    Doubly Occupied:

       1A    -20.531873     2A    -15.606864     3A    -15.567660
       4A    -11.362170     5A    -11.314984     6A    -11.304057
       7A    -11.266846     8A    -11.266512     9A    -11.265688
      10A    -11.265576    11A    -11.258470    12A    -11.253674
      13A    -11.234632    14A     -1.387080    15A     -1.274644
      16A     -1.228123    17A     -1.164574    18A     -1.066921
      19A     -1.035240    20A     -1.012891    21A     -0.950944
      22A     -0.885668    23A     -0.858106    24A     -0.795010
      25A     -0.768332    26A     -0.729003    27A     -0.690573
      28A     -0.677212    29A     -0.656971    30A     -0.648874
      31A     -0.626305    32A     -0.618613    33A     -0.604045
      34A     -0.588277    35A     -0.566612    36A     -0.560786
      37A     -0.542513    38A     -0.539241    39A     -0.527636
      40A     -0.517278    41A     -0.455495    42A     -0.444327
      43A     -0.416945    44A     -0.403192    45A     -0.354062
      46A     -0.332162

  @DF-RHF Final Energy:  -568.46341016688791

   => Energetics <=

    Nuclear Repulsion Energy =            760.4845194921603024
    One-Electron Energy =               -2281.0425377254318846
    Two-Electron Energy =                 952.0946080663835573
    Total Energy =                       -568.4634101668879111
  Basis Set: (AUG-CC-PVTZ AUX)
    Blend: AUG-CC-PVTZ-RI
    Molecular point group: c1

    Geometry (in Angstrom), charge = 0, multiplicity = 1:

       Center              X                  Y                   Z               Mass
    ------------   -----------------  -----------------  -----------------  -----------------
         O            3.112514029284    -1.422701401989    -0.213879663816    15.994914619570
         N            0.871057029284    -1.224627401989    -0.588924663816    14.003074004430
         N            1.519295029284     1.491668598011     0.335601336184    14.003074004430
         C           -0.731348970716     0.533320598011     0.034167336184    12.000000000000
         C           -0.426346970716    -0.819468401989    -0.235889663816    12.000000000000
         C            0.281267829284     1.609047098011    -0.078145163816    12.000000000000
         C            1.884878029284     0.264690598011     1.040244336184    12.000000000000
         C           -2.063526970716     0.868376598011     0.337627336184    12.000000000000
         C           -1.447840970716    -1.782703401989    -0.230657663816    12.000000000000
         C            2.051944029284    -0.865691401989     0.045051336184    12.000000000000
         C           -0.093690970716     2.874100598011    -0.768576663816    12.000000000000
         C           -3.067191970716    -0.093591401989     0.362770336184    12.000000000000
         C           -2.758316970716    -1.424493401989     0.062083336184    12.000000000000
         H            0.962228029284    -2.063284401989    -1.157192663816     1.007825032230
         H            1.129855029284    -0.019859401989     1.789393336184     1.007825032230
         H            2.846912029284     0.410487598011     1.532693336184     1.007825032230
         H           -2.310643970716     1.903613598011     0.557834336184     1.007825032230
         H           -1.196145970716    -2.819997401989    -0.444241663816     1.007825032230
         H           -0.829790970716     3.430478598011    -0.178624663816     1.007825032230
         H           -0.538985970716     2.674528598011    -1.748082663816     1.007825032230
         H            0.797978029284     3.492132598011    -0.885062663816     1.007825032230
         H           -4.087022970716     0.190286598011     0.608693336184     1.007825032230
         H           -3.536058970716    -2.184083401989     0.067664336184     1.007825032230

  Basis Set: AUG-CC-PVTZ
    Blend: AUG-CC-PVTZ
  Basis Set: (AUG-CC-PVTZ AUX)
    Blend: AUG-CC-PVTZ-JKFIT
	 Reference Energy          =    -568.4634101668879111 [Eh]
	 Singles Energy            =      -0.0000000000000000 [Eh]
	 Same-Spin Energy          =      -0.6149465451423275 [Eh]
	 Opposite-Spin Energy      =      -1.8880408013297121 [Eh]
	 Correlation Energy        =      -2.5029873464720396 [Eh]
	 Total Energy              =    -570.9663975133599934 [Eh]

	 ================> DF-SCS-MP2 Energies <==================
	-----------------------------------------------------------
	 SCS Same-Spin Scale       =       0.3333333333333333 [-]
	 SCS Opposite-Spin Scale   =       1.2000000000000000 [-]
	 SCS Same-Spin Energy      =      -0.2049821817141091 [Eh]
	 SCS Opposite-Spin Energy  =      -2.2656489615956543 [Eh]
	 SCS Correlation Energy    =      -2.4706311433097636 [Eh]
	 SCS Total Energy          =    -570.9340413101976992 [Eh]
	-----------------------------------------------------------

  Dipole Moment: [D]
     X:    -5.1408      Y:    -0.2117      Z:     0.1998     Total:     5.1490

*** Psi4 exiting successfully. Buy a developer a beer!
