                               Psi4 1.3.2 release

  ==> Input File <==

--------------------------------------------------------------------------
#psi4
#
memory 32 gb

molecule  {
0 1
  O        3.1477550    -1.4485350    -0.2143050
  N        0.9062980    -1.2504610    -0.5893500
  N        1.5545360     1.4658350     0.3351760
  C       -0.6732225     0.6022532     0.0454618
  C       -0.3911060    -0.8453020    -0.2363150
  C        0.3345050     1.5654110    -0.0838510
  C        1.9201190     0.2388570     1.0398190
  C       -2.0282860     0.8425430     0.3372020
  C       -1.4126000    -1.8085370    -0.2310830
  C        2.0871850    -0.8915250     0.0446260
  C       -0.0584500     2.8482670    -0.7690020
  C       -3.0319510    -0.1194250     0.3623450
  C       -2.7230760    -1.4503270     0.0616580
  H        0.9974690    -2.0891180    -1.1576180
  H        1.1650960    -0.0456930     1.7889680
  H        2.8821530     0.3846540     1.5322680
  H       -2.2754030     1.8777800     0.5574090
  H       -1.1609050    -2.8458310    -0.4446670
  H       -0.7945500     3.4046450    -0.1790500
  H       -0.5037450     2.6486950    -1.7485080
  H        0.8332190     3.4662990    -0.8854880
  H       -4.0517820     0.1644530     0.6082680
  H       -3.5008180    -2.2099170     0.0672390
units angstrom
no_reorient  #important for SAPT in psi4, default
symmetry c1  #important for SAPT in psi4, default
}

set PROPERTIES_ORIGIN ["COM"]
properties('MP2/aug-cc-pvtz', properties = ['dipole'])
--------------------------------------------------------------------------

    Molecular point group: c1
  Charge       = 0
  Multiplicity = 1
  Basis Set: AUG-CC-PVTZ
    Blend: AUG-CC-PVTZ
  Basis Set: (AUG-CC-PVTZ AUX)
    Blend: AUG-CC-PVTZ-JKFIT

    Orbital Energies [Eh]
    ---------------------

    Doubly Occupied:

       1A    -20.533010     2A    -15.608949     3A    -15.567117
       4A    -11.363293     5A    -11.325124     6A    -11.296663
       7A    -11.269829     8A    -11.268797     9A    -11.268669
      10A    -11.266977    11A    -11.258333    12A    -11.253948
      13A    -11.232542    14A     -1.388180    15A     -1.276082
      16A     -1.235726    17A     -1.161080    18A     -1.073032
      19A     -1.035072    20A     -1.004284    21A     -0.952228
      22A     -0.895526    23A     -0.854417    24A     -0.797261
      25A     -0.769561    26A     -0.732689    27A     -0.692975
      28A     -0.678593    29A     -0.661611    30A     -0.643962
      31A     -0.625188    32A     -0.617274    33A     -0.604861
      34A     -0.586913    35A     -0.566845    36A     -0.559001
      37A     -0.548864    38A     -0.538681    39A     -0.525046
      40A     -0.507327    41A     -0.458166    42A     -0.445301
      43A     -0.419175    44A     -0.409299    45A     -0.354270
      46A     -0.325618

  @DF-RHF Final Energy:  -568.45077734657946

   => Energetics <=

    Nuclear Repulsion Energy =            760.3455636761627829
    One-Electron Energy =               -2280.6779598711773360
    Two-Electron Energy =                 951.8816188484350960
    Total Energy =                       -568.4507773465794571
  Basis Set: (AUG-CC-PVTZ AUX)
    Blend: AUG-CC-PVTZ-RI
    Molecular point group: c1

    Geometry (in Angstrom), charge = 0, multiplicity = 1:

       Center              X                  Y                   Z               Mass
    ------------   -----------------  -----------------  -----------------  -----------------
         O            3.109695886268    -1.428006825042    -0.214323551137    15.994914619570
         N            0.868238886268    -1.229932825042    -0.589368551137    14.003074004430
         N            1.516476886268     1.486363174958     0.335157448863    14.003074004430
         C           -0.711281613732     0.622781374958     0.045443248863    12.000000000000
         C           -0.429165113732    -0.824773825042    -0.236333551137    12.000000000000
         C            0.296445886268     1.585939174958    -0.083869551137    12.000000000000
         C            1.882059886268     0.259385174958     1.039800448863    12.000000000000
         C           -2.066345113732     0.863071174958     0.337183448863    12.000000000000
         C           -1.450659113732    -1.788008825042    -0.231101551137    12.000000000000
         C            2.049125886268    -0.870996825042     0.044607448863    12.000000000000
         C           -0.096509113732     2.868795174958    -0.769020551137    12.000000000000
         C           -3.070010113732    -0.098896825042     0.362326448863    12.000000000000
         C           -2.761135113732    -1.429798825042     0.061639448863    12.000000000000
         H            0.959409886268    -2.068589825042    -1.157636551137     1.007825032230
         H            1.127036886268    -0.025164825042     1.788949448863     1.007825032230
         H            2.844093886268     0.405182174958     1.532249448863     1.007825032230
         H           -2.313462113732     1.898308174958     0.557390448863     1.007825032230
         H           -1.198964113732    -2.825302825042    -0.444685551137     1.007825032230
         H           -0.832609113732     3.425173174958    -0.179068551137     1.007825032230
         H           -0.541804113732     2.669223174958    -1.748526551137     1.007825032230
         H            0.795159886268     3.486827174958    -0.885506551137     1.007825032230
         H           -4.089841113732     0.184981174958     0.608249448863     1.007825032230
         H           -3.538877113732    -2.189388825042     0.067220448863     1.007825032230

  Basis Set: AUG-CC-PVTZ
    Blend: AUG-CC-PVTZ
  Basis Set: (AUG-CC-PVTZ AUX)
    Blend: AUG-CC-PVTZ-JKFIT
	 Reference Energy          =    -568.4507773465794571 [Eh]
	 Singles Energy            =      -0.0000000000000000 [Eh]
	 Same-Spin Energy          =      -0.6162017789342562 [Eh]
	 Opposite-Spin Energy      =      -1.8896335542611697 [Eh]
	 Correlation Energy        =      -2.5058353331954262 [Eh]
	 Total Energy              =    -570.9566126797749348 [Eh]

	 ================> DF-SCS-MP2 Energies <==================
	-----------------------------------------------------------
	 SCS Same-Spin Scale       =       0.3333333333333333 [-]
	 SCS Opposite-Spin Scale   =       1.2000000000000000 [-]
	 SCS Same-Spin Energy      =      -0.2054005929780854 [Eh]
	 SCS Opposite-Spin Energy  =      -2.2675602651134037 [Eh]
	 SCS Correlation Energy    =      -2.4729608580914890 [Eh]
	 SCS Total Energy          =    -570.9237382046709399 [Eh]
	-----------------------------------------------------------

  Dipole Moment: [D]
     X:    -5.1075      Y:    -0.3462      Z:     0.2271     Total:     5.1243

*** Psi4 exiting successfully. Buy a developer a beer!
