                               Psi4 1.3.2 release

  ==> Input File <==

--------------------------------------------------------------------------
#psi4
#
memory 32 gb

molecule  {
0 1
  O        3.1477550    -1.4485350    -0.2143050
  N        0.9062980    -1.2504610    -0.5893500
  N        1.5545360     1.4658350     0.3351760
  C       -0.6961080     0.5074870     0.0337420
  C       -0.3911060    -0.8453020    -0.2363150
  C        0.3345050     1.5654110    -0.0838510
  C        1.9201190     0.2388570     1.0398190
  C       -2.0282860     0.8425430     0.3372020
  C       -1.4126000    -1.8085370    -0.2310830
  C        2.0871850    -0.8915250     0.0446260
  C       -0.0584500     2.8482670    -0.7690020
  C       -3.0319510    -0.1194250     0.3623450
  C       -2.7230760    -1.4503270     0.0616580
  H        0.9885056    -2.0066660    -1.1017491
  H        1.1650960    -0.0456930     1.7889680
  H        2.8821530     0.3846540     1.5322680
  H       -2.2754030     1.8777800     0.5574090
  H       -1.1609050    -2.8458310    -0.4446670
  H       -0.7945500     3.4046450    -0.1790500
  H       -0.5037450     2.6486950    -1.7485080
  H        0.8332190     3.4662990    -0.8854880
  H       -4.0517820     0.1644530     0.6082680
  H       -3.5008180    -2.2099170     0.0672390
units angstrom
no_reorient  #important for SAPT in psi4, default
symmetry c1  #important for SAPT in psi4, default
}

set PROPERTIES_ORIGIN ["COM"]
properties('MP2/aug-cc-pvtz', properties = ['dipole'])
--------------------------------------------------------------------------

    Molecular point group: c1
  Charge       = 0
  Multiplicity = 1
  Basis Set: AUG-CC-PVTZ
    Blend: AUG-CC-PVTZ
  Basis Set: (AUG-CC-PVTZ AUX)
    Blend: AUG-CC-PVTZ-JKFIT

    Orbital Energies [Eh]
    ---------------------

    Doubly Occupied:

       1A    -20.533282     2A    -15.597699     3A    -15.567416
       4A    -11.363117     5A    -11.314644     6A    -11.302734
       7A    -11.267149     8A    -11.267038     9A    -11.265977
      10A    -11.265822    11A    -11.258809    12A    -11.254228
      13A    -11.234477    14A     -1.390032    15A     -1.283183
      16A     -1.236995    17A     -1.166565    18A     -1.065908
      19A     -1.036033    20A     -1.014710    21A     -0.953943
      22A     -0.886791    23A     -0.861206    24A     -0.806958
      25A     -0.771497    26A     -0.735960    27A     -0.692242
      28A     -0.678555    29A     -0.658600    30A     -0.651152
      31A     -0.626643    32A     -0.619890    33A     -0.608030
      34A     -0.586938    35A     -0.568641    36A     -0.559175
      37A     -0.544042    38A     -0.539359    39A     -0.528293
      40A     -0.516489    41A     -0.458222    42A     -0.446124
      43A     -0.417899    44A     -0.405808    45A     -0.355317
      46A     -0.333277

  @DF-RHF Final Energy:  -568.45959018024087

   => Energetics <=

    Nuclear Repulsion Energy =            761.4530686445556285
    One-Electron Energy =               -2282.8315740345510676
    Two-Electron Energy =                 952.9189152097546867
    Total Energy =                       -568.4595901802408662
  Basis Set: (AUG-CC-PVTZ AUX)
    Blend: AUG-CC-PVTZ-RI
    Molecular point group: c1

    Geometry (in Angstrom), charge = 0, multiplicity = 1:

       Center              X                  Y                   Z               Mass
    ------------   -----------------  -----------------  -----------------  -----------------
         O            3.111325370749    -1.421951555220    -0.213839108026    15.994914619570
         N            0.869868370749    -1.223877555220    -0.588884108026    14.003074004430
         N            1.518106370749     1.492418444780     0.335641891974    14.003074004430
         C           -0.732537629251     0.534070444780     0.034207891974    12.000000000000
         C           -0.427535629251    -0.818718555220    -0.235849108026    12.000000000000
         C            0.298075370749     1.591994444780    -0.083385108026    12.000000000000
         C            1.883689370749     0.265440444780     1.040284891974    12.000000000000
         C           -2.064715629251     0.869126444780     0.337667891974    12.000000000000
         C           -1.449029629251    -1.781953555220    -0.230617108026    12.000000000000
         C            2.050755370749    -0.864941555220     0.045091891974    12.000000000000
         C           -0.094879629251     2.874850444780    -0.768536108026    12.000000000000
         C           -3.068380629251    -0.092841555220     0.362810891974    12.000000000000
         C           -2.759505629251    -1.423743555220     0.062123891974    12.000000000000
         H            0.952075970749    -1.980082555220    -1.101283208026     1.007825032230
         H            1.128666370749    -0.019109555220     1.789433891974     1.007825032230
         H            2.845723370749     0.411237444780     1.532733891974     1.007825032230
         H           -2.311832629251     1.904363444780     0.557874891974     1.007825032230
         H           -1.197334629251    -2.819247555220    -0.444201108026     1.007825032230
         H           -0.830979629251     3.431228444780    -0.178584108026     1.007825032230
         H           -0.540174629251     2.675278444780    -1.748042108026     1.007825032230
         H            0.796789370749     3.492882444780    -0.885022108026     1.007825032230
         H           -4.088211629251     0.191036444780     0.608733891974     1.007825032230
         H           -3.537247629251    -2.183333555220     0.067704891974     1.007825032230

  Basis Set: AUG-CC-PVTZ
    Blend: AUG-CC-PVTZ
  Basis Set: (AUG-CC-PVTZ AUX)
    Blend: AUG-CC-PVTZ-JKFIT
	 Reference Energy          =    -568.4595901802408662 [Eh]
	 Singles Energy            =      -0.0000000000000000 [Eh]
	 Same-Spin Energy          =      -0.6136130597780065 [Eh]
	 Opposite-Spin Energy      =      -1.8854706286627854 [Eh]
	 Correlation Energy        =      -2.4990836884407921 [Eh]
	 Total Energy              =    -570.9586738686816716 [Eh]

	 ================> DF-SCS-MP2 Energies <==================
	-----------------------------------------------------------
	 SCS Same-Spin Scale       =       0.3333333333333333 [-]
	 SCS Opposite-Spin Scale   =       1.2000000000000000 [-]
	 SCS Same-Spin Energy      =      -0.2045376865926688 [Eh]
	 SCS Opposite-Spin Energy  =      -2.2625647543953424 [Eh]
	 SCS Correlation Energy    =      -2.4671024409880111 [Eh]
	 SCS Total Energy          =    -570.9266926212288809 [Eh]
	-----------------------------------------------------------

  Dipole Moment: [D]
     X:    -5.1304      Y:    -0.1673      Z:     0.2832     Total:     5.1410

*** Psi4 exiting successfully. Buy a developer a beer!
