                               Psi4 1.3.2 release

  ==> Input File <==

--------------------------------------------------------------------------
#psi4
#
memory 32 gb

molecule  {
0 1
  O        3.1477550    -1.4485350    -0.2143050
  N        0.9062980    -1.2504610    -0.5893500
  N        1.5545360     1.4658350     0.3351760
  C       -0.6961080     0.5074870     0.0337420
  C       -0.2533287    -0.8002991    -0.2656527
  C        0.3345050     1.5654110    -0.0838510
  C        1.9201190     0.2388570     1.0398190
  C       -2.0282860     0.8425430     0.3372020
  C       -1.4126000    -1.8085370    -0.2310830
  C        2.0871850    -0.8915250     0.0446260
  C       -0.0584500     2.8482670    -0.7690020
  C       -3.0319510    -0.1194250     0.3623450
  C       -2.7230760    -1.4503270     0.0616580
  H        0.9974690    -2.0891180    -1.1576180
  H        1.1650960    -0.0456930     1.7889680
  H        2.8821530     0.3846540     1.5322680
  H       -2.2754030     1.8777800     0.5574090
  H       -1.1609050    -2.8458310    -0.4446670
  H       -0.7945500     3.4046450    -0.1790500
  H       -0.5037450     2.6486950    -1.7485080
  H        0.8332190     3.4662990    -0.8854880
  H       -4.0517820     0.1644530     0.6082680
  H       -3.5008180    -2.2099170     0.0672390
units angstrom
no_reorient  #important for SAPT in psi4, default
symmetry c1  #important for SAPT in psi4, default
}

set PROPERTIES_ORIGIN ["COM"]
properties('MP2/aug-cc-pvtz', properties = ['dipole'])
--------------------------------------------------------------------------

    Molecular point group: c1
  Charge       = 0
  Multiplicity = 1
  Basis Set: AUG-CC-PVTZ
    Blend: AUG-CC-PVTZ
  Basis Set: (AUG-CC-PVTZ AUX)
    Blend: AUG-CC-PVTZ-JKFIT

    Orbital Energies [Eh]
    ---------------------

    Doubly Occupied:

       1A    -20.541865     2A    -15.619737     3A    -15.564240
       4A    -11.370257     5A    -11.322037     6A    -11.298628
       7A    -11.269755     8A    -11.264191     9A    -11.263739
      10A    -11.261190    11A    -11.261018    12A    -11.248424
      13A    -11.231777    14A     -1.401204    15A     -1.311222
      16A     -1.239370    17A     -1.153754    18A     -1.063487
      19A     -1.022409    20A     -1.008642    21A     -0.954106
      22A     -0.891196    23A     -0.866226    24A     -0.799114
      25A     -0.771134    26A     -0.741786    27A     -0.697879
      28A     -0.683541    29A     -0.658812    30A     -0.646323
      31A     -0.623287    32A     -0.619191    33A     -0.605738
      34A     -0.586404    35A     -0.574381    36A     -0.556862
      37A     -0.540872    38A     -0.540311    39A     -0.523247
      40A     -0.502692    41A     -0.463697    42A     -0.454493
      43A     -0.412885    44A     -0.406227    45A     -0.353495
      46A     -0.314923

  @DF-RHF Final Energy:  -568.43709902568526

   => Energetics <=

    Nuclear Repulsion Energy =            761.6321184253130241
    One-Electron Energy =               -2283.1268896323754234
    Two-Electron Energy =                 953.0576721813772565
    Total Energy =                       -568.4370990256852565
  Basis Set: (AUG-CC-PVTZ AUX)
    Blend: AUG-CC-PVTZ-RI
    Molecular point group: c1

    Geometry (in Angstrom), charge = 0, multiplicity = 1:

       Center              X                  Y                   Z               Mass
    ------------   -----------------  -----------------  -----------------  -----------------
         O            3.101775923944    -1.424576436963    -0.211493289508    15.994914619570
         N            0.860318923944    -1.226502436963    -0.586538289508    14.003074004430
         N            1.508556923944     1.489793563037     0.337987710492    14.003074004430
         C           -0.742087076056     0.531445563037     0.036553710492    12.000000000000
         C           -0.299307776056    -0.776340536963    -0.262840989508    12.000000000000
         C            0.288525923944     1.589369563037    -0.081039289508    12.000000000000
         C            1.874139923944     0.262815563037     1.042630710492    12.000000000000
         C           -2.074265076056     0.866501563037     0.340013710492    12.000000000000
         C           -1.458579076056    -1.784578436963    -0.228271289508    12.000000000000
         C            2.041205923944    -0.867566436963     0.047437710492    12.000000000000
         C           -0.104429076056     2.872225563037    -0.766190289508    12.000000000000
         C           -3.077930076056    -0.095466436963     0.365156710492    12.000000000000
         C           -2.769055076056    -1.426368436963     0.064469710492    12.000000000000
         H            0.951489923944    -2.065159436963    -1.154806289508     1.007825032230
         H            1.119116923944    -0.021734436963     1.791779710492     1.007825032230
         H            2.836173923944     0.408612563037     1.535079710492     1.007825032230
         H           -2.321382076056     1.901738563037     0.560220710492     1.007825032230
         H           -1.206884076056    -2.821872436963    -0.441855289508     1.007825032230
         H           -0.840529076056     3.428603563037    -0.176238289508     1.007825032230
         H           -0.549724076056     2.672653563037    -1.745696289508     1.007825032230
         H            0.787239923944     3.490257563037    -0.882676289508     1.007825032230
         H           -4.097761076056     0.188411563037     0.611079710492     1.007825032230
         H           -3.546797076056    -2.185958436963     0.070050710492     1.007825032230

  Basis Set: AUG-CC-PVTZ
    Blend: AUG-CC-PVTZ
  Basis Set: (AUG-CC-PVTZ AUX)
    Blend: AUG-CC-PVTZ-JKFIT
	 Reference Energy          =    -568.4370990256852565 [Eh]
	 Singles Energy            =      -0.0000000000000000 [Eh]
	 Same-Spin Energy          =      -0.6160388234877030 [Eh]
	 Opposite-Spin Energy      =      -1.8895480372126920 [Eh]
	 Correlation Energy        =      -2.5055868607003950 [Eh]
	 Total Energy              =    -570.9426858863856751 [Eh]

	 ================> DF-SCS-MP2 Energies <==================
	-----------------------------------------------------------
	 SCS Same-Spin Scale       =       0.3333333333333333 [-]
	 SCS Opposite-Spin Scale   =       1.2000000000000000 [-]
	 SCS Same-Spin Energy      =      -0.2053462744959010 [Eh]
	 SCS Opposite-Spin Energy  =      -2.2674576446552304 [Eh]
	 SCS Correlation Energy    =      -2.4728039191511315 [Eh]
	 SCS Total Energy          =    -570.9099029448364035 [Eh]
	-----------------------------------------------------------

  Dipole Moment: [D]
     X:    -4.4923      Y:    -0.4266      Z:     0.0885     Total:     4.5134

*** Psi4 exiting successfully. Buy a developer a beer!
