                               Psi4 1.3.2 release

  ==> Input File <==

--------------------------------------------------------------------------
#psi4
#
memory 32 gb

molecule  {
0 1
  O        3.1477550    -1.4485350    -0.2143050
  N        0.9062980    -1.2504610    -0.5893500
  N        1.5450630     1.4244166     0.3504814
  C       -0.6961080     0.5074870     0.0337420
  C       -0.3911060    -0.8453020    -0.2363150
  C        0.3345050     1.5654110    -0.0838510
  C        1.9201190     0.2388570     1.0398190
  C       -2.0282860     0.8425430     0.3372020
  C       -1.4126000    -1.8085370    -0.2310830
  C        2.0871850    -0.8915250     0.0446260
  C       -0.0584500     2.8482670    -0.7690020
  C       -3.0319510    -0.1194250     0.3623450
  C       -2.7230760    -1.4503270     0.0616580
  H        0.9974690    -2.0891180    -1.1576180
  H        1.1650960    -0.0456930     1.7889680
  H        2.8821530     0.3846540     1.5322680
  H       -2.2754030     1.8777800     0.5574090
  H       -1.1609050    -2.8458310    -0.4446670
  H       -0.7945500     3.4046450    -0.1790500
  H       -0.5037450     2.6486950    -1.7485080
  H        0.8332190     3.4662990    -0.8854880
  H       -4.0517820     0.1644530     0.6082680
  H       -3.5008180    -2.2099170     0.0672390
units angstrom
no_reorient  #important for SAPT in psi4, default
symmetry c1  #important for SAPT in psi4, default
}

set PROPERTIES_ORIGIN ["COM"]
properties('MP2/aug-cc-pvtz', properties = ['dipole'])
--------------------------------------------------------------------------

    Molecular point group: c1
  Charge       = 0
  Multiplicity = 1
  Basis Set: AUG-CC-PVTZ
    Blend: AUG-CC-PVTZ
  Basis Set: (AUG-CC-PVTZ AUX)
    Blend: AUG-CC-PVTZ-JKFIT

    Orbital Energies [Eh]
    ---------------------

    Doubly Occupied:

       1A    -20.531980     2A    -15.606680     3A    -15.563049
       4A    -11.362123     5A    -11.313633     6A    -11.303141
       7A    -11.265718     8A    -11.265386     9A    -11.264721
      10A    -11.264313    11A    -11.257725    12A    -11.253152
      13A    -11.236005    14A     -1.387400    15A     -1.277624
      16A     -1.236584    17A     -1.164288    18A     -1.068209
      19A     -1.034734    20A     -1.011645    21A     -0.951832
      22A     -0.886013    23A     -0.857429    24A     -0.795774
      25A     -0.769779    26A     -0.728670    27A     -0.693867
      28A     -0.679128    29A     -0.657248    30A     -0.649285
      31A     -0.625740    32A     -0.621235    33A     -0.605666
      34A     -0.587178    35A     -0.566620    36A     -0.559111
      37A     -0.547290    38A     -0.539764    39A     -0.527926
      40A     -0.515878    41A     -0.458439    42A     -0.444283
      43A     -0.413232    44A     -0.402277    45A     -0.353690
      46A     -0.331618

  @DF-RHF Final Energy:  -568.46521970738399

   => Energetics <=

    Nuclear Repulsion Energy =            761.7030434258501828
    One-Electron Energy =               -2283.4623612612167562
    Two-Electron Energy =                 953.2940981279825792
    Total Energy =                       -568.4652197073839943
  Basis Set: (AUG-CC-PVTZ AUX)
    Blend: AUG-CC-PVTZ-RI
    Molecular point group: c1

    Geometry (in Angstrom), charge = 0, multiplicity = 1:

       Center              X                  Y                   Z               Mass
    ------------   -----------------  -----------------  -----------------  -----------------
         O            3.112035492929    -1.418142474757    -0.214746835488    15.994914619570
         N            0.870578492929    -1.220068474757    -0.589791835488    14.003074004430
         N            1.509343492929     1.454809125243     0.350039564512    14.003074004430
         C           -0.731827507071     0.537879525243     0.033300164512    12.000000000000
         C           -0.426825507071    -0.814909474757    -0.236756835488    12.000000000000
         C            0.298785492929     1.595803525243    -0.084292835488    12.000000000000
         C            1.884399492929     0.269249525243     1.039377164512    12.000000000000
         C           -2.064005507071     0.872935525243     0.336760164512    12.000000000000
         C           -1.448319507071    -1.778144474757    -0.231524835488    12.000000000000
         C            2.051465492929    -0.861132474757     0.044184164512    12.000000000000
         C           -0.094169507071     2.878659525243    -0.769443835488    12.000000000000
         C           -3.067670507071    -0.089032474757     0.361903164512    12.000000000000
         C           -2.758795507071    -1.419934474757     0.061216164512    12.000000000000
         H            0.961749492929    -2.058725474757    -1.158059835488     1.007825032230
         H            1.129376492929    -0.015300474757     1.788526164512     1.007825032230
         H            2.846433492929     0.415046525243     1.531826164512     1.007825032230
         H           -2.311122507071     1.908172525243     0.556967164512     1.007825032230
         H           -1.196624507071    -2.815438474757    -0.445108835488     1.007825032230
         H           -0.830269507071     3.435037525243    -0.179491835488     1.007825032230
         H           -0.539464507071     2.679087525243    -1.748949835488     1.007825032230
         H            0.797499492929     3.496691525243    -0.885929835488     1.007825032230
         H           -4.087501507071     0.194845525243     0.607826164512     1.007825032230
         H           -3.536537507071    -2.179524474757     0.066797164512     1.007825032230

  Basis Set: AUG-CC-PVTZ
    Blend: AUG-CC-PVTZ
  Basis Set: (AUG-CC-PVTZ AUX)
    Blend: AUG-CC-PVTZ-JKFIT
	 Reference Energy          =    -568.4652197073839943 [Eh]
	 Singles Energy            =      -0.0000000000000000 [Eh]
	 Same-Spin Energy          =      -0.6146569745970309 [Eh]
	 Opposite-Spin Energy      =      -1.8866673942304653 [Eh]
	 Correlation Energy        =      -2.5013243688274960 [Eh]
	 Total Energy              =    -570.9665440762114486 [Eh]

	 ================> DF-SCS-MP2 Energies <==================
	-----------------------------------------------------------
	 SCS Same-Spin Scale       =       0.3333333333333333 [-]
	 SCS Opposite-Spin Scale   =       1.2000000000000000 [-]
	 SCS Same-Spin Energy      =      -0.2048856581990103 [Eh]
	 SCS Opposite-Spin Energy  =      -2.2640008730765584 [Eh]
	 SCS Correlation Energy    =      -2.4688865312755688 [Eh]
	 SCS Total Energy          =    -570.9341062386595240 [Eh]
	-----------------------------------------------------------

  Dipole Moment: [D]
     X:    -5.0685      Y:    -0.1620      Z:     0.1931     Total:     5.0747

*** Psi4 exiting successfully. Buy a developer a beer!
