                               Psi4 1.3.2 release

  ==> Input File <==

--------------------------------------------------------------------------
#psi4
#
memory 32 gb

molecule  {
0 1
  O        3.1477550    -1.4485350    -0.2143050
  N        0.9062980    -1.2504610    -0.5893500
  N        1.5545360     1.4658350     0.3351760
  C       -0.6961080     0.5074870     0.0337420
  C       -0.4088967    -0.8837406    -0.2609847
  C        0.3345050     1.5654110    -0.0838510
  C        1.9201190     0.2388570     1.0398190
  C       -2.0282860     0.8425430     0.3372020
  C       -1.4126000    -1.8085370    -0.2310830
  C        2.0871850    -0.8915250     0.0446260
  C       -0.0584500     2.8482670    -0.7690020
  C       -3.0319510    -0.1194250     0.3623450
  C       -2.7230760    -1.4503270     0.0616580
  H        0.9974690    -2.0891180    -1.1576180
  H        1.1650960    -0.0456930     1.7889680
  H        2.8821530     0.3846540     1.5322680
  H       -2.2754030     1.8777800     0.5574090
  H       -1.1609050    -2.8458310    -0.4446670
  H       -0.7945500     3.4046450    -0.1790500
  H       -0.5037450     2.6486950    -1.7485080
  H        0.8332190     3.4662990    -0.8854880
  H       -4.0517820     0.1644530     0.6082680
  H       -3.5008180    -2.2099170     0.0672390
units angstrom
no_reorient  #important for SAPT in psi4, default
symmetry c1  #important for SAPT in psi4, default
}

set PROPERTIES_ORIGIN ["COM"]
properties('MP2/aug-cc-pvtz', properties = ['dipole'])
--------------------------------------------------------------------------

    Molecular point group: c1
  Charge       = 0
  Multiplicity = 1
  Basis Set: AUG-CC-PVTZ
    Blend: AUG-CC-PVTZ
  Basis Set: (AUG-CC-PVTZ AUX)
    Blend: AUG-CC-PVTZ-JKFIT

    Orbital Energies [Eh]
    ---------------------

    Doubly Occupied:

       1A    -20.532827     2A    -15.606407     3A    -15.566991
       4A    -11.363721     5A    -11.313783     6A    -11.302683
       7A    -11.269311     8A    -11.267043     9A    -11.266340
      10A    -11.266113    11A    -11.254040    12A    -11.253713
      13A    -11.234219    14A     -1.387746    15A     -1.275103
      16A     -1.233231    17A     -1.164746    18A     -1.064617
      19A     -1.040185    20A     -1.008025    21A     -0.951911
      22A     -0.887951    23A     -0.855288    24A     -0.796954
      25A     -0.766806    26A     -0.729757    27A     -0.690817
      28A     -0.677957    29A     -0.658890    30A     -0.643870
      31A     -0.627346    32A     -0.618559    33A     -0.605301
      34A     -0.586458    35A     -0.567509    36A     -0.558894
      37A     -0.544583    38A     -0.538001    39A     -0.527609
      40A     -0.513395    41A     -0.458006    42A     -0.444993
      43A     -0.417625    44A     -0.406023    45A     -0.355470
      46A     -0.331509

  @DF-RHF Final Energy:  -568.46269090853593

   => Energetics <=

    Nuclear Repulsion Energy =            760.3334110200571558
    One-Electron Energy =               -2280.7275520592870635
    Two-Electron Energy =                 951.9314501306939746
    Total Energy =                       -568.4626909085359330
  Basis Set: (AUG-CC-PVTZ AUX)
    Blend: AUG-CC-PVTZ-RI
    Molecular point group: c1

    Geometry (in Angstrom), charge = 0, multiplicity = 1:

       Center              X                  Y                   Z               Mass
    ------------   -----------------  -----------------  -----------------  -----------------
         O            3.112499863328    -1.418824472625    -0.211815073866    15.994914619570
         N            0.871042863328    -1.220750472625    -0.586860073866    14.003074004430
         N            1.519280863328     1.495545527375     0.337665926134    14.003074004430
         C           -0.731363136672     0.537197527375     0.036231926134    12.000000000000
         C           -0.444151836672    -0.854030072625    -0.258494773866    12.000000000000
         C            0.299249863328     1.595121527375    -0.081361073866    12.000000000000
         C            1.884863863328     0.268567527375     1.042308926134    12.000000000000
         C           -2.063541136672     0.872253527375     0.339691926134    12.000000000000
         C           -1.447855136672    -1.778826472625    -0.228593073866    12.000000000000
         C            2.051929863328    -0.861814472625     0.047115926134    12.000000000000
         C           -0.093705136672     2.877977527375    -0.766512073866    12.000000000000
         C           -3.067206136672    -0.089714472625     0.364834926134    12.000000000000
         C           -2.758331136672    -1.420616472625     0.064147926134    12.000000000000
         H            0.962213863328    -2.059407472625    -1.155128073866     1.007825032230
         H            1.129840863328    -0.015982472625     1.791457926134     1.007825032230
         H            2.846897863328     0.414364527375     1.534757926134     1.007825032230
         H           -2.310658136672     1.907490527375     0.559898926134     1.007825032230
         H           -1.196160136672    -2.816120472625    -0.442177073866     1.007825032230
         H           -0.829805136672     3.434355527375    -0.176560073866     1.007825032230
         H           -0.539000136672     2.678405527375    -1.746018073866     1.007825032230
         H            0.797963863328     3.496009527375    -0.882998073866     1.007825032230
         H           -4.087037136672     0.194163527375     0.610757926134     1.007825032230
         H           -3.536073136672    -2.180206472625     0.069728926134     1.007825032230

  Basis Set: AUG-CC-PVTZ
    Blend: AUG-CC-PVTZ
  Basis Set: (AUG-CC-PVTZ AUX)
    Blend: AUG-CC-PVTZ-JKFIT
	 Reference Energy          =    -568.4626909085359330 [Eh]
	 Singles Energy            =      -0.0000000000000000 [Eh]
	 Same-Spin Energy          =      -0.6145188986153667 [Eh]
	 Opposite-Spin Energy      =      -1.8873526222896349 [Eh]
	 Correlation Energy        =      -2.5018715209050013 [Eh]
	 Total Energy              =    -570.9645624294408890 [Eh]

	 ================> DF-SCS-MP2 Energies <==================
	-----------------------------------------------------------
	 SCS Same-Spin Scale       =       0.3333333333333333 [-]
	 SCS Opposite-Spin Scale   =       1.2000000000000000 [-]
	 SCS Same-Spin Energy      =      -0.2048396328717889 [Eh]
	 SCS Opposite-Spin Energy  =      -2.2648231467475619 [Eh]
	 SCS Correlation Energy    =      -2.4696627796193509 [Eh]
	 SCS Total Energy          =    -570.9323536881553309 [Eh]
	-----------------------------------------------------------

  Dipole Moment: [D]
     X:    -5.1075      Y:    -0.2425      Z:     0.2368     Total:     5.1188

*** Psi4 exiting successfully. Buy a developer a beer!
