                               Psi4 1.3.2 release

  ==> Input File <==

--------------------------------------------------------------------------
#psi4
#
memory 32 gb

molecule  {
0 1
  O        3.1477550    -1.4485350    -0.2143050
  N        0.9062980    -1.2504610    -0.5893500
  N        1.5561613     1.4400128     0.2912155
  C       -0.6961080     0.5074870     0.0337420
  C       -0.3911060    -0.8453020    -0.2363150
  C        0.3345050     1.5654110    -0.0838510
  C        1.9201190     0.2388570     1.0398190
  C       -2.0282860     0.8425430     0.3372020
  C       -1.4126000    -1.8085370    -0.2310830
  C        2.0871850    -0.8915250     0.0446260
  C       -0.0584500     2.8482670    -0.7690020
  C       -3.0319510    -0.1194250     0.3623450
  C       -2.7230760    -1.4503270     0.0616580
  H        0.9974690    -2.0891180    -1.1576180
  H        1.1650960    -0.0456930     1.7889680
  H        2.8821530     0.3846540     1.5322680
  H       -2.2754030     1.8777800     0.5574090
  H       -1.1609050    -2.8458310    -0.4446670
  H       -0.7945500     3.4046450    -0.1790500
  H       -0.5037450     2.6486950    -1.7485080
  H        0.8332190     3.4662990    -0.8854880
  H       -4.0517820     0.1644530     0.6082680
  H       -3.5008180    -2.2099170     0.0672390
units angstrom
no_reorient  #important for SAPT in psi4, default
symmetry c1  #important for SAPT in psi4, default
}

set PROPERTIES_ORIGIN ["COM"]
properties('MP2/aug-cc-pvtz', properties = ['dipole'])
--------------------------------------------------------------------------

    Molecular point group: c1
  Charge       = 0
  Multiplicity = 1
  Basis Set: AUG-CC-PVTZ
    Blend: AUG-CC-PVTZ
  Basis Set: (AUG-CC-PVTZ AUX)
    Blend: AUG-CC-PVTZ-JKFIT

    Orbital Energies [Eh]
    ---------------------

    Doubly Occupied:

       1A    -20.531415     2A    -15.606674     3A    -15.565480
       4A    -11.361854     5A    -11.314132     6A    -11.300763
       7A    -11.267895     8A    -11.266210     9A    -11.265187
      10A    -11.264920    11A    -11.257989    12A    -11.253352
      13A    -11.233969    14A     -1.386966    15A     -1.276788
      16A     -1.235001    17A     -1.164258    18A     -1.065266
      19A     -1.035141    20A     -1.011286    21A     -0.952629
      22A     -0.885016    23A     -0.857662    24A     -0.795173
      25A     -0.767033    26A     -0.728926    27A     -0.691342
      28A     -0.679071    29A     -0.657030    30A     -0.649064
      31A     -0.625864    32A     -0.618712    33A     -0.604012
      34A     -0.586237    35A     -0.566761    36A     -0.558629
      37A     -0.544450    38A     -0.539368    39A     -0.527604
      40A     -0.515931    41A     -0.457392    42A     -0.444212
      43A     -0.419783    44A     -0.402780    45A     -0.354680
      46A     -0.332005

  @DF-RHF Final Energy:  -568.46592450467551

   => Energetics <=

    Nuclear Repulsion Energy =            761.3499881986018636
    One-Electron Energy =               -2282.7799993695384728
    Two-Electron Energy =                 952.9640866662612098
    Total Energy =                       -568.4659245046755132
  Basis Set: (AUG-CC-PVTZ AUX)
    Blend: AUG-CC-PVTZ-RI
    Molecular point group: c1

    Geometry (in Angstrom), charge = 0, multiplicity = 1:

       Center              X                  Y                   Z               Mass
    ------------   -----------------  -----------------  -----------------  -----------------
         O            3.111142737129    -1.419397045097    -0.209979440847    15.994914619570
         N            0.869685737129    -1.221323045097    -0.585024440847    14.003074004430
         N            1.519549037129     1.469150754903     0.295541059153    14.003074004430
         C           -0.732720262871     0.536624954903     0.038067559153    12.000000000000
         C           -0.427718262871    -0.816164045097    -0.231989440847    12.000000000000
         C            0.297892737129     1.594548954903    -0.079525440847    12.000000000000
         C            1.883506737129     0.267994954903     1.044144559153    12.000000000000
         C           -2.064898262871     0.871680954903     0.341527559153    12.000000000000
         C           -1.449212262871    -1.779399045097    -0.226757440847    12.000000000000
         C            2.050572737129    -0.862387045097     0.048951559153    12.000000000000
         C           -0.095062262871     2.877404954903    -0.764676440847    12.000000000000
         C           -3.068563262871    -0.090287045097     0.366670559153    12.000000000000
         C           -2.759688262871    -1.421189045097     0.065983559153    12.000000000000
         H            0.960856737129    -2.059980045097    -1.153292440847     1.007825032230
         H            1.128483737129    -0.016555045097     1.793293559153     1.007825032230
         H            2.845540737129     0.413791954903     1.536593559153     1.007825032230
         H           -2.312015262871     1.906917954903     0.561734559153     1.007825032230
         H           -1.197517262871    -2.816693045097    -0.440341440847     1.007825032230
         H           -0.831162262871     3.433782954903    -0.174724440847     1.007825032230
         H           -0.540357262871     2.677832954903    -1.744182440847     1.007825032230
         H            0.796606737129     3.495436954903    -0.881162440847     1.007825032230
         H           -4.088394262871     0.193590954903     0.612593559153     1.007825032230
         H           -3.537430262871    -2.180779045097     0.071564559153     1.007825032230

  Basis Set: AUG-CC-PVTZ
    Blend: AUG-CC-PVTZ
  Basis Set: (AUG-CC-PVTZ AUX)
    Blend: AUG-CC-PVTZ-JKFIT
	 Reference Energy          =    -568.4659245046755132 [Eh]
	 Singles Energy            =      -0.0000000000000000 [Eh]
	 Same-Spin Energy          =      -0.6143842059981905 [Eh]
	 Opposite-Spin Energy      =      -1.8867293443875977 [Eh]
	 Correlation Energy        =      -2.5011135503857882 [Eh]
	 Total Energy              =    -570.9670380550612663 [Eh]

	 ================> DF-SCS-MP2 Energies <==================
	-----------------------------------------------------------
	 SCS Same-Spin Scale       =       0.3333333333333333 [-]
	 SCS Opposite-Spin Scale   =       1.2000000000000000 [-]
	 SCS Same-Spin Energy      =      -0.2047947353327302 [Eh]
	 SCS Opposite-Spin Energy  =      -2.2640752132651172 [Eh]
	 SCS Correlation Energy    =      -2.4688699485978471 [Eh]
	 SCS Total Energy          =    -570.9347944532734118 [Eh]
	-----------------------------------------------------------

  Dipole Moment: [D]
     X:    -5.1012      Y:    -0.1994      Z:     0.3064     Total:     5.1143

*** Psi4 exiting successfully. Buy a developer a beer!
