                               Psi4 1.3.2 release

  ==> Input File <==

--------------------------------------------------------------------------
#psi4
#
memory 32 gb

molecule  {
0 1
  O        3.1477550    -1.4485350    -0.2143050
  N        0.8894360    -1.2960623    -0.5955809
  N        1.5545360     1.4658350     0.3351760
  C       -0.6961080     0.5074870     0.0337420
  C       -0.3911060    -0.8453020    -0.2363150
  C        0.3345050     1.5654110    -0.0838510
  C        1.9201190     0.2388570     1.0398190
  C       -2.0282860     0.8425430     0.3372020
  C       -1.4126000    -1.8085370    -0.2310830
  C        2.0871850    -0.8915250     0.0446260
  C       -0.0584500     2.8482670    -0.7690020
  C       -3.0319510    -0.1194250     0.3623450
  C       -2.7230760    -1.4503270     0.0616580
  H        0.9974690    -2.0891180    -1.1576180
  H        1.1650960    -0.0456930     1.7889680
  H        2.8821530     0.3846540     1.5322680
  H       -2.2754030     1.8777800     0.5574090
  H       -1.1609050    -2.8458310    -0.4446670
  H       -0.7945500     3.4046450    -0.1790500
  H       -0.5037450     2.6486950    -1.7485080
  H        0.8332190     3.4662990    -0.8854880
  H       -4.0517820     0.1644530     0.6082680
  H       -3.5008180    -2.2099170     0.0672390
units angstrom
no_reorient  #important for SAPT in psi4, default
symmetry c1  #important for SAPT in psi4, default
}

set PROPERTIES_ORIGIN ["COM"]
properties('MP2/aug-cc-pvtz', properties = ['dipole'])
--------------------------------------------------------------------------

    Molecular point group: c1
  Charge       = 0
  Multiplicity = 1
  Basis Set: AUG-CC-PVTZ
    Blend: AUG-CC-PVTZ
  Basis Set: (AUG-CC-PVTZ AUX)
    Blend: AUG-CC-PVTZ-JKFIT

    Orbital Energies [Eh]
    ---------------------

    Doubly Occupied:

       1A    -20.535562     2A    -15.602800     3A    -15.567264
       4A    -11.365967     5A    -11.313492     6A    -11.302917
       7A    -11.269206     8A    -11.266607     9A    -11.265461
      10A    -11.264148    11A    -11.255904    12A    -11.252624
      13A    -11.234370    14A     -1.387776    15A     -1.273965
      16A     -1.233681    17A     -1.162943    18A     -1.065106
      19A     -1.032986    20A     -1.011907    21A     -0.952630
      22A     -0.884024    23A     -0.856185    24A     -0.795628
      25A     -0.769514    26A     -0.730984    27A     -0.690662
      28A     -0.678609    29A     -0.655847    30A     -0.649951
      31A     -0.625588    32A     -0.618975    33A     -0.608312
      34A     -0.586556    35A     -0.565130    36A     -0.558446
      37A     -0.543531    38A     -0.538634    39A     -0.527397
      40A     -0.516023    41A     -0.457956    42A     -0.444898
      43A     -0.417797    44A     -0.406444    45A     -0.354474
      46A     -0.330370

  @DF-RHF Final Energy:  -568.46373680770978

   => Energetics <=

    Nuclear Repulsion Energy =            760.0269412493535128
    One-Electron Energy =               -2280.1228502297626619
    Two-Electron Energy =                 951.6321721726993701
    Total Energy =                       -568.4637368077097790
  Basis Set: (AUG-CC-PVTZ AUX)
    Blend: AUG-CC-PVTZ-RI
    Molecular point group: c1

    Geometry (in Angstrom), charge = 0, multiplicity = 1:

       Center              X                  Y                   Z               Mass
    ------------   -----------------  -----------------  -----------------  -----------------
         O            3.112629869780    -1.417805999060    -0.213014438929    15.994914619570
         N            0.854310869780    -1.265333299060    -0.594290338929    14.003074004430
         N            1.519410869780     1.496564000940     0.336466561071    14.003074004430
         C           -0.731233130220     0.538216000940     0.035032561071    12.000000000000
         C           -0.426231130220    -0.814572999060    -0.235024438929    12.000000000000
         C            0.299379869780     1.596140000940    -0.082560438929    12.000000000000
         C            1.884993869780     0.269586000940     1.041109561071    12.000000000000
         C           -2.063411130220     0.873272000940     0.338492561071    12.000000000000
         C           -1.447725130220    -1.777807999060    -0.229792438929    12.000000000000
         C            2.052059869780    -0.860795999060     0.045916561071    12.000000000000
         C           -0.093575130220     2.878996000940    -0.767711438929    12.000000000000
         C           -3.067076130220    -0.088695999060     0.363635561071    12.000000000000
         C           -2.758201130220    -1.419597999060     0.062948561071    12.000000000000
         H            0.962343869780    -2.058388999060    -1.156327438929     1.007825032230
         H            1.129970869780    -0.014963999060     1.790258561071     1.007825032230
         H            2.847027869780     0.415383000940     1.533558561071     1.007825032230
         H           -2.310528130220     1.908509000940     0.558699561071     1.007825032230
         H           -1.196030130220    -2.815101999060    -0.443376438929     1.007825032230
         H           -0.829675130220     3.435374000940    -0.177759438929     1.007825032230
         H           -0.538870130220     2.679424000940    -1.747217438929     1.007825032230
         H            0.798093869780     3.497028000940    -0.884197438929     1.007825032230
         H           -4.086907130220     0.195182000940     0.609558561071     1.007825032230
         H           -3.535943130220    -2.179187999060     0.068529561071     1.007825032230

  Basis Set: AUG-CC-PVTZ
    Blend: AUG-CC-PVTZ
  Basis Set: (AUG-CC-PVTZ AUX)
    Blend: AUG-CC-PVTZ-JKFIT
	 Reference Energy          =    -568.4637368077097790 [Eh]
	 Singles Energy            =      -0.0000000000000000 [Eh]
	 Same-Spin Energy          =      -0.6140898530362704 [Eh]
	 Opposite-Spin Energy      =      -1.8867920275285743 [Eh]
	 Correlation Energy        =      -2.5008818805648447 [Eh]
	 Total Energy              =    -570.9646186882746406 [Eh]

	 ================> DF-SCS-MP2 Energies <==================
	-----------------------------------------------------------
	 SCS Same-Spin Scale       =       0.3333333333333333 [-]
	 SCS Opposite-Spin Scale   =       1.2000000000000000 [-]
	 SCS Same-Spin Energy      =      -0.2046966176787568 [Eh]
	 SCS Opposite-Spin Energy  =      -2.2641504330342892 [Eh]
	 SCS Correlation Energy    =      -2.4688470507130460 [Eh]
	 SCS Total Energy          =    -570.9325838584228450 [Eh]
	-----------------------------------------------------------

  Dipole Moment: [D]
     X:    -4.9479      Y:    -0.1984      Z:     0.2423     Total:     4.9578

*** Psi4 exiting successfully. Buy a developer a beer!
