                               Psi4 1.4a3.dev225

  ==> Input File <==

--------------------------------------------------------------------------
#psi4
#
memory 32 gb

molecule  {
0 1
  O        3.1477550    -1.4485350    -0.2143050
  N        0.9062980    -1.2504610    -0.5893500
  N        1.5545360     1.4658350     0.3351760
  C       -0.6961080     0.5074870     0.0337420
  C       -0.3911060    -0.8453020    -0.2363150
  C        0.3345050     1.5654110    -0.0838510
  C        1.9201190     0.2388570     1.0398190
  C       -2.0093467     0.8377796     0.3328878
  C       -1.4126000    -1.8085370    -0.2310830
  C        2.0871850    -0.8915250     0.0446260
  C       -0.0584500     2.8482670    -0.7690020
  C       -3.0319510    -0.1194250     0.3623450
  C       -2.7230760    -1.4503270     0.0616580
  H        0.9974690    -2.0891180    -1.1576180
  H        1.1650960    -0.0456930     1.7889680
  H        2.8821530     0.3846540     1.5322680
  H       -2.2754030     1.8777800     0.5574090
  H       -1.1609050    -2.8458310    -0.4446670
  H       -0.7945500     3.4046450    -0.1790500
  H       -0.5037450     2.6486950    -1.7485080
  H        0.8332190     3.4662990    -0.8854880
  H       -4.0517820     0.1644530     0.6082680
  H       -3.5008180    -2.2099170     0.0672390
units angstrom
no_reorient  #important for SAPT in psi4, default
symmetry c1  #important for SAPT in psi4, default
}

set PROPERTIES_ORIGIN ["COM"]
properties('MP2/aug-cc-pvtz', properties = ['dipole'])
--------------------------------------------------------------------------

    Molecular point group: c1
  Charge       = 0
  Multiplicity = 1
  Basis Set: AUG-CC-PVTZ
    Blend: AUG-CC-PVTZ
  Basis Set: (AUG-CC-PVTZ AUX)
    Blend: AUG-CC-PVTZ-JKFIT

    Orbital Energies [Eh]
    ---------------------

    Doubly Occupied:

       1A    -20.532410     2A    -15.607050     3A    -15.567266
       4A    -11.362701     5A    -11.314418     6A    -11.302566
       7A    -11.267244     8A    -11.266485     9A    -11.265042
      10A    -11.264349    11A    -11.257710    12A    -11.254516
      13A    -11.234239    14A     -1.387612    15A     -1.276307
      16A     -1.233076    17A     -1.165448    18A     -1.066904
      19A     -1.034059    20A     -1.011824    21A     -0.951666
      22A     -0.884603    23A     -0.858798    24A     -0.795676
      25A     -0.768799    26A     -0.727984    27A     -0.691760
      28A     -0.677988    29A     -0.657338    30A     -0.648220
      31A     -0.626578    32A     -0.618350    33A     -0.604051
      34A     -0.586575    35A     -0.566942    36A     -0.558203
      37A     -0.544176    38A     -0.539409    39A     -0.528199
      40A     -0.514592    41A     -0.457862    42A     -0.444304
      43A     -0.417707    44A     -0.405882    45A     -0.356675
      46A     -0.330989

  @DF-RHF Final Energy:  -568.46513268849264

   => Energetics <=

    Nuclear Repulsion Energy =            761.0811881779699206
    One-Electron Energy =               -2282.2235396635992402
    Two-Electron Energy =                 952.6772187971365611
    Total Energy =                       -568.4651326884926448
  Basis Set: (AUG-CC-PVTZ AUX)
    Blend: AUG-CC-PVTZ-RI
    Molecular point group: c1

    Geometry (in Angstrom), charge = 0, multiplicity = 1:

       Center              X                  Y                   Z               Mass
    ------------   -----------------  -----------------  -----------------  -----------------
         O            3.109967913996    -1.421145842081    -0.213218261849    15.994914619570
         N            0.868510913996    -1.223071842081    -0.588263261849    14.003074004430
         N            1.516748913996     1.493224157919     0.336262738151    14.003074004430
         C           -0.733895086004     0.534876157919     0.034828738151    12.000000000000
         C           -0.428893086004    -0.817912842081    -0.235228261849    12.000000000000
         C            0.296717913996     1.592800157919    -0.082764261849    12.000000000000
         C            1.882331913996     0.266246157919     1.040905738151    12.000000000000
         C           -2.047133786004     0.865168757919     0.333974538151    12.000000000000
         C           -1.450387086004    -1.781147842081    -0.229996261849    12.000000000000
         C            2.049397913996    -0.864135842081     0.045712738151    12.000000000000
         C           -0.096237086004     2.875656157919    -0.767915261849    12.000000000000
         C           -3.069738086004    -0.092035842081     0.363431738151    12.000000000000
         C           -2.760863086004    -1.422937842081     0.062744738151    12.000000000000
         H            0.959681913996    -2.061728842081    -1.156531261849     1.007825032230
         H            1.127308913996    -0.018303842081     1.790054738151     1.007825032230
         H            2.844365913996     0.412043157919     1.533354738151     1.007825032230
         H           -2.313190086004     1.905169157919     0.558495738151     1.007825032230
         H           -1.198692086004    -2.818441842081    -0.443580261849     1.007825032230
         H           -0.832337086004     3.432034157919    -0.177963261849     1.007825032230
         H           -0.541532086004     2.676084157919    -1.747421261849     1.007825032230
         H            0.795431913996     3.493688157919    -0.884401261849     1.007825032230
         H           -4.089569086004     0.191842157919     0.609354738151     1.007825032230
         H           -3.538605086004    -2.182527842081     0.068325738151     1.007825032230

  Basis Set: AUG-CC-PVTZ
    Blend: AUG-CC-PVTZ
  Basis Set: (AUG-CC-PVTZ AUX)
    Blend: AUG-CC-PVTZ-JKFIT
	 Reference Energy          =    -568.4651326884926448 [Eh]
	 Singles Energy            =      -0.0000000000000000 [Eh]
	 Same-Spin Energy          =      -0.6144730312366752 [Eh]
	 Opposite-Spin Energy      =      -1.8871875048633600 [Eh]
	 Correlation Energy        =      -2.5016605361000352 [Eh]
	 Total Energy              =    -570.9667932245927204 [Eh]

	 ================> DF-SCS-MP2 Energies <==================
	-----------------------------------------------------------
	 SCS Same-Spin Scale       =       0.3333333333333333 [-]
	 SCS Opposite-Spin Scale   =       1.2000000000000000 [-]
	 SCS Same-Spin Energy      =      -0.2048243437455584 [Eh]
	 SCS Opposite-Spin Energy  =      -2.2646250058360318 [Eh]
	 SCS Correlation Energy    =      -2.4694493495815903 [Eh]
	 SCS Total Energy          =    -570.9345820380742680 [Eh]
	-----------------------------------------------------------

  Dipole Moment: [D]
     X:    -5.1064      Y:    -0.2387      Z:     0.2291     Total:     5.1171

*** Psi4 exiting successfully. Buy a developer a beer!
