                               Psi4 1.3.2 release

  ==> Input File <==

--------------------------------------------------------------------------
#psi4
#
memory 32 gb

molecule  {
0 1
  O        3.1477550    -1.4485350    -0.2143050
  N        0.9062980    -1.2504610    -0.5893500
  N        1.4697979     1.4689083     0.3918741
  C       -0.6961080     0.5074870     0.0337420
  C       -0.3911060    -0.8453020    -0.2363150
  C        0.3345050     1.5654110    -0.0838510
  C        1.9201190     0.2388570     1.0398190
  C       -2.0282860     0.8425430     0.3372020
  C       -1.4126000    -1.8085370    -0.2310830
  C        2.0871850    -0.8915250     0.0446260
  C       -0.0584500     2.8482670    -0.7690020
  C       -3.0319510    -0.1194250     0.3623450
  C       -2.7230760    -1.4503270     0.0616580
  H        0.9974690    -2.0891180    -1.1576180
  H        1.1650960    -0.0456930     1.7889680
  H        2.8821530     0.3846540     1.5322680
  H       -2.2754030     1.8777800     0.5574090
  H       -1.1609050    -2.8458310    -0.4446670
  H       -0.7945500     3.4046450    -0.1790500
  H       -0.5037450     2.6486950    -1.7485080
  H        0.8332190     3.4662990    -0.8854880
  H       -4.0517820     0.1644530     0.6082680
  H       -3.5008180    -2.2099170     0.0672390
units angstrom
no_reorient  #important for SAPT in psi4, default
symmetry c1  #important for SAPT in psi4, default
}

set PROPERTIES_ORIGIN ["COM"]
properties('MP2/aug-cc-pvtz', properties = ['dipole'])
--------------------------------------------------------------------------

    Molecular point group: c1
  Charge       = 0
  Multiplicity = 1
  Basis Set: AUG-CC-PVTZ
    Blend: AUG-CC-PVTZ
  Basis Set: (AUG-CC-PVTZ AUX)
    Blend: AUG-CC-PVTZ-JKFIT

    Orbital Energies [Eh]
    ---------------------

    Doubly Occupied:

       1A    -20.534593     2A    -15.607094     3A    -15.558256
       4A    -11.365073     5A    -11.311801     6A    -11.291904
       7A    -11.271020     8A    -11.263851     9A    -11.263011
      10A    -11.262180    11A    -11.256842    12A    -11.252212
      13A    -11.231914    14A     -1.389443    15A     -1.282337
      16A     -1.246746    17A     -1.162644    18A     -1.062918
      19A     -1.034858    20A     -1.012040    21A     -0.957958
      22A     -0.883886    23A     -0.856623    24A     -0.797241
      25A     -0.766711    26A     -0.727133    27A     -0.697502
      28A     -0.676185    29A     -0.657427    30A     -0.647611
      31A     -0.625723    32A     -0.622941    33A     -0.606733
      34A     -0.586881    35A     -0.565792    36A     -0.557106
      37A     -0.547531    38A     -0.540451    39A     -0.528944
      40A     -0.516469    41A     -0.464782    42A     -0.444791
      43A     -0.417772    44A     -0.400665    45A     -0.355261
      46A     -0.330652

  @DF-RHF Final Energy:  -568.46597160927251

   => Energetics <=

    Nuclear Repulsion Energy =            762.1843883715116590
    One-Electron Energy =               -2284.4177111570475063
    Two-Electron Energy =                 953.7673511762633325
    Total Energy =                       -568.4659716092725148
  Basis Set: (AUG-CC-PVTZ AUX)
    Blend: AUG-CC-PVTZ-RI
    Molecular point group: c1

    Geometry (in Angstrom), charge = 0, multiplicity = 1:

       Center              X                  Y                   Z               Mass
    ------------   -----------------  -----------------  -----------------  -----------------
         O            3.118089875540    -1.421721421371    -0.218076496155    15.994914619570
         N            0.876632875540    -1.223647421371    -0.593121496155    14.003074004430
         N            1.440132775540     1.495721878629     0.388102603845    14.003074004430
         C           -0.725773124460     0.534300578629     0.029970503845    12.000000000000
         C           -0.420771124460    -0.818488421371    -0.240086496155    12.000000000000
         C            0.304839875540     1.592224578629    -0.087622496155    12.000000000000
         C            1.890453875540     0.265670578629     1.036047503845    12.000000000000
         C           -2.057951124460     0.869356578629     0.333430503845    12.000000000000
         C           -1.442265124460    -1.781723421371    -0.234854496155    12.000000000000
         C            2.057519875540    -0.864711421371     0.040854503845    12.000000000000
         C           -0.088115124460     2.875080578629    -0.772773496155    12.000000000000
         C           -3.061616124460    -0.092611421371     0.358573503845    12.000000000000
         C           -2.752741124460    -1.423513421371     0.057886503845    12.000000000000
         H            0.967803875540    -2.062304421371    -1.161389496155     1.007825032230
         H            1.135430875540    -0.018879421371     1.785196503845     1.007825032230
         H            2.852487875540     0.411467578629     1.528496503845     1.007825032230
         H           -2.305068124460     1.904593578629     0.553637503845     1.007825032230
         H           -1.190570124460    -2.819017421371    -0.448438496155     1.007825032230
         H           -0.824215124460     3.431458578629    -0.182821496155     1.007825032230
         H           -0.533410124460     2.675508578629    -1.752279496155     1.007825032230
         H            0.803553875540     3.493112578629    -0.889259496155     1.007825032230
         H           -4.081447124460     0.191266578629     0.604496503845     1.007825032230
         H           -3.530483124460    -2.183103421371     0.063467503845     1.007825032230

  Basis Set: AUG-CC-PVTZ
    Blend: AUG-CC-PVTZ
  Basis Set: (AUG-CC-PVTZ AUX)
    Blend: AUG-CC-PVTZ-JKFIT
	 Reference Energy          =    -568.4659716092725148 [Eh]
	 Singles Energy            =      -0.0000000000000000 [Eh]
	 Same-Spin Energy          =      -0.6131512282776981 [Eh]
	 Opposite-Spin Energy      =      -1.8840719641596748 [Eh]
	 Correlation Energy        =      -2.4972231924373727 [Eh]
	 Total Energy              =    -570.9631948017098466 [Eh]

	 ================> DF-SCS-MP2 Energies <==================
	-----------------------------------------------------------
	 SCS Same-Spin Scale       =       0.3333333333333333 [-]
	 SCS Opposite-Spin Scale   =       1.2000000000000000 [-]
	 SCS Same-Spin Energy      =      -0.2043837427592327 [Eh]
	 SCS Opposite-Spin Energy  =      -2.2608863569916098 [Eh]
	 SCS Correlation Energy    =      -2.4652700997508425 [Eh]
	 SCS Total Energy          =    -570.9312417090233112 [Eh]
	-----------------------------------------------------------

  Dipole Moment: [D]
     X:    -4.8858      Y:    -0.2208      Z:     0.1611     Total:     4.8935

*** Psi4 exiting successfully. Buy a developer a beer!
