                               Psi4 1.3.2 release

  ==> Input File <==

--------------------------------------------------------------------------
#psi4
#
memory 32 gb

molecule  {
0 1
  O        3.1477550    -1.4485350    -0.2143050
  N        0.9062980    -1.2504610    -0.5893500
  N        1.5545360     1.4658350     0.3351760
  C       -0.6961080     0.5074870     0.0337420
  C       -0.3911060    -0.8453020    -0.2363150
  C        0.4032971     1.4910340    -0.1045988
  C        1.9201190     0.2388570     1.0398190
  C       -2.0282860     0.8425430     0.3372020
  C       -1.4126000    -1.8085370    -0.2310830
  C        2.0871850    -0.8915250     0.0446260
  C       -0.0584500     2.8482670    -0.7690020
  C       -3.0319510    -0.1194250     0.3623450
  C       -2.7230760    -1.4503270     0.0616580
  H        0.9974690    -2.0891180    -1.1576180
  H        1.1650960    -0.0456930     1.7889680
  H        2.8821530     0.3846540     1.5322680
  H       -2.2754030     1.8777800     0.5574090
  H       -1.1609050    -2.8458310    -0.4446670
  H       -0.7945500     3.4046450    -0.1790500
  H       -0.5037450     2.6486950    -1.7485080
  H        0.8332190     3.4662990    -0.8854880
  H       -4.0517820     0.1644530     0.6082680
  H       -3.5008180    -2.2099170     0.0672390
units angstrom
no_reorient  #important for SAPT in psi4, default
symmetry c1  #important for SAPT in psi4, default
}

set PROPERTIES_ORIGIN ["COM"]
properties('MP2/aug-cc-pvtz', properties = ['dipole'])
--------------------------------------------------------------------------

    Molecular point group: c1
  Charge       = 0
  Multiplicity = 1
  Basis Set: AUG-CC-PVTZ
    Blend: AUG-CC-PVTZ
  Basis Set: (AUG-CC-PVTZ AUX)
    Blend: AUG-CC-PVTZ-JKFIT

    Orbital Energies [Eh]
    ---------------------

    Doubly Occupied:

       1A    -20.533994     2A    -15.608035     3A    -15.565116
       4A    -11.364479     5A    -11.312329     6A    -11.296859
       7A    -11.269182     8A    -11.267735     9A    -11.265752
      10A    -11.265079    11A    -11.257612    12A    -11.254283
      13A    -11.231773    14A     -1.389408    15A     -1.285660
      16A     -1.249822    17A     -1.164531    18A     -1.061393
      19A     -1.035560    20A     -1.006488    21A     -0.950849
      22A     -0.886303    23A     -0.858248    24A     -0.797246
      25A     -0.767089    26A     -0.728474    27A     -0.695645
      28A     -0.680314    29A     -0.659617    30A     -0.646120
      31A     -0.626258    32A     -0.618210    33A     -0.607880
      34A     -0.579596    35A     -0.568489    36A     -0.552649
      37A     -0.546223    38A     -0.537255    39A     -0.528524
      40A     -0.507818    41A     -0.467592    42A     -0.445642
      43A     -0.421050    44A     -0.408461    45A     -0.357299
      46A     -0.332622

  @DF-RHF Final Energy:  -568.45947307438416

   => Energetics <=

    Nuclear Repulsion Energy =            761.8083224092258661
    One-Electron Energy =               -2283.6144617831814685
    Two-Electron Energy =                 953.3466662995714387
    Total Energy =                       -568.4594730743841637
  Basis Set: (AUG-CC-PVTZ AUX)
    Blend: AUG-CC-PVTZ-RI
    Molecular point group: c1

    Geometry (in Angstrom), charge = 0, multiplicity = 1:

       Center              X                  Y                   Z               Mass
    ------------   -----------------  -----------------  -----------------  -----------------
         O            3.106531356316    -1.416347091524    -0.212085426495    15.994914619570
         N            0.865074356316    -1.218273091524    -0.587130426495    14.003074004430
         N            1.513312356316     1.498022908476     0.337395573505    14.003074004430
         C           -0.737331643684     0.539674908476     0.035961573505    12.000000000000
         C           -0.432329643684    -0.813114091524    -0.234095426495    12.000000000000
         C            0.362073456316     1.523221908476    -0.102379226495    12.000000000000
         C            1.878895356316     0.271044908476     1.042038573505    12.000000000000
         C           -2.069509643684     0.874730908476     0.339421573505    12.000000000000
         C           -1.453823643684    -1.776349091524    -0.228863426495    12.000000000000
         C            2.045961356316    -0.859337091524     0.046845573505    12.000000000000
         C           -0.099673643684     2.880454908476    -0.766782426495    12.000000000000
         C           -3.073174643684    -0.087237091524     0.364564573505    12.000000000000
         C           -2.764299643684    -1.418139091524     0.063877573505    12.000000000000
         H            0.956245356316    -2.056930091524    -1.155398426495     1.007825032230
         H            1.123872356316    -0.013505091524     1.791187573505     1.007825032230
         H            2.840929356316     0.416841908476     1.534487573505     1.007825032230
         H           -2.316626643684     1.909967908476     0.559628573505     1.007825032230
         H           -1.202128643684    -2.813643091524    -0.442447426495     1.007825032230
         H           -0.835773643684     3.436832908476    -0.176830426495     1.007825032230
         H           -0.544968643684     2.680882908476    -1.746288426495     1.007825032230
         H            0.791995356316     3.498486908476    -0.883268426495     1.007825032230
         H           -4.093005643684     0.196640908476     0.610487573505     1.007825032230
         H           -3.542041643684    -2.177729091524     0.069458573505     1.007825032230

  Basis Set: AUG-CC-PVTZ
    Blend: AUG-CC-PVTZ
  Basis Set: (AUG-CC-PVTZ AUX)
    Blend: AUG-CC-PVTZ-JKFIT
	 Reference Energy          =    -568.4594730743841637 [Eh]
	 Singles Energy            =      -0.0000000000000000 [Eh]
	 Same-Spin Energy          =      -0.6133096189949514 [Eh]
	 Opposite-Spin Energy      =      -1.8852272872189952 [Eh]
	 Correlation Energy        =      -2.4985369062139466 [Eh]
	 Total Energy              =    -570.9580099805981490 [Eh]

	 ================> DF-SCS-MP2 Energies <==================
	-----------------------------------------------------------
	 SCS Same-Spin Scale       =       0.3333333333333333 [-]
	 SCS Opposite-Spin Scale   =       1.2000000000000000 [-]
	 SCS Same-Spin Energy      =      -0.2044365396649838 [Eh]
	 SCS Opposite-Spin Energy  =      -2.2622727446627944 [Eh]
	 SCS Correlation Energy    =      -2.4667092843277780 [Eh]
	 SCS Total Energy          =    -570.9261823587119125 [Eh]
	-----------------------------------------------------------

  Dipole Moment: [D]
     X:    -4.9879      Y:    -0.3955      Z:     0.3492     Total:     5.0157

*** Psi4 exiting successfully. Buy a developer a beer!
