                               Psi4 1.3.2 release

  ==> Input File <==

--------------------------------------------------------------------------
#psi4
#
memory 32 gb

molecule  {
0 1
  O        3.0819941    -1.5200152    -0.2981116
  N        0.9062980    -1.2504610    -0.5893500
  N        1.5545360     1.4658350     0.3351760
  C       -0.6961080     0.5074870     0.0337420
  C       -0.3911060    -0.8453020    -0.2363150
  C        0.3345050     1.5654110    -0.0838510
  C        1.9201190     0.2388570     1.0398190
  C       -2.0282860     0.8425430     0.3372020
  C       -1.4126000    -1.8085370    -0.2310830
  C        2.0871850    -0.8915250     0.0446260
  C       -0.0584500     2.8482670    -0.7690020
  C       -3.0319510    -0.1194250     0.3623450
  C       -2.7230760    -1.4503270     0.0616580
  H        0.9974690    -2.0891180    -1.1576180
  H        1.1650960    -0.0456930     1.7889680
  H        2.8821530     0.3846540     1.5322680
  H       -2.2754030     1.8777800     0.5574090
  H       -1.1609050    -2.8458310    -0.4446670
  H       -0.7945500     3.4046450    -0.1790500
  H       -0.5037450     2.6486950    -1.7485080
  H        0.8332190     3.4662990    -0.8854880
  H       -4.0517820     0.1644530     0.6082680
  H       -3.5008180    -2.2099170     0.0672390
units angstrom
no_reorient  #important for SAPT in psi4, default
symmetry c1  #important for SAPT in psi4, default
}

set PROPERTIES_ORIGIN ["COM"]
properties('MP2/aug-cc-pvtz', properties = ['dipole'])
--------------------------------------------------------------------------

    Molecular point group: c1
  Charge       = 0
  Multiplicity = 1
  Basis Set: AUG-CC-PVTZ
    Blend: AUG-CC-PVTZ
  Basis Set: (AUG-CC-PVTZ AUX)
    Blend: AUG-CC-PVTZ-JKFIT

    Orbital Energies [Eh]
    ---------------------

    Doubly Occupied:

       1A    -20.530787     2A    -15.600822     3A    -15.568529
       4A    -11.362897     5A    -11.311944     6A    -11.304207
       7A    -11.273089     8A    -11.266138     9A    -11.264631
      10A    -11.264578    11A    -11.256425    12A    -11.252497
      13A    -11.234995    14A     -1.390017    15A     -1.272411
      16A     -1.232159    17A     -1.162864    18A     -1.066165
      19A     -1.034162    20A     -1.011123    21A     -0.954422
      22A     -0.884555    23A     -0.856156    24A     -0.794404
      25A     -0.768041    26A     -0.727311    27A     -0.691559
      28A     -0.678483    29A     -0.656795    30A     -0.647353
      31A     -0.625628    32A     -0.618327    33A     -0.606090
      34A     -0.586923    35A     -0.566818    36A     -0.558877
      37A     -0.543734    38A     -0.539635    39A     -0.527759
      40A     -0.515288    41A     -0.456633    42A     -0.441082
      43A     -0.419531    44A     -0.408155    45A     -0.354995
      46A     -0.329680

  @DF-RHF Final Energy:  -568.46283988739333

   => Energetics <=

    Nuclear Repulsion Energy =            761.0685230604636899
    One-Electron Energy =               -2282.2253802741065556
    Two-Electron Energy =                 952.6940173262496501
    Total Energy =                       -568.4628398873933293
  Basis Set: (AUG-CC-PVTZ AUX)
    Blend: AUG-CC-PVTZ-RI
    Molecular point group: c1

    Geometry (in Angstrom), charge = 0, multiplicity = 1:

       Center              X                  Y                   Z               Mass
    ------------   -----------------  -----------------  -----------------  -----------------
         O            3.051554880662    -1.486386593651    -0.289621862666    15.994914619570
         N            0.875858780662    -1.216832393651    -0.580860262666    14.003074004430
         N            1.524096780662     1.499463606349     0.343665737334    14.003074004430
         C           -0.726547219338     0.541115606349     0.042231737334    12.000000000000
         C           -0.421545219338    -0.811673393651    -0.227825262666    12.000000000000
         C            0.304065780662     1.599039606349    -0.075361262666    12.000000000000
         C            1.889679780662     0.272485606349     1.048308737334    12.000000000000
         C           -2.058725219338     0.876171606349     0.345691737334    12.000000000000
         C           -1.443039219338    -1.774908393651    -0.222593262666    12.000000000000
         C            2.056745780662    -0.857896393651     0.053115737334    12.000000000000
         C           -0.088889219338     2.881895606349    -0.760512262666    12.000000000000
         C           -3.062390219338    -0.085796393651     0.370834737334    12.000000000000
         C           -2.753515219338    -1.416698393651     0.070147737334    12.000000000000
         H            0.967029780662    -2.055489393651    -1.149128262666     1.007825032230
         H            1.134656780662    -0.012064393651     1.797457737334     1.007825032230
         H            2.851713780662     0.418282606349     1.540757737334     1.007825032230
         H           -2.305842219338     1.911408606349     0.565898737334     1.007825032230
         H           -1.191344219338    -2.812202393651    -0.436177262666     1.007825032230
         H           -0.824989219338     3.438273606349    -0.170560262666     1.007825032230
         H           -0.534184219338     2.682323606349    -1.740018262666     1.007825032230
         H            0.802779780662     3.499927606349    -0.876998262666     1.007825032230
         H           -4.082221219338     0.198081606349     0.616757737334     1.007825032230
         H           -3.531257219338    -2.176288393651     0.075728737334     1.007825032230

  Basis Set: AUG-CC-PVTZ
    Blend: AUG-CC-PVTZ
  Basis Set: (AUG-CC-PVTZ AUX)
    Blend: AUG-CC-PVTZ-JKFIT
	 Reference Energy          =    -568.4628398873933293 [Eh]
	 Singles Energy            =      -0.0000000000000000 [Eh]
	 Same-Spin Energy          =      -0.6145188804582815 [Eh]
	 Opposite-Spin Energy      =      -1.8871237817812212 [Eh]
	 Correlation Energy        =      -2.5016426622395027 [Eh]
	 Total Energy              =    -570.9644825496328622 [Eh]

	 ================> DF-SCS-MP2 Energies <==================
	-----------------------------------------------------------
	 SCS Same-Spin Scale       =       0.3333333333333333 [-]
	 SCS Opposite-Spin Scale   =       1.2000000000000000 [-]
	 SCS Same-Spin Energy      =      -0.2048396268194272 [Eh]
	 SCS Opposite-Spin Energy  =      -2.2645485381374653 [Eh]
	 SCS Correlation Energy    =      -2.4693881649568925 [Eh]
	 SCS Total Energy          =    -570.9322280523501831 [Eh]
	-----------------------------------------------------------

  Dipole Moment: [D]
     X:    -4.9389      Y:    -0.0612      Z:     0.4086     Total:     4.9561

*** Psi4 exiting successfully. Buy a developer a beer!
