                               Psi4 1.4a3.dev225

  ==> Input File <==

--------------------------------------------------------------------------
#psi4
#
memory 32 gb

molecule  {
0 1
  O        3.1477550    -1.4485350    -0.2143050
  N        0.9062980    -1.2504610    -0.5893500
  N        1.5545360     1.4658350     0.3351760
  C       -0.6961080     0.5074870     0.0337420
  C       -0.3911060    -0.8453020    -0.2363150
  C        0.3816533     1.5615629    -0.0676576
  C        1.9201190     0.2388570     1.0398190
  C       -2.0282860     0.8425430     0.3372020
  C       -1.4126000    -1.8085370    -0.2310830
  C        2.0871850    -0.8915250     0.0446260
  C       -0.0584500     2.8482670    -0.7690020
  C       -3.0319510    -0.1194250     0.3623450
  C       -2.7230760    -1.4503270     0.0616580
  H        0.9974690    -2.0891180    -1.1576180
  H        1.1650960    -0.0456930     1.7889680
  H        2.8821530     0.3846540     1.5322680
  H       -2.2754030     1.8777800     0.5574090
  H       -1.1609050    -2.8458310    -0.4446670
  H       -0.7945500     3.4046450    -0.1790500
  H       -0.5037450     2.6486950    -1.7485080
  H        0.8332190     3.4662990    -0.8854880
  H       -4.0517820     0.1644530     0.6082680
  H       -3.5008180    -2.2099170     0.0672390
units angstrom
no_reorient  #important for SAPT in psi4, default
symmetry c1  #important for SAPT in psi4, default
}

set PROPERTIES_ORIGIN ["COM"]
properties('MP2/aug-cc-pvtz', properties = ['dipole'])
--------------------------------------------------------------------------

    Molecular point group: c1
  Charge       = 0
  Multiplicity = 1
  Basis Set: AUG-CC-PVTZ
    Blend: AUG-CC-PVTZ
  Basis Set: (AUG-CC-PVTZ AUX)
    Blend: AUG-CC-PVTZ-JKFIT

    Orbital Energies [Eh]
    ---------------------

    Doubly Occupied:

       1A    -20.533336     2A    -15.607023     3A    -15.564209
       4A    -11.363792     5A    -11.312219     6A    -11.298622
       7A    -11.269661     8A    -11.266393     9A    -11.264937
      10A    -11.263891    11A    -11.257186    12A    -11.252936
      13A    -11.233102    14A     -1.388561    15A     -1.281054
      16A     -1.246305    17A     -1.163055    18A     -1.060660
      19A     -1.034935    20A     -1.009930    21A     -0.955683
      22A     -0.881966    23A     -0.856943    24A     -0.795549
      25A     -0.765688    26A     -0.727357    27A     -0.694078
      28A     -0.679560    29A     -0.657053    30A     -0.647114
      31A     -0.625619    32A     -0.620391    33A     -0.606355
      34A     -0.584070    35A     -0.567360    36A     -0.555403
      37A     -0.547419    38A     -0.537491    39A     -0.527937
      40A     -0.512403    41A     -0.464090    42A     -0.444717
      43A     -0.419304    44A     -0.407053    45A     -0.356652
      46A     -0.331590

  @DF-RHF Final Energy:  -568.46630181048954

   => Energetics <=

    Nuclear Repulsion Energy =            760.9720327493552077
    One-Electron Energy =               -2281.9953673380864529
    Two-Electron Energy =                 952.5570327782418190
    Total Energy =                       -568.4663018104895400
  Basis Set: (AUG-CC-PVTZ AUX)
    Blend: AUG-CC-PVTZ-RI
    Molecular point group: c1

    Geometry (in Angstrom), charge = 0, multiplicity = 1:

       Center              X                  Y                   Z               Mass
    ------------   -----------------  -----------------  -----------------  -----------------
         O            3.108023352094    -1.421208937459    -0.214631934707    15.994914619570
         N            0.866566352094    -1.223134937459    -0.589676934707    14.003074004430
         N            1.514804352094     1.493161062541     0.334849065293    14.003074004430
         C           -0.735839647906     0.534813062541     0.033415065293    12.000000000000
         C           -0.430837647906    -0.817975937459    -0.236641934707    12.000000000000
         C            0.341921652094     1.588888962541    -0.067984534707    12.000000000000
         C            1.880387352094     0.266183062541     1.039492065293    12.000000000000
         C           -2.068017647906     0.869869062541     0.336875065293    12.000000000000
         C           -1.452331647906    -1.781210937459    -0.231409934707    12.000000000000
         C            2.047453352094    -0.864198937459     0.044299065293    12.000000000000
         C           -0.098181647906     2.875593062541    -0.769328934707    12.000000000000
         C           -3.071682647906    -0.092098937459     0.362018065293    12.000000000000
         C           -2.762807647906    -1.423000937459     0.061331065293    12.000000000000
         H            0.957737352094    -2.061791937459    -1.157944934707     1.007825032230
         H            1.125364352094    -0.018366937459     1.788641065293     1.007825032230
         H            2.842421352094     0.411980062541     1.531941065293     1.007825032230
         H           -2.315134647906     1.905106062541     0.557082065293     1.007825032230
         H           -1.200636647906    -2.818504937459    -0.444993934707     1.007825032230
         H           -0.834281647906     3.431971062541    -0.179376934707     1.007825032230
         H           -0.543476647906     2.676021062541    -1.748834934707     1.007825032230
         H            0.793487352094     3.493625062541    -0.885814934707     1.007825032230
         H           -4.091513647906     0.191779062541     0.607941065293     1.007825032230
         H           -3.540549647906    -2.182590937459     0.066912065293     1.007825032230

  Basis Set: AUG-CC-PVTZ
    Blend: AUG-CC-PVTZ
  Basis Set: (AUG-CC-PVTZ AUX)
    Blend: AUG-CC-PVTZ-JKFIT
	 Reference Energy          =    -568.4663018104895400 [Eh]
	 Singles Energy            =      -0.0000000000000000 [Eh]
	 Same-Spin Energy          =      -0.6130953781467090 [Eh]
	 Opposite-Spin Energy      =      -1.8847342744248072 [Eh]
	 Correlation Energy        =      -2.4978296525715162 [Eh]
	 Total Energy              =    -570.9641314630611078 [Eh]

	 ================> DF-SCS-MP2 Energies <==================
	-----------------------------------------------------------
	 SCS Same-Spin Scale       =       0.3333333333333333 [-]
	 SCS Opposite-Spin Scale   =       1.2000000000000000 [-]
	 SCS Same-Spin Energy      =      -0.2043651260489030 [Eh]
	 SCS Opposite-Spin Energy  =      -2.2616811293097685 [Eh]
	 SCS Correlation Energy    =      -2.4660462553586715 [Eh]
	 SCS Total Energy          =    -570.9323480658482595 [Eh]
	-----------------------------------------------------------

  Dipole Moment: [D]
     X:    -4.9884      Y:    -0.2363      Z:     0.2809     Total:     5.0019

*** Psi4 exiting successfully. Buy a developer a beer!
