                               Psi4 1.3.2 release

  ==> Input File <==

--------------------------------------------------------------------------
#psi4
#
memory 32 gb

molecule  {
0 1
  O        3.1477550    -1.4485350    -0.2143050
  N        0.8710138    -1.3411145    -0.6013741
  N        1.5545360     1.4658350     0.3351760
  C       -0.6961080     0.5074870     0.0337420
  C       -0.3911060    -0.8453020    -0.2363150
  C        0.3345050     1.5654110    -0.0838510
  C        1.9201190     0.2388570     1.0398190
  C       -2.0282860     0.8425430     0.3372020
  C       -1.4126000    -1.8085370    -0.2310830
  C        2.0871850    -0.8915250     0.0446260
  C       -0.0584500     2.8482670    -0.7690020
  C       -3.0319510    -0.1194250     0.3623450
  C       -2.7230760    -1.4503270     0.0616580
  H        0.9974690    -2.0891180    -1.1576180
  H        1.1650960    -0.0456930     1.7889680
  H        2.8821530     0.3846540     1.5322680
  H       -2.2754030     1.8777800     0.5574090
  H       -1.1609050    -2.8458310    -0.4446670
  H       -0.7945500     3.4046450    -0.1790500
  H       -0.5037450     2.6486950    -1.7485080
  H        0.8332190     3.4662990    -0.8854880
  H       -4.0517820     0.1644530     0.6082680
  H       -3.5008180    -2.2099170     0.0672390
units angstrom
no_reorient  #important for SAPT in psi4, default
symmetry c1  #important for SAPT in psi4, default
}

set PROPERTIES_ORIGIN ["COM"]
properties('MP2/aug-cc-pvtz', properties = ['dipole'])
--------------------------------------------------------------------------

    Molecular point group: c1
  Charge       = 0
  Multiplicity = 1
  Basis Set: AUG-CC-PVTZ
    Blend: AUG-CC-PVTZ
  Basis Set: (AUG-CC-PVTZ AUX)
    Blend: AUG-CC-PVTZ-JKFIT

    Orbital Energies [Eh]
    ---------------------

    Doubly Occupied:

       1A    -20.539118     2A    -15.598397     3A    -15.567495
       4A    -11.369330     5A    -11.312820     6A    -11.303458
       7A    -11.271381     8A    -11.266462     9A    -11.265284
      10A    -11.262823    11A    -11.253612    12A    -11.251550
      13A    -11.234550    14A     -1.388323    15A     -1.272260
      16A     -1.234573    17A     -1.161546    18A     -1.064762
      19A     -1.031012    20A     -1.012847    21A     -0.953548
      22A     -0.882337    23A     -0.855393    24A     -0.795684
      25A     -0.770579    26A     -0.732871    27A     -0.689672
      28A     -0.679459    29A     -0.654455    30A     -0.651358
      31A     -0.625157    32A     -0.620267    33A     -0.610153
      34A     -0.586645    35A     -0.563229    36A     -0.558103
      37A     -0.543528    38A     -0.538085    39A     -0.527006
      40A     -0.516288    41A     -0.458050    42A     -0.445202
      43A     -0.417982    44A     -0.407402    45A     -0.353984
      46A     -0.328643

  @DF-RHF Final Energy:  -568.45613671172089

   => Energetics <=

    Nuclear Repulsion Energy =            759.3289708975172516
    One-Electron Energy =               -2278.7168487426238244
    Two-Electron Energy =                 950.9317411333857990
    Total Energy =                       -568.4561367117208874
  Basis Set: (AUG-CC-PVTZ AUX)
    Blend: AUG-CC-PVTZ-RI
    Molecular point group: c1

    Geometry (in Angstrom), charge = 0, multiplicity = 1:

       Center              X                  Y                   Z               Mass
    ------------   -----------------  -----------------  -----------------  -----------------
         O            3.114111765736    -1.414181965394    -0.212548429459    15.994914619570
         N            0.837370565736    -1.306761465394    -0.599617529459    14.003074004430
         N            1.520892765736     1.500188034606     0.336932570541    14.003074004430
         C           -0.729751234264     0.541840034606     0.035498570541    12.000000000000
         C           -0.424749234264    -0.810948965394    -0.234558429459    12.000000000000
         C            0.300861765736     1.599764034606    -0.082094429459    12.000000000000
         C            1.886475765736     0.273210034606     1.041575570541    12.000000000000
         C           -2.061929234264     0.876896034606     0.338958570541    12.000000000000
         C           -1.446243234264    -1.774183965394    -0.229326429459    12.000000000000
         C            2.053541765736    -0.857171965394     0.046382570541    12.000000000000
         C           -0.092093234264     2.882620034606    -0.767245429459    12.000000000000
         C           -3.065594234264    -0.085071965394     0.364101570541    12.000000000000
         C           -2.756719234264    -1.415973965394     0.063414570541    12.000000000000
         H            0.963825765736    -2.054764965394    -1.155861429459     1.007825032230
         H            1.131452765736    -0.011339965394     1.790724570541     1.007825032230
         H            2.848509765736     0.419007034606     1.534024570541     1.007825032230
         H           -2.309046234264     1.912133034606     0.559165570541     1.007825032230
         H           -1.194548234264    -2.811477965394    -0.442910429459     1.007825032230
         H           -0.828193234264     3.438998034606    -0.177293429459     1.007825032230
         H           -0.537388234264     2.683048034606    -1.746751429459     1.007825032230
         H            0.799575765736     3.500652034606    -0.883731429459     1.007825032230
         H           -4.085425234264     0.198806034606     0.610024570541     1.007825032230
         H           -3.534461234264    -2.175563965394     0.068995570541     1.007825032230

  Basis Set: AUG-CC-PVTZ
    Blend: AUG-CC-PVTZ
  Basis Set: (AUG-CC-PVTZ AUX)
    Blend: AUG-CC-PVTZ-JKFIT
	 Reference Energy          =    -568.4561367117208874 [Eh]
	 Singles Energy            =      -0.0000000000000000 [Eh]
	 Same-Spin Energy          =      -0.6138628713610712 [Eh]
	 Opposite-Spin Energy      =      -1.8868053334581025 [Eh]
	 Correlation Energy        =      -2.5006682048191737 [Eh]
	 Total Energy              =    -570.9568049165400225 [Eh]

	 ================> DF-SCS-MP2 Energies <==================
	-----------------------------------------------------------
	 SCS Same-Spin Scale       =       0.3333333333333333 [-]
	 SCS Opposite-Spin Scale   =       1.2000000000000000 [-]
	 SCS Same-Spin Energy      =      -0.2046209571203570 [Eh]
	 SCS Opposite-Spin Energy  =      -2.2641664001497230 [Eh]
	 SCS Correlation Energy    =      -2.4687873572700800 [Eh]
	 SCS Total Energy          =    -570.9249240689910039 [Eh]
	-----------------------------------------------------------

  Dipole Moment: [D]
     X:    -4.7774      Y:    -0.1472      Z:     0.2598     Total:     4.7868

*** Psi4 exiting successfully. Buy a developer a beer!
