                               Psi4 1.3.2 release

  ==> Input File <==

--------------------------------------------------------------------------
#psi4
#
memory 32 gb

molecule  {
0 1
  O        3.1477550    -1.4485350    -0.2143050
  N        0.9062980    -1.2504610    -0.5893500
  N        1.5545360     1.4658350     0.3351760
  C       -0.6961080     0.5074870     0.0337420
  C       -0.3911060    -0.8453020    -0.2363150
  C        0.2606918     1.6346339    -0.0625303
  C        1.9201190     0.2388570     1.0398190
  C       -2.0282860     0.8425430     0.3372020
  C       -1.4126000    -1.8085370    -0.2310830
  C        2.0871850    -0.8915250     0.0446260
  C       -0.0584500     2.8482670    -0.7690020
  C       -3.0319510    -0.1194250     0.3623450
  C       -2.7230760    -1.4503270     0.0616580
  H        0.9974690    -2.0891180    -1.1576180
  H        1.1650960    -0.0456930     1.7889680
  H        2.8821530     0.3846540     1.5322680
  H       -2.2754030     1.8777800     0.5574090
  H       -1.1609050    -2.8458310    -0.4446670
  H       -0.7945500     3.4046450    -0.1790500
  H       -0.5037450     2.6486950    -1.7485080
  H        0.8332190     3.4662990    -0.8854880
  H       -4.0517820     0.1644530     0.6082680
  H       -3.5008180    -2.2099170     0.0672390
units angstrom
no_reorient  #important for SAPT in psi4, default
symmetry c1  #important for SAPT in psi4, default
}

set PROPERTIES_ORIGIN ["COM"]
properties('MP2/aug-cc-pvtz', properties = ['dipole'])
--------------------------------------------------------------------------

    Molecular point group: c1
  Charge       = 0
  Multiplicity = 1
  Basis Set: AUG-CC-PVTZ
    Blend: AUG-CC-PVTZ
  Basis Set: (AUG-CC-PVTZ AUX)
    Blend: AUG-CC-PVTZ-JKFIT

    Orbital Energies [Eh]
    ---------------------

    Doubly Occupied:

       1A    -20.530778     2A    -15.606382     3A    -15.569521
       4A    -11.360941     5A    -11.316758     6A    -11.309457
       7A    -11.267867     8A    -11.266005     9A    -11.265458
      10A    -11.264950    11A    -11.259158    12A    -11.253483
      13A    -11.235583    14A     -1.385922    15A     -1.271796
      16A     -1.214239    17A     -1.164533    18A     -1.071809
      19A     -1.035588    20A     -1.018436    21A     -0.946830
      22A     -0.885805    23A     -0.858357    24A     -0.793935
      25A     -0.768831    26A     -0.729471    27A     -0.688185
      28A     -0.675695    29A     -0.655610    30A     -0.650290
      31A     -0.627287    32A     -0.619821    33A     -0.602825
      34A     -0.593494    35A     -0.567203    36A     -0.565714
      37A     -0.539633    38A     -0.538467    39A     -0.526565
      40A     -0.521821    41A     -0.450074    42A     -0.443537
      43A     -0.414462    44A     -0.395530    45A     -0.350350
      46A     -0.331953

  @DF-RHF Final Energy:  -568.44836908689012

   => Energetics <=

    Nuclear Repulsion Energy =            759.7433795034673949
    One-Electron Energy =               -2279.5626774230354386
    Two-Electron Energy =                 951.3709288326779188
    Total Energy =                       -568.4483690868901249
  Basis Set: (AUG-CC-PVTZ AUX)
    Blend: AUG-CC-PVTZ-RI
    Molecular point group: c1

    Geometry (in Angstrom), charge = 0, multiplicity = 1:

       Center              X                  Y                   Z               Mass
    ------------   -----------------  -----------------  -----------------  -----------------
         O            3.116361723698    -1.426246020758    -0.214985380496    15.994914619570
         N            0.874904723698    -1.228172020758    -0.590030380496    14.003074004430
         N            1.523142723698     1.488123979242     0.334495619504    14.003074004430
         C           -0.727501276302     0.529775979242     0.033061619504    12.000000000000
         C           -0.422499276302    -0.823013020758    -0.236995380496    12.000000000000
         C            0.229298523698     1.656922879242    -0.063210680496    12.000000000000
         C            1.888725723698     0.261145979242     1.039138619504    12.000000000000
         C           -2.059679276302     0.864831979242     0.336521619504    12.000000000000
         C           -1.443993276302    -1.786248020758    -0.231763380496    12.000000000000
         C            2.055791723698    -0.869236020758     0.043945619504    12.000000000000
         C           -0.089843276302     2.870555979242    -0.769682380496    12.000000000000
         C           -3.063344276302    -0.097136020758     0.361664619504    12.000000000000
         C           -2.754469276302    -1.428038020758     0.060977619504    12.000000000000
         H            0.966075723698    -2.066829020758    -1.158298380496     1.007825032230
         H            1.133702723698    -0.023404020758     1.788287619504     1.007825032230
         H            2.850759723698     0.406942979242     1.531587619504     1.007825032230
         H           -2.306796276302     1.900068979242     0.556728619504     1.007825032230
         H           -1.192298276302    -2.823542020758    -0.445347380496     1.007825032230
         H           -0.825943276302     3.426933979242    -0.179730380496     1.007825032230
         H           -0.535138276302     2.670983979242    -1.749188380496     1.007825032230
         H            0.801825723698     3.488587979242    -0.886168380496     1.007825032230
         H           -4.083175276302     0.186741979242     0.607587619504     1.007825032230
         H           -3.532211276302    -2.187628020758     0.066558619504     1.007825032230

  Basis Set: AUG-CC-PVTZ
    Blend: AUG-CC-PVTZ
  Basis Set: (AUG-CC-PVTZ AUX)
    Blend: AUG-CC-PVTZ-JKFIT
	 Reference Energy          =    -568.4483690868901249 [Eh]
	 Singles Energy            =      -0.0000000000000000 [Eh]
	 Same-Spin Energy          =      -0.6168456551379260 [Eh]
	 Opposite-Spin Energy      =      -1.8914923430548629 [Eh]
	 Correlation Energy        =      -2.5083379981927889 [Eh]
	 Total Energy              =    -570.9567070850829396 [Eh]

	 ================> DF-SCS-MP2 Energies <==================
	-----------------------------------------------------------
	 SCS Same-Spin Scale       =       0.3333333333333333 [-]
	 SCS Opposite-Spin Scale   =       1.2000000000000000 [-]
	 SCS Same-Spin Energy      =      -0.2056152183793087 [Eh]
	 SCS Opposite-Spin Energy  =      -2.2697908116658354 [Eh]
	 SCS Correlation Energy    =      -2.4754060300451441 [Eh]
	 SCS Total Energy          =    -570.9237751169353032 [Eh]
	-----------------------------------------------------------

  Dipole Moment: [D]
     X:    -5.2044      Y:    -0.1369      Z:     0.1247     Total:     5.2077

*** Psi4 exiting successfully. Buy a developer a beer!
