                               Psi4 1.3.2 release

  ==> Input File <==

--------------------------------------------------------------------------
#psi4
#
memory 32 gb

molecule  {
0 1
  O        3.1477550    -1.4485350    -0.2143050
  N        0.9062980    -1.2504610    -0.5893500
  N        1.5545360     1.4658350     0.3351760
  C       -0.6961080     0.5074870     0.0337420
  C       -0.3911060    -0.8453020    -0.2363150
  C        0.1459116     1.5808035    -0.1486245
  C        1.9201190     0.2388570     1.0398190
  C       -2.0282860     0.8425430     0.3372020
  C       -1.4126000    -1.8085370    -0.2310830
  C        2.0871850    -0.8915250     0.0446260
  C       -0.0584500     2.8482670    -0.7690020
  C       -3.0319510    -0.1194250     0.3623450
  C       -2.7230760    -1.4503270     0.0616580
  H        0.9974690    -2.0891180    -1.1576180
  H        1.1650960    -0.0456930     1.7889680
  H        2.8821530     0.3846540     1.5322680
  H       -2.2754030     1.8777800     0.5574090
  H       -1.1609050    -2.8458310    -0.4446670
  H       -0.7945500     3.4046450    -0.1790500
  H       -0.5037450     2.6486950    -1.7485080
  H        0.8332190     3.4662990    -0.8854880
  H       -4.0517820     0.1644530     0.6082680
  H       -3.5008180    -2.2099170     0.0672390
units angstrom
no_reorient  #important for SAPT in psi4, default
symmetry c1  #important for SAPT in psi4, default
}

set PROPERTIES_ORIGIN ["COM"]
properties('MP2/aug-cc-pvtz', properties = ['dipole'])
--------------------------------------------------------------------------

    Molecular point group: c1
  Charge       = 0
  Multiplicity = 1
  Basis Set: AUG-CC-PVTZ
    Blend: AUG-CC-PVTZ
  Basis Set: (AUG-CC-PVTZ AUX)
    Blend: AUG-CC-PVTZ-JKFIT

    Orbital Energies [Eh]
    ---------------------

    Doubly Occupied:

       1A    -20.528163     2A    -15.607729     3A    -15.569232
       4A    -11.357988     5A    -11.323755     6A    -11.315170
       7A    -11.272135     8A    -11.271388     9A    -11.265076
      10A    -11.262862    11A    -11.257670    12A    -11.257200
      13A    -11.238477    14A     -1.383684    15A     -1.272642
      16A     -1.194840    17A     -1.164477    18A     -1.082877
      19A     -1.038245    20A     -1.023354    21A     -0.927803
      22A     -0.901963    23A     -0.863396    24A     -0.798138
      25A     -0.771543    26A     -0.733930    27A     -0.685705
      28A     -0.672758    29A     -0.660201    30A     -0.649962
      31A     -0.630873    32A     -0.621135    33A     -0.598765
      34A     -0.595670    35A     -0.574864    36A     -0.565074
      37A     -0.547006    38A     -0.535613    39A     -0.531743
      40A     -0.505293    41A     -0.446212    42A     -0.441024
      43A     -0.415405    44A     -0.386975    45A     -0.340145
      46A     -0.325570

  @DF-RHF Final Energy:  -568.39882034515244

   => Energetics <=

    Nuclear Repulsion Energy =            760.2349062473323329
    One-Electron Energy =               -2280.4399898978908823
    Two-Electron Energy =                 951.8062633054062189
    Total Energy =                       -568.3988203451524441
  Basis Set: (AUG-CC-PVTZ AUX)
    Blend: AUG-CC-PVTZ-RI
    Molecular point group: c1

    Geometry (in Angstrom), charge = 0, multiplicity = 1:

       Center              X                  Y                   Z               Mass
    ------------   -----------------  -----------------  -----------------  -----------------
         O            3.124273992977    -1.422535270819    -0.209050554683    15.994914619570
         N            0.882816992977    -1.224461270819    -0.584095554683    14.003074004430
         N            1.531054992977     1.491834729181     0.340430445317    14.003074004430
         C           -0.719589007023     0.533486729181     0.038996445317    12.000000000000
         C           -0.414587007023    -0.819302270819    -0.231060554683    12.000000000000
         C            0.122430592977     1.606803229181    -0.143370054683    12.000000000000
         C            1.896637992977     0.264856729181     1.045073445317    12.000000000000
         C           -2.051767007023     0.868542729181     0.342456445317    12.000000000000
         C           -1.436081007023    -1.782537270819    -0.225828554683    12.000000000000
         C            2.063703992977    -0.865525270819     0.049880445317    12.000000000000
         C           -0.081931007023     2.874266729181    -0.763747554683    12.000000000000
         C           -3.055432007023    -0.093425270819     0.367599445317    12.000000000000
         C           -2.746557007023    -1.424327270819     0.066912445317    12.000000000000
         H            0.973987992977    -2.063118270819    -1.152363554683     1.007825032230
         H            1.141614992977    -0.019693270819     1.794222445317     1.007825032230
         H            2.858671992977     0.410653729181     1.537522445317     1.007825032230
         H           -2.298884007023     1.903779729181     0.562663445317     1.007825032230
         H           -1.184386007023    -2.819831270819    -0.439412554683     1.007825032230
         H           -0.818031007023     3.430644729181    -0.173795554683     1.007825032230
         H           -0.527226007023     2.674694729181    -1.743253554683     1.007825032230
         H            0.809737992977     3.492298729181    -0.880233554683     1.007825032230
         H           -4.075263007023     0.190452729181     0.613522445317     1.007825032230
         H           -3.524299007023    -2.183917270819     0.072493445317     1.007825032230

  Basis Set: AUG-CC-PVTZ
    Blend: AUG-CC-PVTZ
  Basis Set: (AUG-CC-PVTZ AUX)
    Blend: AUG-CC-PVTZ-JKFIT
	 Reference Energy          =    -568.3988203451524441 [Eh]
	 Singles Energy            =      -0.0000000000000000 [Eh]
	 Same-Spin Energy          =      -0.6230332390258231 [Eh]
	 Opposite-Spin Energy      =      -1.9017778164916703 [Eh]
	 Correlation Energy        =      -2.5248110555174934 [Eh]
	 Total Energy              =    -570.9236314006699331 [Eh]

	 ================> DF-SCS-MP2 Energies <==================
	-----------------------------------------------------------
	 SCS Same-Spin Scale       =       0.3333333333333333 [-]
	 SCS Opposite-Spin Scale   =       1.2000000000000000 [-]
	 SCS Same-Spin Energy      =      -0.2076777463419410 [Eh]
	 SCS Opposite-Spin Energy  =      -2.2821333797900043 [Eh]
	 SCS Correlation Energy    =      -2.4898111261319453 [Eh]
	 SCS Total Energy          =    -570.8886314712843841 [Eh]
	-----------------------------------------------------------

  Dipole Moment: [D]
     X:    -5.2671      Y:    -0.2713      Z:     0.1211     Total:     5.2754

*** Psi4 exiting successfully. Buy a developer a beer!
