                               Psi4 1.3.2 release

  ==> Input File <==

--------------------------------------------------------------------------
#psi4
#
memory 32 gb

molecule  {
0 1
  O        3.1477550    -1.4485350    -0.2143050
  N        0.9062980    -1.2504610    -0.5893500
  N        1.5545360     1.4658350     0.3351760
  C       -0.7254681     0.4143390     0.0235849
  C       -0.3911060    -0.8453020    -0.2363150
  C        0.3345050     1.5654110    -0.0838510
  C        1.9201190     0.2388570     1.0398190
  C       -2.0282860     0.8425430     0.3372020
  C       -1.4126000    -1.8085370    -0.2310830
  C        2.0871850    -0.8915250     0.0446260
  C       -0.0584500     2.8482670    -0.7690020
  C       -3.0319510    -0.1194250     0.3623450
  C       -2.7230760    -1.4503270     0.0616580
  H        0.9974690    -2.0891180    -1.1576180
  H        1.1650960    -0.0456930     1.7889680
  H        2.8821530     0.3846540     1.5322680
  H       -2.2754030     1.8777800     0.5574090
  H       -1.1609050    -2.8458310    -0.4446670
  H       -0.7945500     3.4046450    -0.1790500
  H       -0.5037450     2.6486950    -1.7485080
  H        0.8332190     3.4662990    -0.8854880
  H       -4.0517820     0.1644530     0.6082680
  H       -3.5008180    -2.2099170     0.0672390
units angstrom
no_reorient  #important for SAPT in psi4, default
symmetry c1  #important for SAPT in psi4, default
}

set PROPERTIES_ORIGIN ["COM"]
properties('MP2/aug-cc-pvtz', properties = ['dipole'])
--------------------------------------------------------------------------

    Molecular point group: c1
  Charge       = 0
  Multiplicity = 1
  Basis Set: AUG-CC-PVTZ
    Blend: AUG-CC-PVTZ
  Basis Set: (AUG-CC-PVTZ AUX)
    Blend: AUG-CC-PVTZ-JKFIT

    Orbital Energies [Eh]
    ---------------------

    Doubly Occupied:

       1A    -20.531597     2A    -15.605537     3A    -15.566491
       4A    -11.361934     5A    -11.306486     6A    -11.302443
       7A    -11.266836     8A    -11.264864     9A    -11.262577
      10A    -11.262251    11A    -11.258511    12A    -11.254085
      13A    -11.235629    14A     -1.386865    15A     -1.276740
      16A     -1.230268    17A     -1.169788    18A     -1.060343
      19A     -1.037041    20A     -1.017562    21A     -0.951209
      22A     -0.878649    23A     -0.861884    24A     -0.792892
      25A     -0.767999    26A     -0.724946    27A     -0.690137
      28A     -0.676970    29A     -0.654749    30A     -0.652675
      31A     -0.627526    32A     -0.617103    33A     -0.604631
      34A     -0.586075    35A     -0.567754    36A     -0.558936
      37A     -0.541819    38A     -0.538566    39A     -0.530624
      40A     -0.516040    41A     -0.456573    42A     -0.444048
      43A     -0.413584    44A     -0.400747    45A     -0.356807
      46A     -0.338486

  @DF-RHF Final Energy:  -568.45683742180643

   => Energetics <=

    Nuclear Repulsion Energy =            761.2186288464556583
    One-Electron Energy =               -2282.5323836258858137
    Two-Electron Energy =                 952.8569173576237290
    Total Energy =                       -568.4568374218064264
  Basis Set: (AUG-CC-PVTZ AUX)
    Blend: AUG-CC-PVTZ-RI
    Molecular point group: c1

    Geometry (in Angstrom), charge = 0, multiplicity = 1:

       Center              X                  Y                   Z               Mass
    ------------   -----------------  -----------------  -----------------  -----------------
         O            3.113297389453    -1.415053129616    -0.212815486821    15.994914619570
         N            0.871840389453    -1.216979129616    -0.587860486821    14.003074004430
         N            1.520078389453     1.499316870384     0.336665513179    14.003074004430
         C           -0.759925710547     0.447820870384     0.025074413179    12.000000000000
         C           -0.425563610547    -0.811820129616    -0.234825486821    12.000000000000
         C            0.300047389453     1.598892870384    -0.082361486821    12.000000000000
         C            1.885661389453     0.272338870384     1.041308513179    12.000000000000
         C           -2.062743610547     0.876024870384     0.338691513179    12.000000000000
         C           -1.447057610547    -1.775055129616    -0.229593486821    12.000000000000
         C            2.052727389453    -0.858043129616     0.046115513179    12.000000000000
         C           -0.092907610547     2.881748870384    -0.767512486821    12.000000000000
         C           -3.066408610547    -0.085943129616     0.363834513179    12.000000000000
         C           -2.757533610547    -1.416845129616     0.063147513179    12.000000000000
         H            0.963011389453    -2.055636129616    -1.156128486821     1.007825032230
         H            1.130638389453    -0.012211129616     1.790457513179     1.007825032230
         H            2.847695389453     0.418135870384     1.533757513179     1.007825032230
         H           -2.309860610547     1.911261870384     0.558898513179     1.007825032230
         H           -1.195362610547    -2.812349129616    -0.443177486821     1.007825032230
         H           -0.829007610547     3.438126870384    -0.177560486821     1.007825032230
         H           -0.538202610547     2.682176870384    -1.747018486821     1.007825032230
         H            0.798761389453     3.499780870384    -0.883998486821     1.007825032230
         H           -4.086239610547     0.197934870384     0.609757513179     1.007825032230
         H           -3.535275610547    -2.176435129616     0.068728513179     1.007825032230

  Basis Set: AUG-CC-PVTZ
    Blend: AUG-CC-PVTZ
  Basis Set: (AUG-CC-PVTZ AUX)
    Blend: AUG-CC-PVTZ-JKFIT
	 Reference Energy          =    -568.4568374218064264 [Eh]
	 Singles Energy            =      -0.0000000000000000 [Eh]
	 Same-Spin Energy          =      -0.6134570833220897 [Eh]
	 Opposite-Spin Energy      =      -1.8863386412007401 [Eh]
	 Correlation Energy        =      -2.4997957245228299 [Eh]
	 Total Energy              =    -570.9566331463292954 [Eh]

	 ================> DF-SCS-MP2 Energies <==================
	-----------------------------------------------------------
	 SCS Same-Spin Scale       =       0.3333333333333333 [-]
	 SCS Opposite-Spin Scale   =       1.2000000000000000 [-]
	 SCS Same-Spin Energy      =      -0.2044856944406966 [Eh]
	 SCS Opposite-Spin Energy  =      -2.2636063694408879 [Eh]
	 SCS Correlation Energy    =      -2.4680920638815844 [Eh]
	 SCS Total Energy          =    -570.9249294856880397 [Eh]
	-----------------------------------------------------------

  Dipole Moment: [D]
     X:    -5.1142      Y:    -0.1326      Z:     0.2303     Total:     5.1211

*** Psi4 exiting successfully. Buy a developer a beer!
