                               Psi4 1.3.2 release

  ==> Input File <==

--------------------------------------------------------------------------
#psi4
#
memory 32 gb

molecule  {
0 1
  O        3.1477550    -1.4485350    -0.2143050
  N        0.9062980    -1.2504610    -0.5893500
  N        1.5545360     1.4658350     0.3351760
  C       -0.7129466     0.5228495     0.0215299
  C       -0.3911060    -0.8453020    -0.2363150
  C        0.3345050     1.5654110    -0.0838510
  C        1.9201190     0.2388570     1.0398190
  C       -2.0282860     0.8425430     0.3372020
  C       -1.4126000    -1.8085370    -0.2310830
  C        2.0871850    -0.8915250     0.0446260
  C       -0.0584500     2.8482670    -0.7690020
  C       -3.0319510    -0.1194250     0.3623450
  C       -2.7230760    -1.4503270     0.0616580
  H        0.9974690    -2.0891180    -1.1576180
  H        1.1650960    -0.0456930     1.7889680
  H        2.8821530     0.3846540     1.5322680
  H       -2.2754030     1.8777800     0.5574090
  H       -1.1609050    -2.8458310    -0.4446670
  H       -0.7945500     3.4046450    -0.1790500
  H       -0.5037450     2.6486950    -1.7485080
  H        0.8332190     3.4662990    -0.8854880
  H       -4.0517820     0.1644530     0.6082680
  H       -3.5008180    -2.2099170     0.0672390
units angstrom
no_reorient  #important for SAPT in psi4, default
symmetry c1  #important for SAPT in psi4, default
}

set PROPERTIES_ORIGIN ["COM"]
properties('MP2/aug-cc-pvtz', properties = ['dipole'])
--------------------------------------------------------------------------

    Molecular point group: c1
  Charge       = 0
  Multiplicity = 1
  Basis Set: AUG-CC-PVTZ
    Blend: AUG-CC-PVTZ
  Basis Set: (AUG-CC-PVTZ AUX)
    Blend: AUG-CC-PVTZ-JKFIT

    Orbital Energies [Eh]
    ---------------------

    Doubly Occupied:

       1A    -20.532591     2A    -15.607584     3A    -15.567614
       4A    -11.362813     5A    -11.315829     6A    -11.302611
       7A    -11.267301     8A    -11.266655     9A    -11.265304
      10A    -11.264616    11A    -11.258011    12A    -11.253651
      13A    -11.233501    14A     -1.387744    15A     -1.275584
      16A     -1.232980    17A     -1.165386    18A     -1.066481
      19A     -1.035903    20A     -1.009980    21A     -0.951799
      22A     -0.885429    23A     -0.858045    24A     -0.795568
      25A     -0.768183    26A     -0.729158    27A     -0.691893
      28A     -0.678004    29A     -0.658032    30A     -0.647072
      31A     -0.627559    32A     -0.617874    33A     -0.604809
      34A     -0.586328    35A     -0.567000    36A     -0.558826
      37A     -0.544371    38A     -0.539190    39A     -0.527861
      40A     -0.513238    41A     -0.458036    42A     -0.444728
      43A     -0.417614    44A     -0.406167    45A     -0.356562
      46A     -0.330762

  @DF-RHF Final Energy:  -568.46488496722247

   => Energetics <=

    Nuclear Repulsion Energy =            760.5803333747188617
    One-Electron Energy =               -2281.2179381659689170
    Two-Electron Energy =                 952.1727198240274674
    Total Energy =                       -568.4648849672224742
  Basis Set: (AUG-CC-PVTZ AUX)
    Blend: AUG-CC-PVTZ-RI
    Molecular point group: c1

    Geometry (in Angstrom), charge = 0, multiplicity = 1:

       Center              X                  Y                   Z               Mass
    ------------   -----------------  -----------------  -----------------  -----------------
         O            3.112434231175    -1.422533202796    -0.212673827255    15.994914619570
         N            0.870977231175    -1.224459202796    -0.587718827255    14.003074004430
         N            1.519215231175     1.491836797204     0.336807172745    14.003074004430
         C           -0.748267368825     0.548851297204     0.023161072745    12.000000000000
         C           -0.426426768825    -0.819300202796    -0.234683827255    12.000000000000
         C            0.299184231175     1.591412797204    -0.082219827255    12.000000000000
         C            1.884798231175     0.264858797204     1.041450172745    12.000000000000
         C           -2.063606768825     0.868544797204     0.338833172745    12.000000000000
         C           -1.447920768825    -1.782535202796    -0.229451827255    12.000000000000
         C            2.051864231175    -0.865523202796     0.046257172745    12.000000000000
         C           -0.093770768825     2.874268797204    -0.767370827255    12.000000000000
         C           -3.067271768825    -0.093423202796     0.363976172745    12.000000000000
         C           -2.758396768825    -1.424325202796     0.063289172745    12.000000000000
         H            0.962148231175    -2.063116202796    -1.155986827255     1.007825032230
         H            1.129775231175    -0.019691202796     1.790599172745     1.007825032230
         H            2.846832231175     0.410655797204     1.533899172745     1.007825032230
         H           -2.310723768825     1.903781797204     0.559040172745     1.007825032230
         H           -1.196225768825    -2.819829202796    -0.443035827255     1.007825032230
         H           -0.829870768825     3.430646797204    -0.177418827255     1.007825032230
         H           -0.539065768825     2.674696797204    -1.746876827255     1.007825032230
         H            0.797898231175     3.492300797204    -0.883856827255     1.007825032230
         H           -4.087102768825     0.190454797204     0.609899172745     1.007825032230
         H           -3.536138768825    -2.183915202796     0.068870172745     1.007825032230

  Basis Set: AUG-CC-PVTZ
    Blend: AUG-CC-PVTZ
  Basis Set: (AUG-CC-PVTZ AUX)
    Blend: AUG-CC-PVTZ-JKFIT
	 Reference Energy          =    -568.4648849672224742 [Eh]
	 Singles Energy            =      -0.0000000000000000 [Eh]
	 Same-Spin Energy          =      -0.6145012053894949 [Eh]
	 Opposite-Spin Energy      =      -1.8872032278973705 [Eh]
	 Correlation Energy        =      -2.5017044332868652 [Eh]
	 Total Energy              =    -570.9665894005092923 [Eh]

	 ================> DF-SCS-MP2 Energies <==================
	-----------------------------------------------------------
	 SCS Same-Spin Scale       =       0.3333333333333333 [-]
	 SCS Opposite-Spin Scale   =       1.2000000000000000 [-]
	 SCS Same-Spin Energy      =      -0.2048337351298316 [Eh]
	 SCS Opposite-Spin Energy  =      -2.2646438734768446 [Eh]
	 SCS Correlation Energy    =      -2.4694776086066761 [Eh]
	 SCS Total Energy          =    -570.9343625758291410 [Eh]
	-----------------------------------------------------------

  Dipole Moment: [D]
     X:    -5.0955      Y:    -0.2538      Z:     0.2368     Total:     5.1073

*** Psi4 exiting successfully. Buy a developer a beer!
