                               Psi4 1.4a3.dev225

  ==> Input File <==

--------------------------------------------------------------------------
#psi4
#
memory 32 gb

molecule  {
0 1
  O        3.1477550    -1.4485350    -0.2143050
  N        0.9062980    -1.2504610    -0.5893500
  N        1.5545360     1.4658350     0.3351760
  C       -0.6961080     0.5074870     0.0337420
  C       -0.3911060    -0.8453020    -0.2363150
  C        0.3345050     1.5654110    -0.0838510
  C        1.9201190     0.2388570     1.0398190
  C       -2.0756343     0.8544516     0.3479876
  C       -1.4126000    -1.8085370    -0.2310830
  C        2.0871850    -0.8915250     0.0446260
  C       -0.0584500     2.8482670    -0.7690020
  C       -3.0319510    -0.1194250     0.3623450
  C       -2.7230760    -1.4503270     0.0616580
  H        0.9974690    -2.0891180    -1.1576180
  H        1.1650960    -0.0456930     1.7889680
  H        2.8821530     0.3846540     1.5322680
  H       -2.2754030     1.8777800     0.5574090
  H       -1.1609050    -2.8458310    -0.4446670
  H       -0.7945500     3.4046450    -0.1790500
  H       -0.5037450     2.6486950    -1.7485080
  H        0.8332190     3.4662990    -0.8854880
  H       -4.0517820     0.1644530     0.6082680
  H       -3.5008180    -2.2099170     0.0672390
units angstrom
no_reorient  #important for SAPT in psi4, default
symmetry c1  #important for SAPT in psi4, default
}

set PROPERTIES_ORIGIN ["COM"]
properties('MP2/aug-cc-pvtz', properties = ['dipole'])
--------------------------------------------------------------------------

    Molecular point group: c1
  Charge       = 0
  Multiplicity = 1
  Basis Set: AUG-CC-PVTZ
    Blend: AUG-CC-PVTZ
  Basis Set: (AUG-CC-PVTZ AUX)
    Blend: AUG-CC-PVTZ-JKFIT

    Orbital Energies [Eh]
    ---------------------

    Doubly Occupied:

       1A    -20.531918     2A    -15.607085     3A    -15.566540
       4A    -11.362369     5A    -11.314394     6A    -11.301969
       7A    -11.269447     8A    -11.266526     9A    -11.266478
      10A    -11.266389    11A    -11.259687    12A    -11.251915
      13A    -11.234141    14A     -1.387238    15A     -1.275432
      16A     -1.232438    17A     -1.162880    18A     -1.062578
      19A     -1.038557    20A     -1.009290    21A     -0.951716
      22A     -0.888401    23A     -0.856417    24A     -0.794851
      25A     -0.766331    26A     -0.731227    27A     -0.690955
      28A     -0.677377    29A     -0.659381    30A     -0.648691
      31A     -0.624525    32A     -0.618063    33A     -0.605841
      34A     -0.586234    35A     -0.567086    36A     -0.560925
      37A     -0.544138    38A     -0.534838    39A     -0.526701
      40A     -0.516552    41A     -0.457037    42A     -0.445366
      43A     -0.417216    44A     -0.404182    45A     -0.351908
      46A     -0.334594

  @DF-RHF Final Energy:  -568.46249129609100

   => Energetics <=

    Nuclear Repulsion Energy =            759.9183510599556257
    One-Electron Energy =               -2279.9060431562224949
    Two-Electron Energy =                 951.5252008001759805
    Total Energy =                       -568.4624912960910024
  Basis Set: (AUG-CC-PVTZ AUX)
    Blend: AUG-CC-PVTZ-RI
    Molecular point group: c1

    Geometry (in Angstrom), charge = 0, multiplicity = 1:

       Center              X                  Y                   Z               Mass
    ------------   -----------------  -----------------  -----------------  -----------------
         O            3.114537389752    -1.422295111323    -0.214259152905    15.994914619570
         N            0.873080389752    -1.224221111323    -0.589304152905    14.003074004430
         N            1.521318389752     1.492074888677     0.335221847095    14.003074004430
         C           -0.729325610248     0.533726888677     0.033787847095    12.000000000000
         C           -0.424323610248    -0.819062111323    -0.236269152905    12.000000000000
         C            0.301287389752     1.591650888677    -0.083805152905    12.000000000000
         C            1.886901389752     0.265096888677     1.039864847095    12.000000000000
         C           -2.108851910248     0.880691488677     0.348033447095    12.000000000000
         C           -1.445817610248    -1.782297111323    -0.231037152905    12.000000000000
         C            2.053967389752    -0.865285111323     0.044671847095    12.000000000000
         C           -0.091667610248     2.874506888677    -0.768956152905    12.000000000000
         C           -3.065168610248    -0.093185111323     0.362390847095    12.000000000000
         C           -2.756293610248    -1.424087111323     0.061703847095    12.000000000000
         H            0.964251389752    -2.062878111323    -1.157572152905     1.007825032230
         H            1.131878389752    -0.019453111323     1.789013847095     1.007825032230
         H            2.848935389752     0.410893888677     1.532313847095     1.007825032230
         H           -2.308620610248     1.904019888677     0.557454847095     1.007825032230
         H           -1.194122610248    -2.819591111323    -0.444621152905     1.007825032230
         H           -0.827767610248     3.430884888677    -0.179004152905     1.007825032230
         H           -0.536962610248     2.674934888677    -1.748462152905     1.007825032230
         H            0.800001389752     3.492538888677    -0.885442152905     1.007825032230
         H           -4.084999610248     0.190692888677     0.608313847095     1.007825032230
         H           -3.534035610248    -2.183677111323     0.067284847095     1.007825032230

  Basis Set: AUG-CC-PVTZ
    Blend: AUG-CC-PVTZ
  Basis Set: (AUG-CC-PVTZ AUX)
    Blend: AUG-CC-PVTZ-JKFIT
	 Reference Energy          =    -568.4624912960910024 [Eh]
	 Singles Energy            =      -0.0000000000000000 [Eh]
	 Same-Spin Energy          =      -0.6144006358538405 [Eh]
	 Opposite-Spin Energy      =      -1.8873633492315243 [Eh]
	 Correlation Energy        =      -2.5017639850853648 [Eh]
	 Total Energy              =    -570.9642552811764062 [Eh]

	 ================> DF-SCS-MP2 Energies <==================
	-----------------------------------------------------------
	 SCS Same-Spin Scale       =       0.3333333333333333 [-]
	 SCS Opposite-Spin Scale   =       1.2000000000000000 [-]
	 SCS Same-Spin Energy      =      -0.2048002119512802 [Eh]
	 SCS Opposite-Spin Energy  =      -2.2648360190778289 [Eh]
	 SCS Correlation Energy    =      -2.4696362310291091 [Eh]
	 SCS Total Energy          =    -570.9321275271200875 [Eh]
	-----------------------------------------------------------

  Dipole Moment: [D]
     X:    -5.1332      Y:    -0.2513      Z:     0.2232     Total:     5.1442

*** Psi4 exiting successfully. Buy a developer a beer!
