                               Psi4 1.3.2 release

  ==> Input File <==

--------------------------------------------------------------------------
#psi4
#
memory 32 gb

molecule  {
0 1
  O        3.1477550    -1.4485350    -0.2143050
  N        0.9062980    -1.2504610    -0.5893500
  N        1.5545360     1.4658350     0.3351760
  C       -0.6961080     0.5074870     0.0337420
  C       -0.3749022    -0.8628276    -0.2418618
  C        0.3345050     1.5654110    -0.0838510
  C        1.9201190     0.2388570     1.0398190
  C       -2.0282860     0.8425430     0.3372020
  C       -1.4126000    -1.8085370    -0.2310830
  C        2.0871850    -0.8915250     0.0446260
  C       -0.0584500     2.8482670    -0.7690020
  C       -3.0319510    -0.1194250     0.3623450
  C       -2.7230760    -1.4503270     0.0616580
  H        0.9974690    -2.0891180    -1.1576180
  H        1.1650960    -0.0456930     1.7889680
  H        2.8821530     0.3846540     1.5322680
  H       -2.2754030     1.8777800     0.5574090
  H       -1.1609050    -2.8458310    -0.4446670
  H       -0.7945500     3.4046450    -0.1790500
  H       -0.5037450     2.6486950    -1.7485080
  H        0.8332190     3.4662990    -0.8854880
  H       -4.0517820     0.1644530     0.6082680
  H       -3.5008180    -2.2099170     0.0672390
units angstrom
no_reorient  #important for SAPT in psi4, default
symmetry c1  #important for SAPT in psi4, default
}

set PROPERTIES_ORIGIN ["COM"]
properties('MP2/aug-cc-pvtz', properties = ['dipole'])
--------------------------------------------------------------------------

    Molecular point group: c1
  Charge       = 0
  Multiplicity = 1
  Basis Set: AUG-CC-PVTZ
    Blend: AUG-CC-PVTZ
  Basis Set: (AUG-CC-PVTZ AUX)
    Blend: AUG-CC-PVTZ-JKFIT

    Orbital Energies [Eh]
    ---------------------

    Doubly Occupied:

       1A    -20.534144     2A    -15.608899     3A    -15.566595
       4A    -11.364383     5A    -11.315412     6A    -11.301939
       7A    -11.267501     8A    -11.267284     9A    -11.265704
      10A    -11.265177    11A    -11.257318    12A    -11.252858
      13A    -11.233829    14A     -1.389676    15A     -1.280435
      16A     -1.234682    17A     -1.162653    18A     -1.064285
      19A     -1.035340    20A     -1.009183    21A     -0.952199
      22A     -0.886812    23A     -0.858259    24A     -0.797087
      25A     -0.766642    26A     -0.732323    27A     -0.692206
      28A     -0.678640    29A     -0.658178    30A     -0.645606
      31A     -0.625457    32A     -0.618671    33A     -0.606812
      34A     -0.586350    35A     -0.568476    36A     -0.558637
      37A     -0.543518    38A     -0.538865    39A     -0.526758
      40A     -0.512970    41A     -0.458933    42A     -0.447068
      43A     -0.417124    44A     -0.405856    45A     -0.354312
      46A     -0.329238

  @DF-RHF Final Energy:  -568.46438870983775

   => Energetics <=

    Nuclear Repulsion Energy =            760.6492565170664193
    One-Electron Energy =               -2281.3387058537555276
    Two-Electron Energy =                 952.2250606268512456
    Total Energy =                       -568.4643887098377490
  Basis Set: (AUG-CC-PVTZ AUX)
    Blend: AUG-CC-PVTZ-RI
    Molecular point group: c1

    Geometry (in Angstrom), charge = 0, multiplicity = 1:

       Center              X                  Y                   Z               Mass
    ------------   -----------------  -----------------  -----------------  -----------------
         O            3.110156483215    -1.420266091367    -0.213133293682    15.994914619570
         N            0.868699483215    -1.222192091367    -0.588178293682    14.003074004430
         N            1.516937483215     1.494103908633     0.336347706318    14.003074004430
         C           -0.733706516785     0.535755908633     0.034913706318    12.000000000000
         C           -0.412500716785    -0.834558691367    -0.240690093682    12.000000000000
         C            0.296906483215     1.593679908633    -0.082679293682    12.000000000000
         C            1.882520483215     0.267125908633     1.040990706318    12.000000000000
         C           -2.065884516785     0.870811908633     0.338373706318    12.000000000000
         C           -1.450198516785    -1.780268091367    -0.229911293682    12.000000000000
         C            2.049586483215    -0.863256091367     0.045797706318    12.000000000000
         C           -0.096048516785     2.876535908633    -0.767830293682    12.000000000000
         C           -3.069549516785    -0.091156091367     0.363516706318    12.000000000000
         C           -2.760674516785    -1.422058091367     0.062829706318    12.000000000000
         H            0.959870483215    -2.060849091367    -1.156446293682     1.007825032230
         H            1.127497483215    -0.017424091367     1.790139706318     1.007825032230
         H            2.844554483215     0.412922908633     1.533439706318     1.007825032230
         H           -2.313001516785     1.906048908633     0.558580706318     1.007825032230
         H           -1.198503516785    -2.817562091367    -0.443495293682     1.007825032230
         H           -0.832148516785     3.432913908633    -0.177878293682     1.007825032230
         H           -0.541343516785     2.676963908633    -1.747336293682     1.007825032230
         H            0.795620483215     3.494567908633    -0.884316293682     1.007825032230
         H           -4.089380516785     0.192721908633     0.609439706318     1.007825032230
         H           -3.538416516785    -2.181648091367     0.068410706318     1.007825032230

  Basis Set: AUG-CC-PVTZ
    Blend: AUG-CC-PVTZ
  Basis Set: (AUG-CC-PVTZ AUX)
    Blend: AUG-CC-PVTZ-JKFIT
	 Reference Energy          =    -568.4643887098377490 [Eh]
	 Singles Energy            =      -0.0000000000000000 [Eh]
	 Same-Spin Energy          =      -0.6147464241573344 [Eh]
	 Opposite-Spin Energy      =      -1.8874244689704933 [Eh]
	 Correlation Energy        =      -2.5021708931278277 [Eh]
	 Total Energy              =    -570.9665596029656172 [Eh]

	 ================> DF-SCS-MP2 Energies <==================
	-----------------------------------------------------------
	 SCS Same-Spin Scale       =       0.3333333333333333 [-]
	 SCS Opposite-Spin Scale   =       1.2000000000000000 [-]
	 SCS Same-Spin Energy      =      -0.2049154747191115 [Eh]
	 SCS Opposite-Spin Energy  =      -2.2649093627645920 [Eh]
	 SCS Correlation Energy    =      -2.4698248374837033 [Eh]
	 SCS Total Energy          =    -570.9342135473214057 [Eh]
	-----------------------------------------------------------

  Dipole Moment: [D]
     X:    -5.0047      Y:    -0.2758      Z:     0.2109     Total:     5.0168

*** Psi4 exiting successfully. Buy a developer a beer!
