                               Psi4 1.3.2 release

  ==> Input File <==

--------------------------------------------------------------------------
#psi4
#
memory 32 gb

molecule  {
0 1
  O        3.1477550    -1.4485350    -0.2143050
  N        0.8945919    -1.2334310    -0.5767247
  N        1.5545360     1.4658350     0.3351760
  C       -0.6961080     0.5074870     0.0337420
  C       -0.3911060    -0.8453020    -0.2363150
  C        0.3345050     1.5654110    -0.0838510
  C        1.9201190     0.2388570     1.0398190
  C       -2.0282860     0.8425430     0.3372020
  C       -1.4126000    -1.8085370    -0.2310830
  C        2.0871850    -0.8915250     0.0446260
  C       -0.0584500     2.8482670    -0.7690020
  C       -3.0319510    -0.1194250     0.3623450
  C       -2.7230760    -1.4503270     0.0616580
  H        0.9974690    -2.0891180    -1.1576180
  H        1.1650960    -0.0456930     1.7889680
  H        2.8821530     0.3846540     1.5322680
  H       -2.2754030     1.8777800     0.5574090
  H       -1.1609050    -2.8458310    -0.4446670
  H       -0.7945500     3.4046450    -0.1790500
  H       -0.5037450     2.6486950    -1.7485080
  H        0.8332190     3.4662990    -0.8854880
  H       -4.0517820     0.1644530     0.6082680
  H       -3.5008180    -2.2099170     0.0672390
units angstrom
no_reorient  #important for SAPT in psi4, default
symmetry c1  #important for SAPT in psi4, default
}

set PROPERTIES_ORIGIN ["COM"]
properties('MP2/aug-cc-pvtz', properties = ['dipole'])
--------------------------------------------------------------------------

    Molecular point group: c1
  Charge       = 0
  Multiplicity = 1
  Basis Set: AUG-CC-PVTZ
    Blend: AUG-CC-PVTZ
  Basis Set: (AUG-CC-PVTZ AUX)
    Blend: AUG-CC-PVTZ-JKFIT

    Orbital Energies [Eh]
    ---------------------

    Doubly Occupied:

       1A    -20.534231     2A    -15.609163     3A    -15.566767
       4A    -11.363951     5A    -11.313481     6A    -11.302022
       7A    -11.266372     8A    -11.266187     9A    -11.265244
      10A    -11.264649    11A    -11.257721    12A    -11.252987
      13A    -11.233974    14A     -1.388534    15A     -1.279798
      16A     -1.233315    17A     -1.164037    18A     -1.065355
      19A     -1.035521    20A     -1.010117    21A     -0.951450
      22A     -0.886597    23A     -0.859643    24A     -0.793961
      25A     -0.767086    26A     -0.729396    27A     -0.691715
      28A     -0.678314    29A     -0.657743    30A     -0.647133
      31A     -0.626010    32A     -0.617972    33A     -0.604688
      34A     -0.586349    35A     -0.567587    36A     -0.558660
      37A     -0.543458    38A     -0.538773    39A     -0.527773
      40A     -0.514287    41A     -0.458763    42A     -0.446329
      43A     -0.417423    44A     -0.405320    45A     -0.354648
      46A     -0.330737

  @DF-RHF Final Energy:  -568.46373536248609

   => Energetics <=

    Nuclear Repulsion Energy =            761.2276475871458388
    One-Electron Energy =               -2282.5122860757351191
    Two-Electron Energy =                 952.8209031261031896
    Total Energy =                       -568.4637353624860907
  Basis Set: (AUG-CC-PVTZ AUX)
    Blend: AUG-CC-PVTZ-RI
    Molecular point group: c1

    Geometry (in Angstrom), charge = 0, multiplicity = 1:

       Center              X                  Y                   Z               Mass
    ------------   -----------------  -----------------  -----------------  -----------------
         O            3.112215125213    -1.422844109068    -0.214531246179    15.994914619570
         N            0.859052025213    -1.207740109068    -0.576950946179    14.003074004430
         N            1.518996125213     1.491525890932     0.334949753821    14.003074004430
         C           -0.731647874787     0.533177890932     0.033515753821    12.000000000000
         C           -0.426645874787    -0.819611109068    -0.236541246179    12.000000000000
         C            0.298965125213     1.591101890932    -0.084077246179    12.000000000000
         C            1.884579125213     0.264547890932     1.039592753821    12.000000000000
         C           -2.063825874787     0.868233890932     0.336975753821    12.000000000000
         C           -1.448139874787    -1.782846109068    -0.231309246179    12.000000000000
         C            2.051645125213    -0.865834109068     0.044399753821    12.000000000000
         C           -0.093989874787     2.873957890932    -0.769228246179    12.000000000000
         C           -3.067490874787    -0.093734109068     0.362118753821    12.000000000000
         C           -2.758615874787    -1.424636109068     0.061431753821    12.000000000000
         H            0.961929125213    -2.063427109068    -1.157844246179     1.007825032230
         H            1.129556125213    -0.020002109068     1.788741753821     1.007825032230
         H            2.846613125213     0.410344890932     1.532041753821     1.007825032230
         H           -2.310942874787     1.903470890932     0.557182753821     1.007825032230
         H           -1.196444874787    -2.820140109068    -0.444893246179     1.007825032230
         H           -0.830089874787     3.430335890932    -0.179276246179     1.007825032230
         H           -0.539284874787     2.674385890932    -1.748734246179     1.007825032230
         H            0.797679125213     3.491989890932    -0.885714246179     1.007825032230
         H           -4.087321874787     0.190143890932     0.608041753821     1.007825032230
         H           -3.536357874787    -2.184226109068     0.067012753821     1.007825032230

  Basis Set: AUG-CC-PVTZ
    Blend: AUG-CC-PVTZ
  Basis Set: (AUG-CC-PVTZ AUX)
    Blend: AUG-CC-PVTZ-JKFIT
	 Reference Energy          =    -568.4637353624860907 [Eh]
	 Singles Energy            =      -0.0000000000000000 [Eh]
	 Same-Spin Energy          =      -0.6149534561205223 [Eh]
	 Opposite-Spin Energy      =      -1.8877918576095269 [Eh]
	 Correlation Energy        =      -2.5027453137300490 [Eh]
	 Total Energy              =    -570.9664806762161788 [Eh]

	 ================> DF-SCS-MP2 Energies <==================
	-----------------------------------------------------------
	 SCS Same-Spin Scale       =       0.3333333333333333 [-]
	 SCS Opposite-Spin Scale   =       1.2000000000000000 [-]
	 SCS Same-Spin Energy      =      -0.2049844853735074 [Eh]
	 SCS Opposite-Spin Energy  =      -2.2653502291314322 [Eh]
	 SCS Correlation Energy    =      -2.4703347145049399 [Eh]
	 SCS Total Energy          =    -570.9340700769910200 [Eh]
	-----------------------------------------------------------

  Dipole Moment: [D]
     X:    -5.0511      Y:    -0.2791      Z:     0.2029     Total:     5.0629

*** Psi4 exiting successfully. Buy a developer a beer!
