                               Psi4 1.3.2 release

  ==> Input File <==

--------------------------------------------------------------------------
#psi4
#
memory 32 gb

molecule  {
0 1
  O        3.1477550    -1.4485350    -0.2143050
  N        0.9062980    -1.2504610    -0.5893500
  N        1.5545360     1.4658350     0.3351760
  C       -0.6961080     0.5074870     0.0337420
  C       -0.3911060    -0.8453020    -0.2363150
  C        0.3345050     1.5654110    -0.0838510
  C        1.9201190     0.2388570     1.0398190
  C       -2.0282860     0.8425430     0.3372020
  C       -1.4126000    -1.8085370    -0.2310830
  C        2.0871850    -0.8915250     0.0446260
  C       -0.0584500     2.8482670    -0.7690020
  C       -3.0319510    -0.1194250     0.3623450
  C       -2.7230760    -1.4503270     0.0616580
  H        0.9974690    -2.0891180    -1.1576180
  H        1.0893908    -0.0499701     1.7021802
  H        2.8821530     0.3846540     1.5322680
  H       -2.2754030     1.8777800     0.5574090
  H       -1.1609050    -2.8458310    -0.4446670
  H       -0.7945500     3.4046450    -0.1790500
  H       -0.5037450     2.6486950    -1.7485080
  H        0.8332190     3.4662990    -0.8854880
  H       -4.0517820     0.1644530     0.6082680
  H       -3.5008180    -2.2099170     0.0672390
units angstrom
no_reorient  #important for SAPT in psi4, default
symmetry c1  #important for SAPT in psi4, default
}

set PROPERTIES_ORIGIN ["COM"]
properties('MP2/aug-cc-pvtz', properties = ['dipole'])
--------------------------------------------------------------------------

    Molecular point group: c1
  Charge       = 0
  Multiplicity = 1
  Basis Set: AUG-CC-PVTZ
    Blend: AUG-CC-PVTZ
  Basis Set: (AUG-CC-PVTZ AUX)
    Blend: AUG-CC-PVTZ-JKFIT

    Orbital Energies [Eh]
    ---------------------

    Doubly Occupied:

       1A    -20.531923     2A    -15.607215     3A    -15.566591
       4A    -11.361892     5A    -11.314766     6A    -11.301652
       7A    -11.267484     8A    -11.267149     9A    -11.265930
      10A    -11.265876    11A    -11.258619    12A    -11.254135
      13A    -11.233956    14A     -1.387388    15A     -1.276502
      16A     -1.233086    17A     -1.164940    18A     -1.065803
      19A     -1.035608    20A     -1.011601    21A     -0.951495
      22A     -0.885822    23A     -0.858474    24A     -0.794569
      25A     -0.768428    26A     -0.728391    27A     -0.691833
      28A     -0.678546    29A     -0.657978    30A     -0.647517
      31A     -0.626350    32A     -0.619905    33A     -0.604581
      34A     -0.586314    35A     -0.566543    36A     -0.558869
      37A     -0.543000    38A     -0.541541    39A     -0.528163
      40A     -0.517052    41A     -0.457573    42A     -0.444803
      43A     -0.415512    44A     -0.405006    45A     -0.355179
      46A     -0.332704

  @DF-RHF Final Energy:  -568.46393400686907

   => Energetics <=

    Nuclear Repulsion Energy =            761.0965687336068868
    One-Electron Energy =               -2282.2444758793008077
    Two-Electron Energy =                 952.6839731388247401
    Total Energy =                       -568.4639340068690672
  Basis Set: (AUG-CC-PVTZ AUX)
    Blend: AUG-CC-PVTZ-RI
    Molecular point group: c1

    Geometry (in Angstrom), charge = 0, multiplicity = 1:

       Center              X                  Y                   Z               Mass
    ------------   -----------------  -----------------  -----------------  -----------------
         O            3.111711769659    -1.421449440658    -0.213013202920    15.994914619570
         N            0.870254769659    -1.223375440658    -0.588058202920    14.003074004430
         N            1.518492769659     1.492920559342     0.336467797080    14.003074004430
         C           -0.732151230341     0.534572559342     0.035033797080    12.000000000000
         C           -0.427149230341    -0.818216440658    -0.235023202920    12.000000000000
         C            0.298461769659     1.592496559342    -0.082559202920    12.000000000000
         C            1.884075769659     0.265942559342     1.041110797080    12.000000000000
         C           -2.064329230341     0.869628559342     0.338493797080    12.000000000000
         C           -1.448643230341    -1.781451440658    -0.229791202920    12.000000000000
         C            2.051141769659    -0.864439440658     0.045917797080    12.000000000000
         C           -0.094493230341     2.875352559342    -0.767710202920    12.000000000000
         C           -3.067994230341    -0.092339440658     0.363636797080    12.000000000000
         C           -2.759119230341    -1.423241440658     0.062949797080    12.000000000000
         H            0.961425769659    -2.062032440658    -1.156326202920     1.007825032230
         H            1.053347569659    -0.022884540658     1.703471997080     1.007825032230
         H            2.846109769659     0.411739559342     1.533559797080     1.007825032230
         H           -2.311446230341     1.904865559342     0.558700797080     1.007825032230
         H           -1.196948230341    -2.818745440658    -0.443375202920     1.007825032230
         H           -0.830593230341     3.431730559342    -0.177758202920     1.007825032230
         H           -0.539788230341     2.675780559342    -1.747216202920     1.007825032230
         H            0.797175769659     3.493384559342    -0.884196202920     1.007825032230
         H           -4.087825230341     0.191538559342     0.609559797080     1.007825032230
         H           -3.536861230341    -2.182831440658     0.068530797080     1.007825032230

  Basis Set: AUG-CC-PVTZ
    Blend: AUG-CC-PVTZ
  Basis Set: (AUG-CC-PVTZ AUX)
    Blend: AUG-CC-PVTZ-JKFIT
	 Reference Energy          =    -568.4639340068690672 [Eh]
	 Singles Energy            =      -0.0000000000000000 [Eh]
	 Same-Spin Energy          =      -0.6148192405926938 [Eh]
	 Opposite-Spin Energy      =      -1.8876013605130839 [Eh]
	 Correlation Energy        =      -2.5024206011057775 [Eh]
	 Total Energy              =    -570.9663546079748357 [Eh]

	 ================> DF-SCS-MP2 Energies <==================
	-----------------------------------------------------------
	 SCS Same-Spin Scale       =       0.3333333333333333 [-]
	 SCS Opposite-Spin Scale   =       1.2000000000000000 [-]
	 SCS Same-Spin Energy      =      -0.2049397468642312 [Eh]
	 SCS Opposite-Spin Energy  =      -2.2651216326157004 [Eh]
	 SCS Correlation Energy    =      -2.4700613794799318 [Eh]
	 SCS Total Energy          =    -570.9339953863490109 [Eh]
	-----------------------------------------------------------

  Dipole Moment: [D]
     X:    -5.1408      Y:    -0.2580      Z:     0.1882     Total:     5.1508

*** Psi4 exiting successfully. Buy a developer a beer!
