                               Psi4 1.3.2 release

  ==> Input File <==

--------------------------------------------------------------------------
#psi4
#
memory 32 gb

molecule  {
0 1
  O        3.1477550    -1.4485350    -0.2143050
  N        0.9062980    -1.2504610    -0.5893500
  N        1.5545360     1.4658350     0.3351760
  C       -0.6961080     0.5074870     0.0337420
  C       -0.3817542    -0.8322034    -0.2178306
  C        0.3345050     1.5654110    -0.0838510
  C        1.9201190     0.2388570     1.0398190
  C       -2.0282860     0.8425430     0.3372020
  C       -1.4126000    -1.8085370    -0.2310830
  C        2.0871850    -0.8915250     0.0446260
  C       -0.0584500     2.8482670    -0.7690020
  C       -3.0319510    -0.1194250     0.3623450
  C       -2.7230760    -1.4503270     0.0616580
  H        0.9974690    -2.0891180    -1.1576180
  H        1.1650960    -0.0456930     1.7889680
  H        2.8821530     0.3846540     1.5322680
  H       -2.2754030     1.8777800     0.5574090
  H       -1.1609050    -2.8458310    -0.4446670
  H       -0.7945500     3.4046450    -0.1790500
  H       -0.5037450     2.6486950    -1.7485080
  H        0.8332190     3.4662990    -0.8854880
  H       -4.0517820     0.1644530     0.6082680
  H       -3.5008180    -2.2099170     0.0672390
units angstrom
no_reorient  #important for SAPT in psi4, default
symmetry c1  #important for SAPT in psi4, default
}

set PROPERTIES_ORIGIN ["COM"]
properties('MP2/aug-cc-pvtz', properties = ['dipole'])
--------------------------------------------------------------------------

    Molecular point group: c1
  Charge       = 0
  Multiplicity = 1
  Basis Set: AUG-CC-PVTZ
    Blend: AUG-CC-PVTZ
  Basis Set: (AUG-CC-PVTZ AUX)
    Blend: AUG-CC-PVTZ-JKFIT

    Orbital Energies [Eh]
    ---------------------

    Doubly Occupied:

       1A    -20.532026     2A    -15.607341     3A    -15.567050
       4A    -11.362048     5A    -11.314567     6A    -11.302251
       7A    -11.267028     8A    -11.266530     9A    -11.265190
      10A    -11.264673    11A    -11.259889    12A    -11.253879
      13A    -11.234184    14A     -1.387410    15A     -1.276472
      16A     -1.232756    17A     -1.164522    18A     -1.066018
      19A     -1.033261    20A     -1.012453    21A     -0.951582
      22A     -0.884688    23A     -0.859091    24A     -0.794714
      25A     -0.768724    26A     -0.728574    27A     -0.691905
      28A     -0.677768    29A     -0.657029    30A     -0.649882
      31A     -0.625704    32A     -0.618134    33A     -0.604343
      34A     -0.586489    35A     -0.566636    36A     -0.558711
      37A     -0.543197    38A     -0.539391    39A     -0.527845
      40A     -0.515861    41A     -0.457448    42A     -0.444461
      43A     -0.417592    44A     -0.405143    45A     -0.355025
      46A     -0.332301

  @DF-RHF Final Energy:  -568.46506157341503

   => Energetics <=

    Nuclear Repulsion Energy =            760.9166183478542962
    One-Electron Energy =               -2281.8997853571208907
    Two-Electron Energy =                 952.5181054358516803
    Total Energy =                       -568.4650615734150279
  Basis Set: (AUG-CC-PVTZ AUX)
    Blend: AUG-CC-PVTZ-RI
    Molecular point group: c1

    Geometry (in Angstrom), charge = 0, multiplicity = 1:

       Center              X                  Y                   Z               Mass
    ------------   -----------------  -----------------  -----------------  -----------------
         O            3.110628819638    -1.422377142897    -0.214789862720    15.994914619570
         N            0.869171819638    -1.224303142897    -0.589834862720    14.003074004430
         N            1.517409819638     1.491992857103     0.334691137280    14.003074004430
         C           -0.733234180362     0.533644857103     0.033257137280    12.000000000000
         C           -0.418880380362    -0.806045542897    -0.218315462720    12.000000000000
         C            0.297378819638     1.591568857103    -0.084335862720    12.000000000000
         C            1.882992819638     0.265014857103     1.039334137280    12.000000000000
         C           -2.065412180362     0.868700857103     0.336717137280    12.000000000000
         C           -1.449726180362    -1.782379142897    -0.231567862720    12.000000000000
         C            2.050058819638    -0.865367142897     0.044141137280    12.000000000000
         C           -0.095576180362     2.874424857103    -0.769486862720    12.000000000000
         C           -3.069077180362    -0.093267142897     0.361860137280    12.000000000000
         C           -2.760202180362    -1.424169142897     0.061173137280    12.000000000000
         H            0.960342819638    -2.062960142897    -1.158102862720     1.007825032230
         H            1.127969819638    -0.019535142897     1.788483137280     1.007825032230
         H            2.845026819638     0.410811857103     1.531783137280     1.007825032230
         H           -2.312529180362     1.903937857103     0.556924137280     1.007825032230
         H           -1.198031180362    -2.819673142897    -0.445151862720     1.007825032230
         H           -0.831676180362     3.430802857103    -0.179534862720     1.007825032230
         H           -0.540871180362     2.674852857103    -1.748992862720     1.007825032230
         H            0.796092819638     3.492456857103    -0.885972862720     1.007825032230
         H           -4.088908180362     0.190610857103     0.607783137280     1.007825032230
         H           -3.537944180362    -2.183759142897     0.066754137280     1.007825032230

  Basis Set: AUG-CC-PVTZ
    Blend: AUG-CC-PVTZ
  Basis Set: (AUG-CC-PVTZ AUX)
    Blend: AUG-CC-PVTZ-JKFIT
	 Reference Energy          =    -568.4650615734150279 [Eh]
	 Singles Energy            =      -0.0000000000000000 [Eh]
	 Same-Spin Energy          =      -0.6144466105700004 [Eh]
	 Opposite-Spin Energy      =      -1.8872151513216524 [Eh]
	 Correlation Energy        =      -2.5016617618916528 [Eh]
	 Total Energy              =    -570.9667233353067104 [Eh]

	 ================> DF-SCS-MP2 Energies <==================
	-----------------------------------------------------------
	 SCS Same-Spin Scale       =       0.3333333333333333 [-]
	 SCS Opposite-Spin Scale   =       1.2000000000000000 [-]
	 SCS Same-Spin Energy      =      -0.2048155368566668 [Eh]
	 SCS Opposite-Spin Energy  =      -2.2646581815859830 [Eh]
	 SCS Correlation Energy    =      -2.4694737184426496 [Eh]
	 SCS Total Energy          =    -570.9345352918576282 [Eh]
	-----------------------------------------------------------

  Dipole Moment: [D]
     X:    -5.1177      Y:    -0.2448      Z:     0.2247     Total:     5.1285

*** Psi4 exiting successfully. Buy a developer a beer!
