                               Psi4 1.3.2 release

  ==> Input File <==

--------------------------------------------------------------------------
#psi4
#
memory 32 gb

molecule  {
0 1
  O        3.1049236    -1.4978311    -0.2695637
  N        0.9062980    -1.2504610    -0.5893500
  N        1.5545360     1.4658350     0.3351760
  C       -0.6961080     0.5074870     0.0337420
  C       -0.3911060    -0.8453020    -0.2363150
  C        0.3345050     1.5654110    -0.0838510
  C        1.9201190     0.2388570     1.0398190
  C       -2.0282860     0.8425430     0.3372020
  C       -1.4126000    -1.8085370    -0.2310830
  C        2.0871850    -0.8915250     0.0446260
  C       -0.0584500     2.8482670    -0.7690020
  C       -3.0319510    -0.1194250     0.3623450
  C       -2.7230760    -1.4503270     0.0616580
  H        0.9974690    -2.0891180    -1.1576180
  H        1.1650960    -0.0456930     1.7889680
  H        2.8821530     0.3846540     1.5322680
  H       -2.2754030     1.8777800     0.5574090
  H       -1.1609050    -2.8458310    -0.4446670
  H       -0.7945500     3.4046450    -0.1790500
  H       -0.5037450     2.6486950    -1.7485080
  H        0.8332190     3.4662990    -0.8854880
  H       -4.0517820     0.1644530     0.6082680
  H       -3.5008180    -2.2099170     0.0672390
units angstrom
no_reorient  #important for SAPT in psi4, default
symmetry c1  #important for SAPT in psi4, default
}

set PROPERTIES_ORIGIN ["COM"]
properties('MP2/aug-cc-pvtz', properties = ['dipole'])
--------------------------------------------------------------------------

    Molecular point group: c1
  Charge       = 0
  Multiplicity = 1
  Basis Set: AUG-CC-PVTZ
    Blend: AUG-CC-PVTZ
  Basis Set: (AUG-CC-PVTZ AUX)
    Blend: AUG-CC-PVTZ-JKFIT

    Orbital Energies [Eh]
    ---------------------

    Doubly Occupied:

       1A    -20.531337     2A    -15.602941     3A    -15.568062
       4A    -11.362770     5A    -11.312826     6A    -11.303628
       7A    -11.271095     8A    -11.266381     9A    -11.264992
      10A    -11.264919    11A    -11.257070    12A    -11.252946
      13A    -11.234752    14A     -1.389036    15A     -1.273601
      16A     -1.232523    17A     -1.163475    18A     -1.065977
      19A     -1.034534    20A     -1.011212    21A     -0.953544
      22A     -0.884964    23A     -0.856828    24A     -0.794740
      25A     -0.768073    26A     -0.727851    27A     -0.691545
      28A     -0.678244    29A     -0.657030    30A     -0.647735
      31A     -0.625816    32A     -0.618378    33A     -0.605680
      34A     -0.586789    35A     -0.566812    36A     -0.558880
      37A     -0.543688    38A     -0.539408    39A     -0.527817
      40A     -0.515403    41A     -0.457168    42A     -0.442303
      43A     -0.418926    44A     -0.407316    45A     -0.355022
      46A     -0.330579

  @DF-RHF Final Energy:  -568.46442963793208

   => Energetics <=

    Nuclear Repulsion Energy =            760.9301817719044720
    One-Electron Energy =               -2281.9399914342629927
    Two-Electron Energy =                 952.5453800244264357
    Total Energy =                       -568.4644296379320849
  Basis Set: (AUG-CC-PVTZ AUX)
    Blend: AUG-CC-PVTZ-RI
    Molecular point group: c1

    Geometry (in Angstrom), charge = 0, multiplicity = 1:

       Center              X                  Y                   Z               Mass
    ------------   -----------------  -----------------  -----------------  -----------------
         O            3.072377551375    -1.466240833413    -0.263697026919    15.994914619570
         N            0.873751951375    -1.218870733413    -0.583483326919    14.003074004430
         N            1.521989951375     1.497425266587     0.341042673081    14.003074004430
         C           -0.728654048625     0.539077266587     0.039608673081    12.000000000000
         C           -0.423652048625    -0.813711733413    -0.230448326919    12.000000000000
         C            0.301958951375     1.597001266587    -0.077984326919    12.000000000000
         C            1.887572951375     0.270447266587     1.045685673081    12.000000000000
         C           -2.060832048625     0.874133266587     0.343068673081    12.000000000000
         C           -1.445146048625    -1.776946733413    -0.225216326919    12.000000000000
         C            2.054638951375    -0.859934733413     0.050492673081    12.000000000000
         C           -0.090996048625     2.879857266587    -0.763135326919    12.000000000000
         C           -3.064497048625    -0.087834733413     0.368211673081    12.000000000000
         C           -2.755622048625    -1.418736733413     0.067524673081    12.000000000000
         H            0.964922951375    -2.057527733413    -1.151751326919     1.007825032230
         H            1.132549951375    -0.014102733413     1.794834673081     1.007825032230
         H            2.849606951375     0.416244266587     1.538134673081     1.007825032230
         H           -2.307949048625     1.909370266587     0.563275673081     1.007825032230
         H           -1.193451048625    -2.814240733413    -0.438800326919     1.007825032230
         H           -0.827096048625     3.436235266587    -0.173183326919     1.007825032230
         H           -0.536291048625     2.680285266587    -1.742641326919     1.007825032230
         H            0.800672951375     3.497889266587    -0.879621326919     1.007825032230
         H           -4.084328048625     0.196043266587     0.614134673081     1.007825032230
         H           -3.533364048625    -2.178326733413     0.073105673081     1.007825032230

  Basis Set: AUG-CC-PVTZ
    Blend: AUG-CC-PVTZ
  Basis Set: (AUG-CC-PVTZ AUX)
    Blend: AUG-CC-PVTZ-JKFIT
	 Reference Energy          =    -568.4644296379320849 [Eh]
	 Singles Energy            =      -0.0000000000000000 [Eh]
	 Same-Spin Energy          =      -0.6144760090666597 [Eh]
	 Opposite-Spin Energy      =      -1.8870981094314372 [Eh]
	 Correlation Energy        =      -2.5015741184980969 [Eh]
	 Total Energy              =    -570.9660037564301547 [Eh]

	 ================> DF-SCS-MP2 Energies <==================
	-----------------------------------------------------------
	 SCS Same-Spin Scale       =       0.3333333333333333 [-]
	 SCS Opposite-Spin Scale   =       1.2000000000000000 [-]
	 SCS Same-Spin Energy      =      -0.2048253363555532 [Eh]
	 SCS Opposite-Spin Energy  =      -2.2645177313177247 [Eh]
	 SCS Correlation Energy    =      -2.4693430676732779 [Eh]
	 SCS Total Energy          =    -570.9337727056054064 [Eh]
	-----------------------------------------------------------

  Dipole Moment: [D]
     X:    -5.0016      Y:    -0.1181      Z:     0.3475     Total:     5.0151

*** Psi4 exiting successfully. Buy a developer a beer!
