                               Psi4 1.3.2 release

  ==> Input File <==

--------------------------------------------------------------------------
#psi4
#
memory 32 gb

molecule  {
0 1
  O        3.1477550    -1.4485350    -0.2143050
  N        0.9062980    -1.2504610    -0.5893500
  N        1.5545360     1.4658350     0.3351760
  C       -0.6961080     0.5074870     0.0337420
  C       -0.4148019    -0.8511275    -0.2327697
  C        0.3345050     1.5654110    -0.0838510
  C        1.9201190     0.2388570     1.0398190
  C       -2.0282860     0.8425430     0.3372020
  C       -1.4126000    -1.8085370    -0.2310830
  C        2.0871850    -0.8915250     0.0446260
  C       -0.0584500     2.8482670    -0.7690020
  C       -3.0319510    -0.1194250     0.3623450
  C       -2.7230760    -1.4503270     0.0616580
  H        0.9974690    -2.0891180    -1.1576180
  H        1.1650960    -0.0456930     1.7889680
  H        2.8821530     0.3846540     1.5322680
  H       -2.2754030     1.8777800     0.5574090
  H       -1.1609050    -2.8458310    -0.4446670
  H       -0.7945500     3.4046450    -0.1790500
  H       -0.5037450     2.6486950    -1.7485080
  H        0.8332190     3.4662990    -0.8854880
  H       -4.0517820     0.1644530     0.6082680
  H       -3.5008180    -2.2099170     0.0672390
units angstrom
no_reorient  #important for SAPT in psi4, default
symmetry c1  #important for SAPT in psi4, default
}

set PROPERTIES_ORIGIN ["COM"]
properties('MP2/aug-cc-pvtz', properties = ['dipole'])
--------------------------------------------------------------------------

    Molecular point group: c1
  Charge       = 0
  Multiplicity = 1
  Basis Set: AUG-CC-PVTZ
    Blend: AUG-CC-PVTZ
  Basis Set: (AUG-CC-PVTZ AUX)
    Blend: AUG-CC-PVTZ-JKFIT

    Orbital Energies [Eh]
    ---------------------

    Doubly Occupied:

       1A    -20.530773     2A    -15.604925     3A    -15.567406
       4A    -11.361333     5A    -11.313252     6A    -11.302991
       7A    -11.267488     8A    -11.266575     9A    -11.266341
      10A    -11.266142    11A    -11.256964    12A    -11.254529
      13A    -11.234577    14A     -1.385616    15A     -1.271958
      16A     -1.231030    17A     -1.166373    18A     -1.066174
      19A     -1.037793    20A     -1.011415    21A     -0.951285
      22A     -0.886046    23A     -0.856406    24A     -0.794385
      25A     -0.768891    26A     -0.726269    27A     -0.690179
      28A     -0.677046    29A     -0.657708    30A     -0.648854
      31A     -0.627403    32A     -0.618035    33A     -0.603080
      34A     -0.586644    35A     -0.565611    36A     -0.558988
      37A     -0.544340    38A     -0.538319    39A     -0.528652
      40A     -0.516996    41A     -0.456543    42A     -0.442413
      43A     -0.418156    44A     -0.405246    45A     -0.355547
      46A     -0.334842

  @DF-RHF Final Energy:  -568.46502993036893

   => Energetics <=

    Nuclear Repulsion Energy =            760.6364587750774717
    One-Electron Energy =               -2281.3599051368760229
    Two-Electron Energy =                 952.2584164314296231
    Total Energy =                       -568.4650299303689280
  Basis Set: (AUG-CC-PVTZ AUX)
    Blend: AUG-CC-PVTZ-RI
    Molecular point group: c1

    Geometry (in Angstrom), charge = 0, multiplicity = 1:

       Center              X                  Y                   Z               Mass
    ------------   -----------------  -----------------  -----------------  -----------------
         O            3.112906932949    -1.421072627178    -0.213760049373    15.994914619570
         N            0.871449932949    -1.222998627178    -0.588805049373    14.003074004430
         N            1.519687932949     1.493297372822     0.335720950627    14.003074004430
         C           -0.730956067051     0.534949372822     0.034286950627    12.000000000000
         C           -0.449649967051    -0.823665127178    -0.232224749373    12.000000000000
         C            0.299656932949     1.592873372822    -0.083306049373    12.000000000000
         C            1.885270932949     0.266319372822     1.040363950627    12.000000000000
         C           -2.063134067051     0.870005372822     0.337746950627    12.000000000000
         C           -1.447448067051    -1.781074627178    -0.230538049373    12.000000000000
         C            2.052336932949    -0.864062627178     0.045170950627    12.000000000000
         C           -0.093298067051     2.875729372822    -0.768457049373    12.000000000000
         C           -3.066799067051    -0.091962627178     0.362889950627    12.000000000000
         C           -2.757924067051    -1.422864627178     0.062202950627    12.000000000000
         H            0.962620932949    -2.061655627178    -1.157073049373     1.007825032230
         H            1.130247932949    -0.018230627178     1.789512950627     1.007825032230
         H            2.847304932949     0.412116372822     1.532812950627     1.007825032230
         H           -2.310251067051     1.905242372822     0.557953950627     1.007825032230
         H           -1.195753067051    -2.818368627178    -0.444122049373     1.007825032230
         H           -0.829398067051     3.432107372822    -0.178505049373     1.007825032230
         H           -0.538593067051     2.676157372822    -1.747963049373     1.007825032230
         H            0.798370932949     3.493761372822    -0.884943049373     1.007825032230
         H           -4.086630067051     0.191915372822     0.608812950627     1.007825032230
         H           -3.535666067051    -2.182454627178     0.067783950627     1.007825032230

  Basis Set: AUG-CC-PVTZ
    Blend: AUG-CC-PVTZ
  Basis Set: (AUG-CC-PVTZ AUX)
    Blend: AUG-CC-PVTZ-JKFIT
	 Reference Energy          =    -568.4650299303689280 [Eh]
	 Singles Energy            =      -0.0000000000000000 [Eh]
	 Same-Spin Energy          =      -0.6142961459662115 [Eh]
	 Opposite-Spin Energy      =      -1.8870657660439938 [Eh]
	 Correlation Energy        =      -2.5013619120102053 [Eh]
	 Total Energy              =    -570.9663918423791529 [Eh]

	 ================> DF-SCS-MP2 Energies <==================
	-----------------------------------------------------------
	 SCS Same-Spin Scale       =       0.3333333333333333 [-]
	 SCS Opposite-Spin Scale   =       1.2000000000000000 [-]
	 SCS Same-Spin Energy      =      -0.2047653819887372 [Eh]
	 SCS Opposite-Spin Energy  =      -2.2644789192527925 [Eh]
	 SCS Correlation Energy    =      -2.4692443012415297 [Eh]
	 SCS Total Energy          =    -570.9342742316104022 [Eh]
	-----------------------------------------------------------

  Dipole Moment: [D]
     X:    -5.2166      Y:    -0.2143      Z:     0.2490     Total:     5.2269

*** Psi4 exiting successfully. Buy a developer a beer!
