                               Psi4 1.3.2 release

  ==> Input File <==

--------------------------------------------------------------------------
#psi4
#
memory 32 gb

molecule  {
0 1
  O        3.1477550    -1.4485350    -0.2143050
  N        0.9062980    -1.2504610    -0.5893500
  N        1.5545360     1.4658350     0.3351760
  C       -0.6961080     0.5074870     0.0337420
  C       -0.3272638    -0.9179037    -0.2202791
  C        0.3345050     1.5654110    -0.0838510
  C        1.9201190     0.2388570     1.0398190
  C       -2.0282860     0.8425430     0.3372020
  C       -1.4126000    -1.8085370    -0.2310830
  C        2.0871850    -0.8915250     0.0446260
  C       -0.0584500     2.8482670    -0.7690020
  C       -3.0319510    -0.1194250     0.3623450
  C       -2.7230760    -1.4503270     0.0616580
  H        0.9974690    -2.0891180    -1.1576180
  H        1.1650960    -0.0456930     1.7889680
  H        2.8821530     0.3846540     1.5322680
  H       -2.2754030     1.8777800     0.5574090
  H       -1.1609050    -2.8458310    -0.4446670
  H       -0.7945500     3.4046450    -0.1790500
  H       -0.5037450     2.6486950    -1.7485080
  H        0.8332190     3.4662990    -0.8854880
  H       -4.0517820     0.1644530     0.6082680
  H       -3.5008180    -2.2099170     0.0672390
units angstrom
no_reorient  #important for SAPT in psi4, default
symmetry c1  #important for SAPT in psi4, default
}

set PROPERTIES_ORIGIN ["COM"]
properties('MP2/aug-cc-pvtz', properties = ['dipole'])
--------------------------------------------------------------------------

    Molecular point group: c1
  Charge       = 0
  Multiplicity = 1
  Basis Set: AUG-CC-PVTZ
    Blend: AUG-CC-PVTZ
  Basis Set: (AUG-CC-PVTZ AUX)
    Blend: AUG-CC-PVTZ-JKFIT

    Orbital Energies [Eh]
    ---------------------

    Doubly Occupied:

       1A    -20.539256     2A    -15.613661     3A    -15.565236
       4A    -11.368650     5A    -11.318168     6A    -11.300807
       7A    -11.269380     8A    -11.268733     9A    -11.264726
      10A    -11.264598    11A    -11.255067    12A    -11.250451
      13A    -11.232823    14A     -1.395883    15A     -1.295003
      16A     -1.237679    17A     -1.157676    18A     -1.061356
      19A     -1.035676    20A     -1.003838    21A     -0.953555
      22A     -0.890303    23A     -0.859020    24A     -0.800883
      25A     -0.762612    26A     -0.741743    27A     -0.693734
      28A     -0.680985    29A     -0.660238    30A     -0.639385
      31A     -0.622996    32A     -0.619272    33A     -0.612229
      34A     -0.586358    35A     -0.571863    36A     -0.558000
      37A     -0.543467    38A     -0.538294    39A     -0.523821
      40A     -0.505156    41A     -0.462494    42A     -0.453047
      43A     -0.416054    44A     -0.406808    45A     -0.352819
      46A     -0.321158

  @DF-RHF Final Energy:  -568.45339642675913

   => Energetics <=

    Nuclear Repulsion Energy =            760.4708702073429549
    One-Electron Energy =               -2280.8986109568400025
    Two-Electron Energy =                 951.9743443227378066
    Total Energy =                       -568.4533964267591273
  Basis Set: (AUG-CC-PVTZ AUX)
    Blend: AUG-CC-PVTZ-RI
    Molecular point group: c1

    Geometry (in Angstrom), charge = 0, multiplicity = 1:

       Center              X                  Y                   Z               Mass
    ------------   -----------------  -----------------  -----------------  -----------------
         O            3.106872573195    -1.416469470224    -0.214621077587    15.994914619570
         N            0.865415573195    -1.218395470224    -0.589666077587    14.003074004430
         N            1.513653573195     1.497900529776     0.334859922413    14.003074004430
         C           -0.736990426805     0.539552529776     0.033425922413    12.000000000000
         C           -0.368146226805    -0.885838170224    -0.220595177587    12.000000000000
         C            0.293622573195     1.597476529776    -0.084167077587    12.000000000000
         C            1.879236573195     0.270922529776     1.039502922413    12.000000000000
         C           -2.069168426805     0.874608529776     0.336885922413    12.000000000000
         C           -1.453482426805    -1.776471470224    -0.231399077587    12.000000000000
         C            2.046302573195    -0.859459470224     0.044309922413    12.000000000000
         C           -0.099332426805     2.880332529776    -0.769318077587    12.000000000000
         C           -3.072833426805    -0.087359470224     0.362028922413    12.000000000000
         C           -2.763958426805    -1.418261470224     0.061341922413    12.000000000000
         H            0.956586573195    -2.057052470224    -1.157934077587     1.007825032230
         H            1.124213573195    -0.013627470224     1.788651922413     1.007825032230
         H            2.841270573195     0.416719529776     1.531951922413     1.007825032230
         H           -2.316285426805     1.909845529776     0.557092922413     1.007825032230
         H           -1.201787426805    -2.813765470224    -0.444983077587     1.007825032230
         H           -0.835432426805     3.436710529776    -0.179366077587     1.007825032230
         H           -0.544627426805     2.680760529776    -1.748824077587     1.007825032230
         H            0.792336573195     3.498364529776    -0.885804077587     1.007825032230
         H           -4.092664426805     0.196518529776     0.607951922413     1.007825032230
         H           -3.541700426805    -2.177851470224     0.066922922413     1.007825032230

  Basis Set: AUG-CC-PVTZ
    Blend: AUG-CC-PVTZ
  Basis Set: (AUG-CC-PVTZ AUX)
    Blend: AUG-CC-PVTZ-JKFIT
	 Reference Energy          =    -568.4533964267591273 [Eh]
	 Singles Energy            =      -0.0000000000000000 [Eh]
	 Same-Spin Energy          =      -0.6157013188864344 [Eh]
	 Opposite-Spin Energy      =      -1.8885550493305585 [Eh]
	 Correlation Energy        =      -2.5042563682169927 [Eh]
	 Total Energy              =    -570.9576527949760703 [Eh]

	 ================> DF-SCS-MP2 Energies <==================
	-----------------------------------------------------------
	 SCS Same-Spin Scale       =       0.3333333333333333 [-]
	 SCS Opposite-Spin Scale   =       1.2000000000000000 [-]
	 SCS Same-Spin Energy      =      -0.2052337729621448 [Eh]
	 SCS Opposite-Spin Energy  =      -2.2662660591966701 [Eh]
	 SCS Correlation Energy    =      -2.4714998321588149 [Eh]
	 SCS Total Energy          =    -570.9248962589178973 [Eh]
	-----------------------------------------------------------

  Dipole Moment: [D]
     X:    -4.7193      Y:    -0.3724      Z:     0.1701     Total:     4.7371

*** Psi4 exiting successfully. Buy a developer a beer!
