                               Psi4 1.3.2 release

  ==> Input File <==

--------------------------------------------------------------------------
#psi4
#
memory 32 gb

molecule  {
0 1
  O        3.1477550    -1.4485350    -0.2143050
  N        0.9062980    -1.2504610    -0.5893500
  N        1.5545360     1.4658350     0.3351760
  C       -0.7903654     0.4805219     0.0443591
  C       -0.3911060    -0.8453020    -0.2363150
  C        0.3345050     1.5654110    -0.0838510
  C        1.9201190     0.2388570     1.0398190
  C       -2.0282860     0.8425430     0.3372020
  C       -1.4126000    -1.8085370    -0.2310830
  C        2.0871850    -0.8915250     0.0446260
  C       -0.0584500     2.8482670    -0.7690020
  C       -3.0319510    -0.1194250     0.3623450
  C       -2.7230760    -1.4503270     0.0616580
  H        0.9974690    -2.0891180    -1.1576180
  H        1.1650960    -0.0456930     1.7889680
  H        2.8821530     0.3846540     1.5322680
  H       -2.2754030     1.8777800     0.5574090
  H       -1.1609050    -2.8458310    -0.4446670
  H       -0.7945500     3.4046450    -0.1790500
  H       -0.5037450     2.6486950    -1.7485080
  H        0.8332190     3.4662990    -0.8854880
  H       -4.0517820     0.1644530     0.6082680
  H       -3.5008180    -2.2099170     0.0672390
units angstrom
no_reorient  #important for SAPT in psi4, default
symmetry c1  #important for SAPT in psi4, default
}

set PROPERTIES_ORIGIN ["COM"]
properties('MP2/aug-cc-pvtz', properties = ['dipole'])
--------------------------------------------------------------------------

    Molecular point group: c1
  Charge       = 0
  Multiplicity = 1
  Basis Set: AUG-CC-PVTZ
    Blend: AUG-CC-PVTZ
  Basis Set: (AUG-CC-PVTZ AUX)
    Blend: AUG-CC-PVTZ-JKFIT

    Orbital Energies [Eh]
    ---------------------

    Doubly Occupied:

       1A    -20.533287     2A    -15.609009     3A    -15.568075
       4A    -11.363206     5A    -11.312364     6A    -11.306985
       7A    -11.267783     8A    -11.264275     9A    -11.261836
      10A    -11.256842    11A    -11.255496    12A    -11.252691
      13A    -11.233656    14A     -1.388232    15A     -1.274679
      16A     -1.231016    17A     -1.173757    18A     -1.063489
      19A     -1.039332    20A     -1.011748    21A     -0.951575
      22A     -0.876824    23A     -0.861898    24A     -0.794579
      25A     -0.767219    26A     -0.725974    27A     -0.692613
      28A     -0.677820    29A     -0.656903    30A     -0.645717
      31A     -0.633344    32A     -0.616309    33A     -0.604938
      34A     -0.585627    35A     -0.568229    36A     -0.559583
      37A     -0.543082    38A     -0.539662    39A     -0.531245
      40A     -0.508896    41A     -0.458864    42A     -0.445895
      43A     -0.412082    44A     -0.405042    45A     -0.364344
      46A     -0.329520

  @DF-RHF Final Energy:  -568.45571333476300

   => Energetics <=

    Nuclear Repulsion Energy =            760.5191832692931939
    One-Electron Energy =               -2281.0987046201130397
    Two-Electron Energy =                 952.1238080160569552
    Total Energy =                       -568.4557133347630042
  Basis Set: (AUG-CC-PVTZ AUX)
    Blend: AUG-CC-PVTZ-RI
    Molecular point group: c1

    Geometry (in Angstrom), charge = 0, multiplicity = 1:

       Center              X                  Y                   Z               Mass
    ------------   -----------------  -----------------  -----------------  -----------------
         O            3.117771026135    -1.419615387971    -0.214247537510    15.994914619570
         N            0.876314026135    -1.221541387971    -0.589292537510    14.003074004430
         N            1.524552026135     1.494754612029     0.335233462490    14.003074004430
         C           -0.820349373865     0.509441512029     0.044416562490    12.000000000000
         C           -0.421089973865    -0.816382387971    -0.236257537510    12.000000000000
         C            0.304521026135     1.594330612029    -0.083793537510    12.000000000000
         C            1.890135026135     0.267776612029     1.039876462490    12.000000000000
         C           -2.058269973865     0.871462612029     0.337259462490    12.000000000000
         C           -1.442583973865    -1.779617387971    -0.231025537510    12.000000000000
         C            2.057201026135    -0.862605387971     0.044683462490    12.000000000000
         C           -0.088433973865     2.877186612029    -0.768944537510    12.000000000000
         C           -3.061934973865    -0.090505387971     0.362402462490    12.000000000000
         C           -2.753059973865    -1.421407387971     0.061715462490    12.000000000000
         H            0.967485026135    -2.060198387971    -1.157560537510     1.007825032230
         H            1.135112026135    -0.016773387971     1.789025462490     1.007825032230
         H            2.852169026135     0.413573612029     1.532325462490     1.007825032230
         H           -2.305386973865     1.906699612029     0.557466462490     1.007825032230
         H           -1.190888973865    -2.816911387971    -0.444609537510     1.007825032230
         H           -0.824533973865     3.433564612029    -0.178992537510     1.007825032230
         H           -0.533728973865     2.677614612029    -1.748450537510     1.007825032230
         H            0.803235026135     3.495218612029    -0.885430537510     1.007825032230
         H           -4.081765973865     0.193372612029     0.608325462490     1.007825032230
         H           -3.530801973865    -2.180997387971     0.067296462490     1.007825032230

  Basis Set: AUG-CC-PVTZ
    Blend: AUG-CC-PVTZ
  Basis Set: (AUG-CC-PVTZ AUX)
    Blend: AUG-CC-PVTZ-JKFIT
	 Reference Energy          =    -568.4557133347630042 [Eh]
	 Singles Energy            =      -0.0000000000000000 [Eh]
	 Same-Spin Energy          =      -0.6138113795504194 [Eh]
	 Opposite-Spin Energy      =      -1.8864884774168733 [Eh]
	 Correlation Energy        =      -2.5002998569672927 [Eh]
	 Total Energy              =    -570.9560131917303352 [Eh]

	 ================> DF-SCS-MP2 Energies <==================
	-----------------------------------------------------------
	 SCS Same-Spin Scale       =       0.3333333333333333 [-]
	 SCS Opposite-Spin Scale   =       1.2000000000000000 [-]
	 SCS Same-Spin Energy      =      -0.2046037931834731 [Eh]
	 SCS Opposite-Spin Energy  =      -2.2637861729002480 [Eh]
	 SCS Correlation Energy    =      -2.4683899660837212 [Eh]
	 SCS Total Energy          =    -570.9241033008466957 [Eh]
	-----------------------------------------------------------

  Dipole Moment: [D]
     X:    -5.0093      Y:    -0.1711      Z:     0.2540     Total:     5.0187

*** Psi4 exiting successfully. Buy a developer a beer!
