                               Psi4 1.3.2 release

  ==> Input File <==

--------------------------------------------------------------------------
#psi4
#
memory 32 gb

molecule  {
0 1
  O        3.0816346    -1.5213859    -0.2966356
  N        0.9062980    -1.2504610    -0.5893500
  N        1.5545360     1.4658350     0.3351760
  C       -0.6961080     0.5074870     0.0337420
  C       -0.3911060    -0.8453020    -0.2363150
  C        0.3345050     1.5654110    -0.0838510
  C        1.9201190     0.2388570     1.0398190
  C       -2.0282860     0.8425430     0.3372020
  C       -1.4126000    -1.8085370    -0.2310830
  C        2.0871850    -0.8915250     0.0446260
  C       -0.0584500     2.8482670    -0.7690020
  C       -3.0319510    -0.1194250     0.3623450
  C       -2.7230760    -1.4503270     0.0616580
  H        0.9974690    -2.0891180    -1.1576180
  H        1.1650960    -0.0456930     1.7889680
  H        2.8821530     0.3846540     1.5322680
  H       -2.2754030     1.8777800     0.5574090
  H       -1.1609050    -2.8458310    -0.4446670
  H       -0.7945500     3.4046450    -0.1790500
  H       -0.5037450     2.6486950    -1.7485080
  H        0.8332190     3.4662990    -0.8854880
  H       -4.0517820     0.1644530     0.6082680
  H       -3.5008180    -2.2099170     0.0672390
units angstrom
no_reorient  #important for SAPT in psi4, default
symmetry c1  #important for SAPT in psi4, default
}

set PROPERTIES_ORIGIN ["COM"]
properties('MP2/aug-cc-pvtz', properties = ['dipole'])
--------------------------------------------------------------------------

    Molecular point group: c1
  Charge       = 0
  Multiplicity = 1
  Basis Set: AUG-CC-PVTZ
    Blend: AUG-CC-PVTZ
  Basis Set: (AUG-CC-PVTZ AUX)
    Blend: AUG-CC-PVTZ-JKFIT

    Orbital Energies [Eh]
    ---------------------

    Doubly Occupied:

       1A    -20.530800     2A    -15.600824     3A    -15.568524
       4A    -11.362909     5A    -11.311950     6A    -11.304206
       7A    -11.273094     8A    -11.266137     9A    -11.264629
      10A    -11.264574    11A    -11.256423    12A    -11.252493
      13A    -11.234995    14A     -1.390028    15A     -1.272415
      16A     -1.232158    17A     -1.162863    18A     -1.066165
      19A     -1.034162    20A     -1.011124    21A     -0.954423
      22A     -0.884555    23A     -0.856155    24A     -0.794408
      25A     -0.768041    26A     -0.727310    27A     -0.691560
      28A     -0.678486    29A     -0.656801    30A     -0.647355
      31A     -0.625626    32A     -0.618332    33A     -0.606106
      34A     -0.586931    35A     -0.566799    36A     -0.558877
      37A     -0.543735    38A     -0.539635    39A     -0.527767
      40A     -0.515287    41A     -0.456646    42A     -0.441094
      43A     -0.419538    44A     -0.408151    45A     -0.354993
      46A     -0.329674

  @DF-RHF Final Energy:  -568.46284315414391

   => Energetics <=

    Nuclear Repulsion Energy =            761.0655914000840312
    One-Electron Energy =               -2282.2193516165461915
    Two-Electron Energy =                 952.6909170623182490
    Total Energy =                       -568.4628431541439113
  Basis Set: (AUG-CC-PVTZ AUX)
    Blend: AUG-CC-PVTZ-RI
    Molecular point group: c1

    Geometry (in Angstrom), charge = 0, multiplicity = 1:

       Center              X                  Y                   Z               Mass
    ------------   -----------------  -----------------  -----------------  -----------------
         O            3.051228412570    -1.487631349740    -0.288281481847    15.994914619570
         N            0.875891812570    -1.216706449740    -0.580995881847    14.003074004430
         N            1.524129812570     1.499589550260     0.343530118153    14.003074004430
         C           -0.726514187430     0.541241550260     0.042096118153    12.000000000000
         C           -0.421512187430    -0.811547449740    -0.227960881847    12.000000000000
         C            0.304098812570     1.599165550260    -0.075496881847    12.000000000000
         C            1.889712812570     0.272611550260     1.048173118153    12.000000000000
         C           -2.058692187430     0.876297550260     0.345556118153    12.000000000000
         C           -1.443006187430    -1.774782449740    -0.222728881847    12.000000000000
         C            2.056778812570    -0.857770449740     0.052980118153    12.000000000000
         C           -0.088856187430     2.882021550260    -0.760647881847    12.000000000000
         C           -3.062357187430    -0.085670449740     0.370699118153    12.000000000000
         C           -2.753482187430    -1.416572449740     0.070012118153    12.000000000000
         H            0.967062812570    -2.055363449740    -1.149263881847     1.007825032230
         H            1.134689812570    -0.011938449740     1.797322118153     1.007825032230
         H            2.851746812570     0.418408550260     1.540622118153     1.007825032230
         H           -2.305809187430     1.911534550260     0.565763118153     1.007825032230
         H           -1.191311187430    -2.812076449740    -0.436312881847     1.007825032230
         H           -0.824956187430     3.438399550260    -0.170695881847     1.007825032230
         H           -0.534151187430     2.682449550260    -1.740153881847     1.007825032230
         H            0.802812812570     3.500053550260    -0.877133881847     1.007825032230
         H           -4.082188187430     0.198207550260     0.616622118153     1.007825032230
         H           -3.531224187430    -2.176162449740     0.075593118153     1.007825032230

  Basis Set: AUG-CC-PVTZ
    Blend: AUG-CC-PVTZ
  Basis Set: (AUG-CC-PVTZ AUX)
    Blend: AUG-CC-PVTZ-JKFIT
	 Reference Energy          =    -568.4628431541439113 [Eh]
	 Singles Energy            =      -0.0000000000000000 [Eh]
	 Same-Spin Energy          =      -0.6145174951483042 [Eh]
	 Opposite-Spin Energy      =      -1.8871217907699818 [Eh]
	 Correlation Energy        =      -2.5016392859182859 [Eh]
	 Total Energy              =    -570.9644824400621701 [Eh]

	 ================> DF-SCS-MP2 Energies <==================
	-----------------------------------------------------------
	 SCS Same-Spin Scale       =       0.3333333333333333 [-]
	 SCS Opposite-Spin Scale   =       1.2000000000000000 [-]
	 SCS Same-Spin Energy      =      -0.2048391650494347 [Eh]
	 SCS Opposite-Spin Energy  =      -2.2645461489239782 [Eh]
	 SCS Correlation Energy    =      -2.4693853139734130 [Eh]
	 SCS Total Energy          =    -570.9322284681172732 [Eh]
	-----------------------------------------------------------

  Dipole Moment: [D]
     X:    -4.9378      Y:    -0.0593      Z:     0.4063     Total:     4.9548

*** Psi4 exiting successfully. Buy a developer a beer!
