                               Psi4 1.3.2 release

  ==> Input File <==

--------------------------------------------------------------------------
#psi4
#
memory 32 gb

molecule  {
0 1
  O        3.1477550    -1.4485350    -0.2143050
  N        0.9062980    -1.2504610    -0.5893500
  N        1.5545360     1.4658350     0.3351760
  C       -0.6961080     0.5074870     0.0337420
  C       -0.3911060    -0.8453020    -0.2363150
  C        0.3260886     1.5245201    -0.0666296
  C        1.9201190     0.2388570     1.0398190
  C       -2.0282860     0.8425430     0.3372020
  C       -1.4126000    -1.8085370    -0.2310830
  C        2.0871850    -0.8915250     0.0446260
  C       -0.0584500     2.8482670    -0.7690020
  C       -3.0319510    -0.1194250     0.3623450
  C       -2.7230760    -1.4503270     0.0616580
  H        0.9974690    -2.0891180    -1.1576180
  H        1.1650960    -0.0456930     1.7889680
  H        2.8821530     0.3846540     1.5322680
  H       -2.2754030     1.8777800     0.5574090
  H       -1.1609050    -2.8458310    -0.4446670
  H       -0.7945500     3.4046450    -0.1790500
  H       -0.5037450     2.6486950    -1.7485080
  H        0.8332190     3.4662990    -0.8854880
  H       -4.0517820     0.1644530     0.6082680
  H       -3.5008180    -2.2099170     0.0672390
units angstrom
no_reorient  #important for SAPT in psi4, default
symmetry c1  #important for SAPT in psi4, default
}

set PROPERTIES_ORIGIN ["COM"]
properties('MP2/aug-cc-pvtz', properties = ['dipole'])
--------------------------------------------------------------------------

    Molecular point group: c1
  Charge       = 0
  Multiplicity = 1
  Basis Set: AUG-CC-PVTZ
    Blend: AUG-CC-PVTZ
  Basis Set: (AUG-CC-PVTZ AUX)
    Blend: AUG-CC-PVTZ-JKFIT

    Orbital Energies [Eh]
    ---------------------

    Doubly Occupied:

       1A    -20.532409     2A    -15.608026     3A    -15.567708
       4A    -11.362688     5A    -11.315846     6A    -11.300895
       7A    -11.268406     8A    -11.267097     9A    -11.265767
      10A    -11.265005    11A    -11.259170    12A    -11.254891
      13A    -11.233926    14A     -1.387783    15A     -1.277832
      16A     -1.233708    17A     -1.166425    18A     -1.067567
      19A     -1.035916    20A     -1.006858    21A     -0.947813
      22A     -0.890641    23A     -0.859506    24A     -0.797518
      25A     -0.769873    26A     -0.730219    27A     -0.691468
      28A     -0.678388    29A     -0.659042    30A     -0.648716
      31A     -0.626858    32A     -0.615291    33A     -0.604895
      34A     -0.582450    35A     -0.567887    36A     -0.557301
      37A     -0.545177    38A     -0.537459    39A     -0.528572
      40A     -0.510851    41A     -0.458553    42A     -0.445309
      43A     -0.419622    44A     -0.407628    45A     -0.354911
      46A     -0.333425

  @DF-RHF Final Energy:  -568.46277508218395

   => Energetics <=

    Nuclear Repulsion Energy =            761.2957346988505378
    One-Electron Energy =               -2282.6224255873262337
    Two-Electron Energy =                 952.8639158062917431
    Total Energy =                       -568.4627750821839527
  Basis Set: (AUG-CC-PVTZ AUX)
    Blend: AUG-CC-PVTZ-RI
    Molecular point group: c1

    Geometry (in Angstrom), charge = 0, multiplicity = 1:

       Center              X                  Y                   Z               Mass
    ------------   -----------------  -----------------  -----------------  -----------------
         O            3.111853654435    -1.418655425543    -0.214702798958    15.994914619570
         N            0.870396654435    -1.220581425543    -0.589747798958    14.003074004430
         N            1.518634654435     1.495714574457     0.334778201042    14.003074004430
         C           -0.732009345565     0.537366574457     0.033344201042    12.000000000000
         C           -0.427007345565    -0.815422425543    -0.236712798958    12.000000000000
         C            0.290187254435     1.554399674457    -0.067027398958    12.000000000000
         C            1.884217654435     0.268736574457     1.039421201042    12.000000000000
         C           -2.064187345565     0.872422574457     0.336804201042    12.000000000000
         C           -1.448501345565    -1.778657425543    -0.231480798958    12.000000000000
         C            2.051283654435    -0.861645425543     0.044228201042    12.000000000000
         C           -0.094351345565     2.878146574457    -0.769399798958    12.000000000000
         C           -3.067852345565    -0.089545425543     0.361947201042    12.000000000000
         C           -2.758977345565    -1.420447425543     0.061260201042    12.000000000000
         H            0.961567654435    -2.059238425543    -1.158015798958     1.007825032230
         H            1.129194654435    -0.015813425543     1.788570201042     1.007825032230
         H            2.846251654435     0.414533574457     1.531870201042     1.007825032230
         H           -2.311304345565     1.907659574457     0.557011201042     1.007825032230
         H           -1.196806345565    -2.815951425543    -0.445064798958     1.007825032230
         H           -0.830451345565     3.434524574457    -0.179447798958     1.007825032230
         H           -0.539646345565     2.678574574457    -1.748905798958     1.007825032230
         H            0.797317654435     3.496178574457    -0.885885798958     1.007825032230
         H           -4.087683345565     0.194332574457     0.607870201042     1.007825032230
         H           -3.536719345565    -2.180037425543     0.066841201042     1.007825032230

  Basis Set: AUG-CC-PVTZ
    Blend: AUG-CC-PVTZ
  Basis Set: (AUG-CC-PVTZ AUX)
    Blend: AUG-CC-PVTZ-JKFIT
	 Reference Energy          =    -568.4627750821839527 [Eh]
	 Singles Energy            =      -0.0000000000000000 [Eh]
	 Same-Spin Energy          =      -0.6147798067518958 [Eh]
	 Opposite-Spin Energy      =      -1.8877922005317740 [Eh]
	 Correlation Energy        =      -2.5025720072836699 [Eh]
	 Total Energy              =    -570.9653470894676275 [Eh]

	 ================> DF-SCS-MP2 Energies <==================
	-----------------------------------------------------------
	 SCS Same-Spin Scale       =       0.3333333333333333 [-]
	 SCS Opposite-Spin Scale   =       1.2000000000000000 [-]
	 SCS Same-Spin Energy      =      -0.2049266022506319 [Eh]
	 SCS Opposite-Spin Energy  =      -2.2653506406381285 [Eh]
	 SCS Correlation Energy    =      -2.4702772428887605 [Eh]
	 SCS Total Energy          =    -570.9330523250727083 [Eh]
	-----------------------------------------------------------

  Dipole Moment: [D]
     X:    -5.1517      Y:    -0.3869      Z:     0.2739     Total:     5.1735

*** Psi4 exiting successfully. Buy a developer a beer!
