                               Psi4 1.3.2 release

  ==> Input File <==

--------------------------------------------------------------------------
#psi4
#
memory 32 gb

molecule  {
0 1
  O        3.1477550    -1.4485350    -0.2143050
  N        0.9062980    -1.2504610    -0.5893500
  N        1.5545360     1.4658350     0.3351760
  C       -0.6961080     0.5074870     0.0337420
  C       -0.3911060    -0.8453020    -0.2363150
  C        0.3345050     1.5654110    -0.0838510
  C        1.9201190     0.2388570     1.0398190
  C       -2.0282860     0.8425430     0.3372020
  C       -1.4126000    -1.8085370    -0.2310830
  C        2.0871850    -0.8915250     0.0446260
  C       -0.0584500     2.8482670    -0.7690020
  C       -3.0319510    -0.1194250     0.3623450
  C       -2.7230760    -1.4503270     0.0616580
  H        0.9974690    -2.0891180    -1.1576180
  H        1.1650960    -0.0456930     1.7889680
  H        2.8821530     0.3846540     1.5322680
  H       -2.2754030     1.8777800     0.5574090
  H       -1.1609050    -2.8458310    -0.4446670
  H       -0.7945500     3.4046450    -0.1790500
  H       -0.5037450     2.6486950    -1.7485080
  H        0.8332190     3.4662990    -0.8854880
  H       -4.0517820     0.1644530     0.6082680
  H       -3.5008180    -2.2099170     0.0672390
units angstrom
no_reorient  #important for SAPT in psi4, default
symmetry c1  #important for SAPT in psi4, default
}

set PROPERTIES_ORIGIN ["COM"]
properties('MP2/aug-cc-pvtz', properties = ['dipole'])
--------------------------------------------------------------------------

    Molecular point group: c1
  Charge       = 0
  Multiplicity = 1
  Basis Set: AUG-CC-PVTZ
    Blend: AUG-CC-PVTZ
  Basis Set: (AUG-CC-PVTZ AUX)
    Blend: AUG-CC-PVTZ-JKFIT

    Orbital Energies [Eh]
    ---------------------

    Doubly Occupied:

       1A    -20.532264     2A    -15.607057     3A    -15.567057
       4A    -11.362604     5A    -11.314414     6A    -11.302394
       7A    -11.267033     8A    -11.266832     9A    -11.265647
      10A    -11.265455    11A    -11.258265    12A    -11.253764
      13A    -11.234213    14A     -1.387501    15A     -1.276036
      16A     -1.232890    17A     -1.164555    18A     -1.065552
      19A     -1.035232    20A     -1.011205    21A     -0.951687
      22A     -0.885705    23A     -0.858075    24A     -0.795419
      25A     -0.768108    26A     -0.728865    27A     -0.691504
      28A     -0.677771    29A     -0.657477    30A     -0.648348
      31A     -0.626184    32A     -0.618334    33A     -0.604696
      34A     -0.586477    35A     -0.566914    36A     -0.558827
      37A     -0.543584    38A     -0.538966    39A     -0.527850
      40A     -0.515472    41A     -0.457645    42A     -0.444575
      43A     -0.417581    44A     -0.405398    45A     -0.354964
      46A     -0.332233

  @DF-RHF Final Energy:  -568.46555605985418

   => Energetics <=

    Nuclear Repulsion Energy =            760.7413127058811142
    One-Electron Energy =               -2281.5484816282319116
    Two-Electron Energy =                 952.3416128624965040
    Total Energy =                       -568.4655560598541797
  Basis Set: (AUG-CC-PVTZ AUX)
    Blend: AUG-CC-PVTZ-RI
    Molecular point group: c1

    Geometry (in Angstrom), charge = 0, multiplicity = 1:

       Center              X                  Y                   Z               Mass
    ------------   -----------------  -----------------  -----------------  -----------------
         O            3.111273477513    -1.421474202752    -0.213515657324    15.994914619570
         N            0.869816477513    -1.223400202752    -0.588560657324    14.003074004430
         N            1.518054477513     1.492895797248     0.335965342676    14.003074004430
         C           -0.732589522487     0.534547797248     0.034531342676    12.000000000000
         C           -0.427587522487    -0.818241202752    -0.235525657324    12.000000000000
         C            0.298023477513     1.592471797248    -0.083061657324    12.000000000000
         C            1.883637477513     0.265917797248     1.040608342676    12.000000000000
         C           -2.064767522487     0.869603797248     0.337991342676    12.000000000000
         C           -1.449081522487    -1.781476202752    -0.230293657324    12.000000000000
         C            2.050703477513    -0.864464202752     0.045415342676    12.000000000000
         C           -0.094931522487     2.875327797248    -0.768212657324    12.000000000000
         C           -3.068432522487    -0.092364202752     0.363134342676    12.000000000000
         C           -2.759557522487    -1.423266202752     0.062447342676    12.000000000000
         H            0.960987477513    -2.062057202752    -1.156828657324     1.007825032230
         H            1.128614477513    -0.018632202752     1.789757342676     1.007825032230
         H            2.845671477513     0.411714797248     1.533057342676     1.007825032230
         H           -2.311884522487     1.904840797248     0.558198342676     1.007825032230
         H           -1.197386522487    -2.818770202752    -0.443877657324     1.007825032230
         H           -0.831031522487     3.431705797248    -0.178260657324     1.007825032230
         H           -0.540226522487     2.675755797248    -1.747718657324     1.007825032230
         H            0.796737477513     3.493359797248    -0.884698657324     1.007825032230
         H           -4.088263522487     0.191513797248     0.609057342676     1.007825032230
         H           -3.537299522487    -2.182856202752     0.068028342676     1.007825032230

  Basis Set: AUG-CC-PVTZ
    Blend: AUG-CC-PVTZ
  Basis Set: (AUG-CC-PVTZ AUX)
    Blend: AUG-CC-PVTZ-JKFIT
	 Reference Energy          =    -568.4655560598541797 [Eh]
	 Singles Energy            =      -0.0000000000000000 [Eh]
	 Same-Spin Energy          =      -0.6144660655003564 [Eh]
	 Opposite-Spin Energy      =      -1.8871834870889177 [Eh]
	 Correlation Energy        =      -2.5016495525892744 [Eh]
	 Total Energy              =    -570.9672056124434221 [Eh]

	 ================> DF-SCS-MP2 Energies <==================
	-----------------------------------------------------------
	 SCS Same-Spin Scale       =       0.3333333333333333 [-]
	 SCS Opposite-Spin Scale   =       1.2000000000000000 [-]
	 SCS Same-Spin Energy      =      -0.2048220218334521 [Eh]
	 SCS Opposite-Spin Energy  =      -2.2646201845067013 [Eh]
	 SCS Correlation Energy    =      -2.4694422063401533 [Eh]
	 SCS Total Energy          =    -570.9349982661943841 [Eh]
	-----------------------------------------------------------

  Dipole Moment: [D]
     X:    -5.1142      Y:    -0.2423      Z:     0.2274     Total:     5.1249

*** Psi4 exiting successfully. Buy a developer a beer!
