                               Psi4 1.3.2 release

  ==> Input File <==

--------------------------------------------------------------------------
#psi4
#
memory 32 gb

molecule  {
0 1
  O        3.1477550    -1.4485350    -0.2143050
  N        0.9062980    -1.2504610    -0.5893500
  N        1.5545360     1.4658350     0.3351760
  C       -0.6961080     0.5074870     0.0337420
  C       -0.3911060    -0.8453020    -0.2363150
  C        0.3345050     1.5654110    -0.0838510
  C        1.9201190     0.2388570     1.0398190
  C       -2.0282860     0.8425430     0.3372020
  C       -1.4126000    -1.8085370    -0.2310830
  C        2.0871850    -0.8915250     0.0446260
  C       -0.0584500     2.8482670    -0.7690020
  C       -3.0319510    -0.1194250     0.3623450
  C       -2.7230760    -1.4503270     0.0616580
  H        0.9974690    -2.0891180    -1.1576180
  H        1.1518804    -0.0466240     1.7750487
  H        2.8821530     0.3846540     1.5322680
  H       -2.2754030     1.8777800     0.5574090
  H       -1.1609050    -2.8458310    -0.4446670
  H       -0.7945500     3.4046450    -0.1790500
  H       -0.5037450     2.6486950    -1.7485080
  H        0.8332190     3.4662990    -0.8854880
  H       -4.0517820     0.1644530     0.6082680
  H       -3.5008180    -2.2099170     0.0672390
units angstrom
no_reorient  #important for SAPT in psi4, default
symmetry c1  #important for SAPT in psi4, default
}

set PROPERTIES_ORIGIN ["COM"]
properties('MP2/aug-cc-pvtz', properties = ['dipole'])
--------------------------------------------------------------------------

    Molecular point group: c1
  Charge       = 0
  Multiplicity = 1
  Basis Set: AUG-CC-PVTZ
    Blend: AUG-CC-PVTZ
  Basis Set: (AUG-CC-PVTZ AUX)
    Blend: AUG-CC-PVTZ-JKFIT

    Orbital Energies [Eh]
    ---------------------

    Doubly Occupied:

       1A    -20.532216     2A    -15.607083     3A    -15.566978
       4A    -11.362486     5A    -11.314467     6A    -11.302274
       7A    -11.267121     8A    -11.266880     9A    -11.265689
      10A    -11.265521    11A    -11.258321    12A    -11.253821
      13A    -11.234170    14A     -1.387487    15A     -1.276106
      16A     -1.232918    17A     -1.164614    18A     -1.065590
      19A     -1.035290    20A     -1.011262    21A     -0.951649
      22A     -0.885719    23A     -0.858135    24A     -0.795266
      25A     -0.768157    26A     -0.728776    27A     -0.691527
      28A     -0.677904    29A     -0.657555    30A     -0.648209
      31A     -0.626207    32A     -0.618591    33A     -0.604670
      34A     -0.586458    35A     -0.566868    36A     -0.558839
      37A     -0.543482    38A     -0.539435    39A     -0.527907
      40A     -0.515767    41A     -0.457636    42A     -0.444613
      43A     -0.417279    44A     -0.405350    45A     -0.354997
      46A     -0.332307

  @DF-RHF Final Energy:  -568.46548282819697

   => Energetics <=

    Nuclear Repulsion Energy =            760.7985206449991438
    One-Electron Energy =               -2281.6608155659105250
    Two-Electron Energy =                 952.3968120927144128
    Total Energy =                       -568.4654828281969685
  Basis Set: (AUG-CC-PVTZ AUX)
    Blend: AUG-CC-PVTZ-RI
    Molecular point group: c1

    Geometry (in Angstrom), charge = 0, multiplicity = 1:

       Center              X                  Y                   Z               Mass
    ------------   -----------------  -----------------  -----------------  -----------------
         O            3.111349988686    -1.421468812766    -0.213435072108    15.994914619570
         N            0.869892988686    -1.223394812766    -0.588480072108    14.003074004430
         N            1.518130988686     1.492901187234     0.336045927892    14.003074004430
         C           -0.732513011314     0.534553187234     0.034611927892    12.000000000000
         C           -0.427511011314    -0.818235812766    -0.235445072108    12.000000000000
         C            0.298099988686     1.592477187234    -0.082981072108    12.000000000000
         C            1.883713988686     0.265923187234     1.040688927892    12.000000000000
         C           -2.064691011314     0.869609187234     0.338071927892    12.000000000000
         C           -1.449005011314    -1.781470812766    -0.230213072108    12.000000000000
         C            2.050779988686    -0.864458812766     0.045495927892    12.000000000000
         C           -0.094855011314     2.875333187234    -0.768132072108    12.000000000000
         C           -3.068356011314    -0.092358812766     0.363214927892    12.000000000000
         C           -2.759481011314    -1.423260812766     0.062527927892    12.000000000000
         H            0.961063988686    -2.062051812766    -1.156748072108     1.007825032230
         H            1.115475388686    -0.019557812766     1.775918627892     1.007825032230
         H            2.845747988686     0.411720187234     1.533137927892     1.007825032230
         H           -2.311808011314     1.904846187234     0.558278927892     1.007825032230
         H           -1.197310011314    -2.818764812766    -0.443797072108     1.007825032230
         H           -0.830955011314     3.431711187234    -0.178180072108     1.007825032230
         H           -0.540150011314     2.675761187234    -1.747638072108     1.007825032230
         H            0.796813988686     3.493365187234    -0.884618072108     1.007825032230
         H           -4.088187011314     0.191519187234     0.609137927892     1.007825032230
         H           -3.537223011314    -2.182850812766     0.068108927892     1.007825032230

  Basis Set: AUG-CC-PVTZ
    Blend: AUG-CC-PVTZ
  Basis Set: (AUG-CC-PVTZ AUX)
    Blend: AUG-CC-PVTZ-JKFIT
	 Reference Energy          =    -568.4654828281969685 [Eh]
	 Singles Energy            =      -0.0000000000000000 [Eh]
	 Same-Spin Energy          =      -0.6145117926763588 [Eh]
	 Opposite-Spin Energy      =      -1.8872355641099934 [Eh]
	 Correlation Energy        =      -2.5017473567863524 [Eh]
	 Total Energy              =    -570.9672301849833502 [Eh]

	 ================> DF-SCS-MP2 Energies <==================
	-----------------------------------------------------------
	 SCS Same-Spin Scale       =       0.3333333333333333 [-]
	 SCS Opposite-Spin Scale   =       1.2000000000000000 [-]
	 SCS Same-Spin Energy      =      -0.2048372642254529 [Eh]
	 SCS Opposite-Spin Energy  =      -2.2646826769319919 [Eh]
	 SCS Correlation Energy    =      -2.4695199411574449 [Eh]
	 SCS Total Energy          =    -570.9350027693544689 [Eh]
	-----------------------------------------------------------

  Dipole Moment: [D]
     X:    -5.1185      Y:    -0.2450      Z:     0.2209     Total:     5.1291

*** Psi4 exiting successfully. Buy a developer a beer!
