                               Psi4 1.3.2 release

  ==> Input File <==

--------------------------------------------------------------------------
#psi4
#
memory 32 gb

molecule  {
0 1
  O        3.1477550    -1.4485350    -0.2143050
  N        0.9062980    -1.2504610    -0.5893500
  N        1.5545360     1.4658350     0.3351760
  C       -0.6961080     0.5074870     0.0337420
  C       -0.3911060    -0.8453020    -0.2363150
  C        0.3345050     1.5654110    -0.0838510
  C        1.9201190     0.2388570     1.0398190
  C       -2.0282860     0.8425430     0.3372020
  C       -1.4126000    -1.8085370    -0.2310830
  C        2.0871850    -0.8915250     0.0446260
  C       -0.0584500     2.8482670    -0.7690020
  C       -3.0319510    -0.1194250     0.3623450
  C       -2.7230760    -1.4503270     0.0616580
  H        1.0153958    -2.2540219    -1.2693557
  H        1.1650960    -0.0456930     1.7889680
  H        2.8821530     0.3846540     1.5322680
  H       -2.2754030     1.8777800     0.5574090
  H       -1.1609050    -2.8458310    -0.4446670
  H       -0.7945500     3.4046450    -0.1790500
  H       -0.5037450     2.6486950    -1.7485080
  H        0.8332190     3.4662990    -0.8854880
  H       -4.0517820     0.1644530     0.6082680
  H       -3.5008180    -2.2099170     0.0672390
units angstrom
no_reorient  #important for SAPT in psi4, default
symmetry c1  #important for SAPT in psi4, default
}

set PROPERTIES_ORIGIN ["COM"]
properties('MP2/aug-cc-pvtz', properties = ['dipole'])
--------------------------------------------------------------------------

    Molecular point group: c1
  Charge       = 0
  Multiplicity = 1
  Basis Set: AUG-CC-PVTZ
    Blend: AUG-CC-PVTZ
  Basis Set: (AUG-CC-PVTZ AUX)
    Blend: AUG-CC-PVTZ-JKFIT

    Orbital Energies [Eh]
    ---------------------

    Doubly Occupied:

       1A    -20.530418     2A    -15.620845     3A    -15.566410
       4A    -11.361792     5A    -11.314042     6A    -11.301816
       7A    -11.267305     8A    -11.266271     9A    -11.265093
      10A    -11.264671    11A    -11.257170    12A    -11.252884
      13A    -11.233729    14A     -1.383992    15A     -1.268754
      16A     -1.226250    17A     -1.161371    18A     -1.064909
      19A     -1.034021    20A     -1.006708    21A     -0.948683
      22A     -0.884066    23A     -0.854566    24A     -0.784229
      25A     -0.761543    26A     -0.711210    27A     -0.690001
      28A     -0.676122    29A     -0.655920    30A     -0.641535
      31A     -0.625206    32A     -0.615474    33A     -0.593438
      34A     -0.584912    35A     -0.562654    36A     -0.557885
      37A     -0.542436    38A     -0.538238    39A     -0.526931
      40A     -0.512397    41A     -0.456522    42A     -0.441697
      43A     -0.417018    44A     -0.404594    45A     -0.354269
      46A     -0.330349

  @DF-RHF Final Energy:  -568.43554827822106

   => Energetics <=

    Nuclear Repulsion Energy =            759.5385531747865571
    One-Electron Energy =               -2279.3075072942851875
    Two-Electron Energy =                 951.3334058412775676
    Total Energy =                       -568.4355482782210629
  Basis Set: (AUG-CC-PVTZ AUX)
    Blend: AUG-CC-PVTZ-RI
    Molecular point group: c1

    Geometry (in Angstrom), charge = 0, multiplicity = 1:

       Center              X                  Y                   Z               Mass
    ------------   -----------------  -----------------  -----------------  -----------------
         O            3.111169691041    -1.420519498397    -0.212868756499    15.994914619570
         N            0.869712691041    -1.222445498397    -0.587913756499    14.003074004430
         N            1.517950691041     1.493850501603     0.336612243501    14.003074004430
         C           -0.732693308959     0.535502501603     0.035178243501    12.000000000000
         C           -0.427691308959    -0.817286498397    -0.234878756499    12.000000000000
         C            0.297919691041     1.593426501603    -0.082414756499    12.000000000000
         C            1.883533691041     0.266872501603     1.041255243501    12.000000000000
         C           -2.064871308959     0.870558501603     0.338638243501    12.000000000000
         C           -1.449185308959    -1.780521498397    -0.229646756499    12.000000000000
         C            2.050599691041    -0.863509498397     0.046062243501    12.000000000000
         C           -0.095035308959     2.876282501603    -0.767565756499    12.000000000000
         C           -3.068536308959    -0.091409498397     0.363781243501    12.000000000000
         C           -2.759661308959    -1.422311498397     0.063094243501    12.000000000000
         H            0.978810491041    -2.226006398397    -1.267919456499     1.007825032230
         H            1.128510691041    -0.017677498397     1.790404243501     1.007825032230
         H            2.845567691041     0.412669501603     1.533704243501     1.007825032230
         H           -2.311988308959     1.905795501603     0.558845243501     1.007825032230
         H           -1.197490308959    -2.817815498397    -0.443230756499     1.007825032230
         H           -0.831135308959     3.432660501603    -0.177613756499     1.007825032230
         H           -0.540330308959     2.676710501603    -1.747071756499     1.007825032230
         H            0.796633691041     3.494314501603    -0.884051756499     1.007825032230
         H           -4.088367308959     0.192468501603     0.609704243501     1.007825032230
         H           -3.537403308959    -2.181901498397     0.068675243501     1.007825032230

  Basis Set: AUG-CC-PVTZ
    Blend: AUG-CC-PVTZ
  Basis Set: (AUG-CC-PVTZ AUX)
    Blend: AUG-CC-PVTZ-JKFIT
	 Reference Energy          =    -568.4355482782210629 [Eh]
	 Singles Energy            =      -0.0000000000000000 [Eh]
	 Same-Spin Energy          =      -0.6163838370996595 [Eh]
	 Opposite-Spin Energy      =      -1.8917040442250406 [Eh]
	 Correlation Energy        =      -2.5080878813247001 [Eh]
	 Total Energy              =    -570.9436361595458038 [Eh]

	 ================> DF-SCS-MP2 Energies <==================
	-----------------------------------------------------------
	 SCS Same-Spin Scale       =       0.3333333333333333 [-]
	 SCS Opposite-Spin Scale   =       1.2000000000000000 [-]
	 SCS Same-Spin Energy      =      -0.2054612790332198 [Eh]
	 SCS Opposite-Spin Energy  =      -2.2700448530700488 [Eh]
	 SCS Correlation Energy    =      -2.4755061321032685 [Eh]
	 SCS Total Energy          =    -570.9110544103243683 [Eh]
	-----------------------------------------------------------

  Dipole Moment: [D]
     X:    -5.0792      Y:    -0.3850      Z:     0.1257     Total:     5.0953

*** Psi4 exiting successfully. Buy a developer a beer!
