                               Psi4 1.3.2 release

  ==> Input File <==

--------------------------------------------------------------------------
#psi4
#
memory 32 gb

molecule  {
0 1
  O        3.1477550    -1.4485350    -0.2143050
  N        0.9062980    -1.2504610    -0.5893500
  N        1.5523376     1.5342156     0.4719892
  C       -0.6961080     0.5074870     0.0337420
  C       -0.3911060    -0.8453020    -0.2363150
  C        0.3345050     1.5654110    -0.0838510
  C        1.9201190     0.2388570     1.0398190
  C       -2.0282860     0.8425430     0.3372020
  C       -1.4126000    -1.8085370    -0.2310830
  C        2.0871850    -0.8915250     0.0446260
  C       -0.0584500     2.8482670    -0.7690020
  C       -3.0319510    -0.1194250     0.3623450
  C       -2.7230760    -1.4503270     0.0616580
  H        0.9974690    -2.0891180    -1.1576180
  H        1.1650960    -0.0456930     1.7889680
  H        2.8821530     0.3846540     1.5322680
  H       -2.2754030     1.8777800     0.5574090
  H       -1.1609050    -2.8458310    -0.4446670
  H       -0.7945500     3.4046450    -0.1790500
  H       -0.5037450     2.6486950    -1.7485080
  H        0.8332190     3.4662990    -0.8854880
  H       -4.0517820     0.1644530     0.6082680
  H       -3.5008180    -2.2099170     0.0672390
units angstrom
no_reorient  #important for SAPT in psi4, default
symmetry c1  #important for SAPT in psi4, default
}

set PROPERTIES_ORIGIN ["COM"]
properties('MP2/aug-cc-pvtz', properties = ['dipole'])
--------------------------------------------------------------------------

    Molecular point group: c1
  Charge       = 0
  Multiplicity = 1
  Basis Set: AUG-CC-PVTZ
    Blend: AUG-CC-PVTZ
  Basis Set: (AUG-CC-PVTZ AUX)
    Blend: AUG-CC-PVTZ-JKFIT

    Orbital Energies [Eh]
    ---------------------

    Doubly Occupied:

       1A    -20.534254     2A    -15.608079     3A    -15.573324
       4A    -11.364510     5A    -11.315453     6A    -11.310318
       7A    -11.269345     8A    -11.267945     9A    -11.266470
      10A    -11.264111    11A    -11.259201    12A    -11.255128
      13A    -11.235951    14A     -1.388736    15A     -1.274156
      16A     -1.222164    17A     -1.165536    18A     -1.067092
      19A     -1.035536    20A     -1.010768    21A     -0.947672
      22A     -0.887963    23A     -0.859427    24A     -0.795260
      25A     -0.771459    26A     -0.729220    27A     -0.691403
      28A     -0.674080    29A     -0.658659    30A     -0.645068
      31A     -0.627204    32A     -0.616529    33A     -0.606170
      34A     -0.587314    35A     -0.567232    36A     -0.559988
      37A     -0.543545    38A     -0.535913    39A     -0.527396
      40A     -0.512869    41A     -0.459255    42A     -0.445601
      43A     -0.418525    44A     -0.403234    45A     -0.354124
      46A     -0.332828

  @DF-RHF Final Energy:  -568.45478748218875

   => Energetics <=

    Nuclear Repulsion Energy =            758.7171219928086430
    One-Electron Energy =               -2277.4517921677766026
    Two-Electron Energy =                 950.2798826927792106
    Total Energy =                       -568.4547874821887490
  Basis Set: (AUG-CC-PVTZ AUX)
    Blend: AUG-CC-PVTZ-RI
    Molecular point group: c1

    Geometry (in Angstrom), charge = 0, multiplicity = 1:

       Center              X                  Y                   Z               Mass
    ------------   -----------------  -----------------  -----------------  -----------------
         O            3.111450318502    -1.426974790881    -0.224521016501    15.994914619570
         N            0.869993318502    -1.228900790881    -0.599566016501    14.003074004430
         N            1.516032918502     1.555775809119     0.461773183499    14.003074004430
         C           -0.732412681498     0.529047209119     0.023525983499    12.000000000000
         C           -0.427410681498    -0.823741790881    -0.246531016501    12.000000000000
         C            0.298200318502     1.586971209119    -0.094067016501    12.000000000000
         C            1.883814318502     0.260417209119     1.029602983499    12.000000000000
         C           -2.064590681498     0.864103209119     0.326985983499    12.000000000000
         C           -1.448904681498    -1.786976790881    -0.241299016501    12.000000000000
         C            2.050880318502    -0.869964790881     0.034409983499    12.000000000000
         C           -0.094754681498     2.869827209119    -0.779218016501    12.000000000000
         C           -3.068255681498    -0.097864790881     0.352128983499    12.000000000000
         C           -2.759380681498    -1.428766790881     0.051441983499    12.000000000000
         H            0.961164318502    -2.067557790881    -1.167834016501     1.007825032230
         H            1.128791318502    -0.024132790881     1.778751983499     1.007825032230
         H            2.845848318502     0.406214209119     1.522051983499     1.007825032230
         H           -2.311707681498     1.899340209119     0.547192983499     1.007825032230
         H           -1.197209681498    -2.824270790881    -0.454883016501     1.007825032230
         H           -0.830854681498     3.426205209119    -0.189266016501     1.007825032230
         H           -0.540049681498     2.670255209119    -1.758724016501     1.007825032230
         H            0.796914318502     3.487859209119    -0.895704016501     1.007825032230
         H           -4.088086681498     0.186013209119     0.598051983499     1.007825032230
         H           -3.537122681498    -2.188356790881     0.057022983499     1.007825032230

  Basis Set: AUG-CC-PVTZ
    Blend: AUG-CC-PVTZ
  Basis Set: (AUG-CC-PVTZ AUX)
    Blend: AUG-CC-PVTZ-JKFIT
	 Reference Energy          =    -568.4547874821887490 [Eh]
	 Singles Energy            =      -0.0000000000000000 [Eh]
	 Same-Spin Energy          =      -0.6154966198845275 [Eh]
	 Opposite-Spin Energy      =      -1.8902143159400824 [Eh]
	 Correlation Energy        =      -2.5057109358246099 [Eh]
	 Total Energy              =    -570.9604984180133442 [Eh]

	 ================> DF-SCS-MP2 Energies <==================
	-----------------------------------------------------------
	 SCS Same-Spin Scale       =       0.3333333333333333 [-]
	 SCS Opposite-Spin Scale   =       1.2000000000000000 [-]
	 SCS Same-Spin Energy      =      -0.2051655399615092 [Eh]
	 SCS Opposite-Spin Energy  =      -2.2682571791280988 [Eh]
	 SCS Correlation Energy    =      -2.4734227190896081 [Eh]
	 SCS Total Energy          =    -570.9282102012783753 [Eh]
	-----------------------------------------------------------

  Dipole Moment: [D]
     X:    -5.1504      Y:    -0.3382      Z:    -0.0152     Total:     5.1616

*** Psi4 exiting successfully. Buy a developer a beer!
