                               Psi4 1.3.2 release

  ==> Input File <==

--------------------------------------------------------------------------
#psi4
#
memory 32 gb

molecule  {
0 1
  O        3.1477550    -1.4485350    -0.2143050
  N        0.8530078    -1.3871985    -0.5976649
  N        1.5545360     1.4658350     0.3351760
  C       -0.6961080     0.5074870     0.0337420
  C       -0.3911060    -0.8453020    -0.2363150
  C        0.3345050     1.5654110    -0.0838510
  C        1.9201190     0.2388570     1.0398190
  C       -2.0282860     0.8425430     0.3372020
  C       -1.4126000    -1.8085370    -0.2310830
  C        2.0871850    -0.8915250     0.0446260
  C       -0.0584500     2.8482670    -0.7690020
  C       -3.0319510    -0.1194250     0.3623450
  C       -2.7230760    -1.4503270     0.0616580
  H        0.9974690    -2.0891180    -1.1576180
  H        1.1650960    -0.0456930     1.7889680
  H        2.8821530     0.3846540     1.5322680
  H       -2.2754030     1.8777800     0.5574090
  H       -1.1609050    -2.8458310    -0.4446670
  H       -0.7945500     3.4046450    -0.1790500
  H       -0.5037450     2.6486950    -1.7485080
  H        0.8332190     3.4662990    -0.8854880
  H       -4.0517820     0.1644530     0.6082680
  H       -3.5008180    -2.2099170     0.0672390
units angstrom
no_reorient  #important for SAPT in psi4, default
symmetry c1  #important for SAPT in psi4, default
}

set PROPERTIES_ORIGIN ["COM"]
properties('MP2/aug-cc-pvtz', properties = ['dipole'])
--------------------------------------------------------------------------

    Molecular point group: c1
  Charge       = 0
  Multiplicity = 1
  Basis Set: AUG-CC-PVTZ
    Blend: AUG-CC-PVTZ
  Basis Set: (AUG-CC-PVTZ AUX)
    Blend: AUG-CC-PVTZ-JKFIT

    Orbital Energies [Eh]
    ---------------------

    Doubly Occupied:

       1A    -20.542139     2A    -15.594490     3A    -15.567740
       4A    -11.372014     5A    -11.312475     6A    -11.303987
       7A    -11.273213     8A    -11.266545     9A    -11.265170
      10A    -11.261594    11A    -11.251605    12A    -11.250709
      13A    -11.234780    14A     -1.388887    15A     -1.271113
      16A     -1.235568    17A     -1.160551    18A     -1.064539
      19A     -1.029581    20A     -1.013935    21A     -0.954326
      22A     -0.881053    23A     -0.855671    24A     -0.795732
      25A     -0.771182    26A     -0.734202    27A     -0.688719
      28A     -0.680275    29A     -0.654100    30A     -0.651737
      31A     -0.625110    32A     -0.621463    33A     -0.610405
      34A     -0.586767    35A     -0.561728    36A     -0.557882
      37A     -0.543468    38A     -0.537400    39A     -0.526650
      40A     -0.516403    41A     -0.457854    42A     -0.445352
      43A     -0.418083    44A     -0.408063    45A     -0.353562
      46A     -0.327279

  @DF-RHF Final Energy:  -568.44437984610499

   => Energetics <=

    Nuclear Repulsion Energy =            758.7244948104494142
    One-Electron Energy =               -2277.4875442625352662
    Two-Electron Energy =                 950.3186696059808583
    Total Energy =                       -568.4443798461049937
  Basis Set: (AUG-CC-PVTZ AUX)
    Blend: AUG-CC-PVTZ-RI
    Molecular point group: c1

    Geometry (in Angstrom), charge = 0, multiplicity = 1:

       Center              X                  Y                   Z               Mass
    ------------   -----------------  -----------------  -----------------  -----------------
         O            3.115560182244    -1.410474932941    -0.212846800364    15.994914619570
         N            0.820812982244    -1.349138432941    -0.596206700364    14.003074004430
         N            1.522341182244     1.503895067059     0.336634199636    14.003074004430
         C           -0.728302817756     0.545547067059     0.035200199636    12.000000000000
         C           -0.423300817756    -0.807241932941    -0.234856800364    12.000000000000
         C            0.302310182244     1.603471067059    -0.082392800364    12.000000000000
         C            1.887924182244     0.276917067059     1.041277199636    12.000000000000
         C           -2.060480817756     0.880603067059     0.338660199636    12.000000000000
         C           -1.444794817756    -1.770476932941    -0.229624800364    12.000000000000
         C            2.054990182244    -0.853464932941     0.046084199636    12.000000000000
         C           -0.090644817756     2.886327067059    -0.767543800364    12.000000000000
         C           -3.064145817756    -0.081364932941     0.363803199636    12.000000000000
         C           -2.755270817756    -1.412266932941     0.063116199636    12.000000000000
         H            0.965274182244    -2.051057932941    -1.156159800364     1.007825032230
         H            1.132901182244    -0.007632932941     1.790426199636     1.007825032230
         H            2.849958182244     0.422714067059     1.533726199636     1.007825032230
         H           -2.307597817756     1.915840067059     0.558867199636     1.007825032230
         H           -1.193099817756    -2.807770932941    -0.443208800364     1.007825032230
         H           -0.826744817756     3.442705067059    -0.177591800364     1.007825032230
         H           -0.535939817756     2.686755067059    -1.747049800364     1.007825032230
         H            0.801024182244     3.504359067059    -0.884029800364     1.007825032230
         H           -4.083976817756     0.202513067059     0.609726199636     1.007825032230
         H           -3.533012817756    -2.171856932941     0.068697199636     1.007825032230

  Basis Set: AUG-CC-PVTZ
    Blend: AUG-CC-PVTZ
  Basis Set: (AUG-CC-PVTZ AUX)
    Blend: AUG-CC-PVTZ-JKFIT
	 Reference Energy          =    -568.4443798461049937 [Eh]
	 Singles Energy            =      -0.0000000000000000 [Eh]
	 Same-Spin Energy          =      -0.6137812321444214 [Eh]
	 Opposite-Spin Energy      =      -1.8871479530259911 [Eh]
	 Correlation Energy        =      -2.5009291851704125 [Eh]
	 Total Energy              =    -570.9453090312754284 [Eh]

	 ================> DF-SCS-MP2 Energies <==================
	-----------------------------------------------------------
	 SCS Same-Spin Scale       =       0.3333333333333333 [-]
	 SCS Opposite-Spin Scale   =       1.2000000000000000 [-]
	 SCS Same-Spin Energy      =      -0.2045937440481405 [Eh]
	 SCS Opposite-Spin Energy  =      -2.2645775436311895 [Eh]
	 SCS Correlation Energy    =      -2.4691712876793299 [Eh]
	 SCS Total Energy          =    -570.9135511337842672 [Eh]
	-----------------------------------------------------------

  Dipole Moment: [D]
     X:    -4.6325      Y:    -0.0850      Z:     0.2619     Total:     4.6407

*** Psi4 exiting successfully. Buy a developer a beer!
