                               Psi4 1.3.2 release

  ==> Input File <==

--------------------------------------------------------------------------
#psi4
#
memory 32 gb

molecule  {
0 1
  O        3.1477550    -1.4485350    -0.2143050
  N        0.9062980    -1.2504610    -0.5893500
  N        1.4282262     1.4681974     0.4214249
  C       -0.6961080     0.5074870     0.0337420
  C       -0.3911060    -0.8453020    -0.2363150
  C        0.3345050     1.5654110    -0.0838510
  C        1.9201190     0.2388570     1.0398190
  C       -2.0282860     0.8425430     0.3372020
  C       -1.4126000    -1.8085370    -0.2310830
  C        2.0871850    -0.8915250     0.0446260
  C       -0.0584500     2.8482670    -0.7690020
  C       -3.0319510    -0.1194250     0.3623450
  C       -2.7230760    -1.4503270     0.0616580
  H        0.9974690    -2.0891180    -1.1576180
  H        1.1650960    -0.0456930     1.7889680
  H        2.8821530     0.3846540     1.5322680
  H       -2.2754030     1.8777800     0.5574090
  H       -1.1609050    -2.8458310    -0.4446670
  H       -0.7945500     3.4046450    -0.1790500
  H       -0.5037450     2.6486950    -1.7485080
  H        0.8332190     3.4662990    -0.8854880
  H       -4.0517820     0.1644530     0.6082680
  H       -3.5008180    -2.2099170     0.0672390
units angstrom
no_reorient  #important for SAPT in psi4, default
symmetry c1  #important for SAPT in psi4, default
}

set PROPERTIES_ORIGIN ["COM"]
properties('MP2/aug-cc-pvtz', properties = ['dipole'])
--------------------------------------------------------------------------

    Molecular point group: c1
  Charge       = 0
  Multiplicity = 1
  Basis Set: AUG-CC-PVTZ
    Blend: AUG-CC-PVTZ
  Basis Set: (AUG-CC-PVTZ AUX)
    Blend: AUG-CC-PVTZ-JKFIT

    Orbital Energies [Eh]
    ---------------------

    Doubly Occupied:

       1A    -20.535650     2A    -15.607088     3A    -15.554098
       4A    -11.366245     5A    -11.310474     6A    -11.287312
       7A    -11.273148     8A    -11.262430     9A    -11.261766
      10A    -11.260441    11A    -11.256129    12A    -11.251454
      13A    -11.230881    14A     -1.390348    15A     -1.287282
      16A     -1.251561    17A     -1.161676    18A     -1.061785
      19A     -1.034729    20A     -1.012434    21A     -0.960594
      22A     -0.883061    23A     -0.855902    24A     -0.798224
      25A     -0.766071    26A     -0.726330    27A     -0.700421
      28A     -0.675260    29A     -0.657429    30A     -0.646970
      31A     -0.627333    32A     -0.623537    33A     -0.607611
      34A     -0.587358    35A     -0.565112    36A     -0.556381
      37A     -0.550695    38A     -0.540404    39A     -0.529086
      40A     -0.516536    41A     -0.468556    42A     -0.444844
      43A     -0.421225    44A     -0.394545    45A     -0.354713
      46A     -0.329713

  @DF-RHF Final Energy:  -568.46118543437854

   => Energetics <=

    Nuclear Repulsion Energy =            762.8796546067615054
    One-Electron Energy =               -2285.7919967343768803
    Two-Electron Energy =                 954.4511566932368396
    Total Energy =                       -568.4611854343785353
  Basis Set: (AUG-CC-PVTZ AUX)
    Blend: AUG-CC-PVTZ-RI
    Molecular point group: c1

    Geometry (in Angstrom), charge = 0, multiplicity = 1:

       Center              X                  Y                   Z               Mass
    ------------   -----------------  -----------------  -----------------  -----------------
         O            3.121433935105    -1.421664236028    -0.220453585266    15.994914619570
         N            0.879976935105    -1.223590236028    -0.595498585266    14.003074004430
         N            1.401905135105     1.495068163972     0.415276314734    14.003074004430
         C           -0.722429064895     0.534357763972     0.027593414734    12.000000000000
         C           -0.417427064895    -0.818431236028    -0.242463585266    12.000000000000
         C            0.308183935105     1.592281763972    -0.089999585266    12.000000000000
         C            1.893797935105     0.265727763972     1.033670414734    12.000000000000
         C           -2.054607064895     0.869413763972     0.331053414734    12.000000000000
         C           -1.438921064895    -1.781666236028    -0.237231585266    12.000000000000
         C            2.060863935105    -0.864654236028     0.038477414734    12.000000000000
         C           -0.084771064895     2.875137763972    -0.775150585266    12.000000000000
         C           -3.058272064895    -0.092554236028     0.356196414734    12.000000000000
         C           -2.749397064895    -1.423456236028     0.055509414734    12.000000000000
         H            0.971147935105    -2.062247236028    -1.163766585266     1.007825032230
         H            1.138774935105    -0.018822236028     1.782819414734     1.007825032230
         H            2.855831935105     0.411524763972     1.526119414734     1.007825032230
         H           -2.301724064895     1.904650763972     0.551260414734     1.007825032230
         H           -1.187226064895    -2.818960236028    -0.450815585266     1.007825032230
         H           -0.820871064895     3.431515763972    -0.185198585266     1.007825032230
         H           -0.530066064895     2.675565763972    -1.754656585266     1.007825032230
         H            0.806897935105     3.493169763972    -0.891636585266     1.007825032230
         H           -4.078103064895     0.191323763972     0.602119414734     1.007825032230
         H           -3.527139064895    -2.183046236028     0.061090414734     1.007825032230

  Basis Set: AUG-CC-PVTZ
    Blend: AUG-CC-PVTZ
  Basis Set: (AUG-CC-PVTZ AUX)
    Blend: AUG-CC-PVTZ-JKFIT
	 Reference Energy          =    -568.4611854343785353 [Eh]
	 Singles Energy            =      -0.0000000000000000 [Eh]
	 Same-Spin Energy          =      -0.6127565610184416 [Eh]
	 Opposite-Spin Energy      =      -1.8830227140942464 [Eh]
	 Correlation Energy        =      -2.4957792751126879 [Eh]
	 Total Energy              =    -570.9569647094912170 [Eh]

	 ================> DF-SCS-MP2 Energies <==================
	-----------------------------------------------------------
	 SCS Same-Spin Scale       =       0.3333333333333333 [-]
	 SCS Opposite-Spin Scale   =       1.2000000000000000 [-]
	 SCS Same-Spin Energy      =      -0.2042521870061472 [Eh]
	 SCS Opposite-Spin Energy  =      -2.2596272569130957 [Eh]
	 SCS Correlation Energy    =      -2.4638794439192431 [Eh]
	 SCS Total Energy          =    -570.9250648782978033 [Eh]
	-----------------------------------------------------------

  Dipole Moment: [D]
     X:    -4.7584      Y:    -0.2029      Z:     0.1287     Total:     4.7644

*** Psi4 exiting successfully. Buy a developer a beer!
