                               Psi4 1.3.2 release

  ==> Input File <==

--------------------------------------------------------------------------
#psi4
#
memory 32 gb

molecule  {
0 1
  O        3.1477550    -1.4485350    -0.2143050
  N        0.9062980    -1.2504610    -0.5893500
  N        1.5545360     1.4658350     0.3351760
  C       -0.6961080     0.5074870     0.0337420
  C       -0.4388262    -0.9263433    -0.3492806
  C        0.3345050     1.5654110    -0.0838510
  C        1.9201190     0.2388570     1.0398190
  C       -2.0282860     0.8425430     0.3372020
  C       -1.4126000    -1.8085370    -0.2310830
  C        2.0871850    -0.8915250     0.0446260
  C       -0.0584500     2.8482670    -0.7690020
  C       -3.0319510    -0.1194250     0.3623450
  C       -2.7230760    -1.4503270     0.0616580
  H        0.9974690    -2.0891180    -1.1576180
  H        1.1650960    -0.0456930     1.7889680
  H        2.8821530     0.3846540     1.5322680
  H       -2.2754030     1.8777800     0.5574090
  H       -1.1609050    -2.8458310    -0.4446670
  H       -0.7945500     3.4046450    -0.1790500
  H       -0.5037450     2.6486950    -1.7485080
  H        0.8332190     3.4662990    -0.8854880
  H       -4.0517820     0.1644530     0.6082680
  H       -3.5008180    -2.2099170     0.0672390
units angstrom
no_reorient  #important for SAPT in psi4, default
symmetry c1  #important for SAPT in psi4, default
}

set PROPERTIES_ORIGIN ["COM"]
properties('MP2/aug-cc-pvtz', properties = ['dipole'])
--------------------------------------------------------------------------

    Molecular point group: c1
  Charge       = 0
  Multiplicity = 1
  Basis Set: AUG-CC-PVTZ
    Blend: AUG-CC-PVTZ
  Basis Set: (AUG-CC-PVTZ AUX)
    Blend: AUG-CC-PVTZ-JKFIT

    Orbital Energies [Eh]
    ---------------------

    Doubly Occupied:

       1A    -20.533438     2A    -15.605214     3A    -15.567267
       4A    -11.365916     5A    -11.313272     6A    -11.303026
       7A    -11.273289     8A    -11.267114     9A    -11.266560
      10A    -11.266157    11A    -11.254388    12A    -11.249005
      13A    -11.234247    14A     -1.387924    15A     -1.273589
      16A     -1.233783    17A     -1.165146    18A     -1.064627
      19A     -1.046216    20A     -1.003698    21A     -0.952454
      22A     -0.890772    23A     -0.851715    24A     -0.799529
      25A     -0.765123    26A     -0.729402    27A     -0.690959
      28A     -0.678329    29A     -0.660131    30A     -0.636828
      31A     -0.628888    32A     -0.619004    33A     -0.604547
      34A     -0.586147    35A     -0.568888    36A     -0.559029
      37A     -0.545515    38A     -0.537255    39A     -0.527514
      40A     -0.507590    41A     -0.458382    42A     -0.445257
      43A     -0.416776    44A     -0.406766    45A     -0.357518
      46A     -0.329647

  @DF-RHF Final Energy:  -568.44712486337528

   => Energetics <=

    Nuclear Repulsion Energy =            759.5866908143498222
    One-Electron Energy =               -2279.2119537821881750
    Two-Electron Energy =                 951.1781381044630734
    Total Energy =                       -568.4471248633752793
  Basis Set: (AUG-CC-PVTZ AUX)
    Blend: AUG-CC-PVTZ-RI
    Molecular point group: c1

    Geometry (in Angstrom), charge = 0, multiplicity = 1:

       Center              X                  Y                   Z               Mass
    ------------   -----------------  -----------------  -----------------  -----------------
         O            3.114563026342    -1.415887694031    -0.205728475855    15.994914619570
         N            0.873106026342    -1.217813694031    -0.580773475855    14.003074004430
         N            1.521344026342     1.498482305969     0.343752524145    14.003074004430
         C           -0.729299973658     0.540134305969     0.042318524145    12.000000000000
         C           -0.472018173658    -0.893695994031    -0.340704075855    12.000000000000
         C            0.301313026342     1.598058305969    -0.075274475855    12.000000000000
         C            1.886927026342     0.271504305969     1.048395524145    12.000000000000
         C           -2.061477973658     0.875190305969     0.345778524145    12.000000000000
         C           -1.445791973658    -1.775889694031    -0.222506475855    12.000000000000
         C            2.053993026342    -0.858877694031     0.053202524145    12.000000000000
         C           -0.091641973658     2.880914305969    -0.760425475855    12.000000000000
         C           -3.065142973658    -0.086777694031     0.370921524145    12.000000000000
         C           -2.756267973658    -1.417679694031     0.070234524145    12.000000000000
         H            0.964277026342    -2.056470694031    -1.149041475855     1.007825032230
         H            1.131904026342    -0.013045694031     1.797544524145     1.007825032230
         H            2.848961026342     0.417301305969     1.540844524145     1.007825032230
         H           -2.308594973658     1.910427305969     0.565985524145     1.007825032230
         H           -1.194096973658    -2.813183694031    -0.436090475855     1.007825032230
         H           -0.827741973658     3.437292305969    -0.170473475855     1.007825032230
         H           -0.536936973658     2.681342305969    -1.739931475855     1.007825032230
         H            0.800027026342     3.498946305969    -0.876911475855     1.007825032230
         H           -4.084973973658     0.197100305969     0.616844524145     1.007825032230
         H           -3.534009973658    -2.177269694031     0.075815524145     1.007825032230

  Basis Set: AUG-CC-PVTZ
    Blend: AUG-CC-PVTZ
  Basis Set: (AUG-CC-PVTZ AUX)
    Blend: AUG-CC-PVTZ-JKFIT
	 Reference Energy          =    -568.4471248633752793 [Eh]
	 Singles Energy            =      -0.0000000000000000 [Eh]
	 Same-Spin Energy          =      -0.6146506006685110 [Eh]
	 Opposite-Spin Energy      =      -1.8884460472714171 [Eh]
	 Correlation Energy        =      -2.5030966479399281 [Eh]
	 Total Energy              =    -570.9502215113152488 [Eh]

	 ================> DF-SCS-MP2 Energies <==================
	-----------------------------------------------------------
	 SCS Same-Spin Scale       =       0.3333333333333333 [-]
	 SCS Opposite-Spin Scale   =       1.2000000000000000 [-]
	 SCS Same-Spin Energy      =      -0.2048835335561703 [Eh]
	 SCS Opposite-Spin Energy  =      -2.2661352567257005 [Eh]
	 SCS Correlation Energy    =      -2.4710187902818710 [Eh]
	 SCS Total Energy          =    -570.9181436536571255 [Eh]
	-----------------------------------------------------------

  Dipole Moment: [D]
     X:    -5.1103      Y:    -0.2206      Z:     0.2467     Total:     5.1210

*** Psi4 exiting successfully. Buy a developer a beer!
