                               Psi4 1.3.2 release

  ==> Input File <==

--------------------------------------------------------------------------
#psi4
#
memory 32 gb

molecule  {
0 1
  O        3.1576031    -1.4360061    -0.2000361
  N        0.9062980    -1.2504610    -0.5893500
  N        1.5545360     1.4658350     0.3351760
  C       -0.6961080     0.5074870     0.0337420
  C       -0.3911060    -0.8453020    -0.2363150
  C        0.3345050     1.5654110    -0.0838510
  C        1.9201190     0.2388570     1.0398190
  C       -2.0282860     0.8425430     0.3372020
  C       -1.4126000    -1.8085370    -0.2310830
  C        2.0871850    -0.8915250     0.0446260
  C       -0.0584500     2.8482670    -0.7690020
  C       -3.0319510    -0.1194250     0.3623450
  C       -2.7230760    -1.4503270     0.0616580
  H        0.9974690    -2.0891180    -1.1576180
  H        1.1650960    -0.0456930     1.7889680
  H        2.8821530     0.3846540     1.5322680
  H       -2.2754030     1.8777800     0.5574090
  H       -1.1609050    -2.8458310    -0.4446670
  H       -0.7945500     3.4046450    -0.1790500
  H       -0.5037450     2.6486950    -1.7485080
  H        0.8332190     3.4662990    -0.8854880
  H       -4.0517820     0.1644530     0.6082680
  H       -3.5008180    -2.2099170     0.0672390
units angstrom
no_reorient  #important for SAPT in psi4, default
symmetry c1  #important for SAPT in psi4, default
}

set PROPERTIES_ORIGIN ["COM"]
properties('MP2/aug-cc-pvtz', properties = ['dipole'])
--------------------------------------------------------------------------

    Molecular point group: c1
  Charge       = 0
  Multiplicity = 1
  Basis Set: AUG-CC-PVTZ
    Blend: AUG-CC-PVTZ
  Basis Set: (AUG-CC-PVTZ AUX)
    Blend: AUG-CC-PVTZ-JKFIT

    Orbital Energies [Eh]
    ---------------------

    Doubly Occupied:

       1A    -20.532468     2A    -15.608061     3A    -15.566788
       4A    -11.362585     5A    -11.314779     6A    -11.302070
       7A    -11.266939     8A    -11.266006     9A    -11.265778
      10A    -11.265572    11A    -11.258544    12A    -11.253950
      13A    -11.234067    14A     -1.387208    15A     -1.276653
      16A     -1.232913    17A     -1.164796    18A     -1.065436
      19A     -1.035396    20A     -1.011166    21A     -0.951202
      22A     -0.885875    23A     -0.858367    24A     -0.795590
      25A     -0.768111    26A     -0.729102    27A     -0.691492
      28A     -0.677656    29A     -0.657588    30A     -0.648469
      31A     -0.626270    32A     -0.618306    33A     -0.604419
      34A     -0.586396    35A     -0.566948    36A     -0.558802
      37A     -0.543554    38A     -0.538863    39A     -0.527847
      40A     -0.515457    41A     -0.457650    42A     -0.445115
      43A     -0.417221    44A     -0.404865    45A     -0.354924
      46A     -0.332615

  @DF-RHF Final Energy:  -568.46542203545562

   => Energetics <=

    Nuclear Repulsion Energy =            760.7105318549647563
    One-Electron Energy =               -2281.4841510632363679
    Two-Electron Energy =                 952.3081971728159942
    Total Energy =                       -568.4654220354556173
  Basis Set: (AUG-CC-PVTZ AUX)
    Blend: AUG-CC-PVTZ-RI
    Molecular point group: c1

    Geometry (in Angstrom), charge = 0, multiplicity = 1:

       Center              X                  Y                   Z               Mass
    ------------   -----------------  -----------------  -----------------  -----------------
         O            3.120216705383    -1.410096494599    -0.200557825442    15.994914619570
         N            0.868911605383    -1.224551394599    -0.589871725442    14.003074004430
         N            1.517149605383     1.491744605401     0.334654274558    14.003074004430
         C           -0.733494394617     0.533396605401     0.033220274558    12.000000000000
         C           -0.428492394617    -0.819392394599    -0.236836725442    12.000000000000
         C            0.297118605383     1.591320605401    -0.084372725442    12.000000000000
         C            1.882732605383     0.264766605401     1.039297274558    12.000000000000
         C           -2.065672394617     0.868452605401     0.336680274558    12.000000000000
         C           -1.449986394617    -1.782627394599    -0.231604725442    12.000000000000
         C            2.049798605383    -0.865615394599     0.044104274558    12.000000000000
         C           -0.095836394617     2.874176605401    -0.769523725442    12.000000000000
         C           -3.069337394617    -0.093515394599     0.361823274558    12.000000000000
         C           -2.760462394617    -1.424417394599     0.061136274558    12.000000000000
         H            0.960082605383    -2.063208394599    -1.158139725442     1.007825032230
         H            1.127709605383    -0.019783394599     1.788446274558     1.007825032230
         H            2.844766605383     0.410563605401     1.531746274558     1.007825032230
         H           -2.312789394617     1.903689605401     0.556887274558     1.007825032230
         H           -1.198291394617    -2.819921394599    -0.445188725442     1.007825032230
         H           -0.831936394617     3.430554605401    -0.179571725442     1.007825032230
         H           -0.541131394617     2.674604605401    -1.749029725442     1.007825032230
         H            0.795832605383     3.492208605401    -0.886009725442     1.007825032230
         H           -4.089168394617     0.190362605401     0.607746274558     1.007825032230
         H           -3.538204394617    -2.184007394599     0.066717274558     1.007825032230

  Basis Set: AUG-CC-PVTZ
    Blend: AUG-CC-PVTZ
  Basis Set: (AUG-CC-PVTZ AUX)
    Blend: AUG-CC-PVTZ-JKFIT
	 Reference Energy          =    -568.4654220354556173 [Eh]
	 Singles Energy            =      -0.0000000000000000 [Eh]
	 Same-Spin Energy          =      -0.6144782866065428 [Eh]
	 Opposite-Spin Energy      =      -1.8872326343071055 [Eh]
	 Correlation Energy        =      -2.5017109209136486 [Eh]
	 Total Energy              =    -570.9671329563692552 [Eh]

	 ================> DF-SCS-MP2 Energies <==================
	-----------------------------------------------------------
	 SCS Same-Spin Scale       =       0.3333333333333333 [-]
	 SCS Opposite-Spin Scale   =       1.2000000000000000 [-]
	 SCS Same-Spin Energy      =      -0.2048260955355143 [Eh]
	 SCS Opposite-Spin Energy  =      -2.2646791611685266 [Eh]
	 SCS Correlation Energy    =      -2.4695052567040410 [Eh]
	 SCS Total Energy          =    -570.9349272921596139 [Eh]
	-----------------------------------------------------------

  Dipole Moment: [D]
     X:    -5.1390      Y:    -0.2743      Z:     0.1965     Total:     5.1501

*** Psi4 exiting successfully. Buy a developer a beer!
