                               Psi4 1.3.2 release

  ==> Input File <==

--------------------------------------------------------------------------
#psi4
#
memory 32 gb

molecule  {
0 1
  O        3.1477550    -1.4485350    -0.2143050
  N        0.9062980    -1.2504610    -0.5893500
  N        1.5545360     1.4658350     0.3351760
  C       -0.6961080     0.5074870     0.0337420
  C       -0.3283461    -0.7331321    -0.1650041
  C        0.3345050     1.5654110    -0.0838510
  C        1.9201190     0.2388570     1.0398190
  C       -2.0282860     0.8425430     0.3372020
  C       -1.4126000    -1.8085370    -0.2310830
  C        2.0871850    -0.8915250     0.0446260
  C       -0.0584500     2.8482670    -0.7690020
  C       -3.0319510    -0.1194250     0.3623450
  C       -2.7230760    -1.4503270     0.0616580
  H        0.9974690    -2.0891180    -1.1576180
  H        1.1650960    -0.0456930     1.7889680
  H        2.8821530     0.3846540     1.5322680
  H       -2.2754030     1.8777800     0.5574090
  H       -1.1609050    -2.8458310    -0.4446670
  H       -0.7945500     3.4046450    -0.1790500
  H       -0.5037450     2.6486950    -1.7485080
  H        0.8332190     3.4662990    -0.8854880
  H       -4.0517820     0.1644530     0.6082680
  H       -3.5008180    -2.2099170     0.0672390
units angstrom
no_reorient  #important for SAPT in psi4, default
symmetry c1  #important for SAPT in psi4, default
}

set PROPERTIES_ORIGIN ["COM"]
properties('MP2/aug-cc-pvtz', properties = ['dipole'])
--------------------------------------------------------------------------

    Molecular point group: c1
  Charge       = 0
  Multiplicity = 1
  Basis Set: AUG-CC-PVTZ
    Blend: AUG-CC-PVTZ
  Basis Set: (AUG-CC-PVTZ AUX)
    Blend: AUG-CC-PVTZ-JKFIT

    Orbital Energies [Eh]
    ---------------------

    Doubly Occupied:

       1A    -20.530497     2A    -15.609015     3A    -15.567360
       4A    -11.359390     5A    -11.314058     6A    -11.301431
       7A    -11.268967     8A    -11.267178     9A    -11.265641
      10A    -11.262659    11A    -11.255902    12A    -11.255317
      13A    -11.234035    14A     -1.386789    15A     -1.279484
      16A     -1.232046    17A     -1.165732    18A     -1.071404
      19A     -1.022181    20A     -1.019757    21A     -0.951261
      22A     -0.878374    23A     -0.864808    24A     -0.791352
      25A     -0.773726    26A     -0.726504    27A     -0.696940
      28A     -0.678204    29A     -0.660166    30A     -0.650983
      31A     -0.622925    32A     -0.617340    33A     -0.599201
      34A     -0.586108    35A     -0.566023    36A     -0.558036
      37A     -0.543422    38A     -0.539995    39A     -0.527964
      40A     -0.512807    41A     -0.456670    42A     -0.442555
      43A     -0.416463    44A     -0.403849    45A     -0.360356
      46A     -0.330249

  @DF-RHF Final Energy:  -568.44240077654808

   => Energetics <=

    Nuclear Repulsion Energy =            762.0335987468706662
    One-Electron Energy =               -2284.1017548105014612
    Two-Electron Energy =                 953.6257552870827112
    Total Energy =                       -568.4424007765480837
  Basis Set: (AUG-CC-PVTZ AUX)
    Blend: AUG-CC-PVTZ-RI
    Molecular point group: c1

    Geometry (in Angstrom), charge = 0, multiplicity = 1:

       Center              X                  Y                   Z               Mass
    ------------   -----------------  -----------------  -----------------  -----------------
         O            3.106947180567    -1.429206533362    -0.218431409721    15.994914619570
         N            0.865490180567    -1.231132533362    -0.593476409721    14.003074004430
         N            1.513728180567     1.485163466638     0.331049590279    14.003074004430
         C           -0.736915819433     0.526815466638     0.029615590279    12.000000000000
         C           -0.369153919433    -0.713803633362    -0.169130509721    12.000000000000
         C            0.293697180567     1.584739466638    -0.087977409721    12.000000000000
         C            1.879311180567     0.258185466638     1.035692590279    12.000000000000
         C           -2.069093819433     0.861871466638     0.333075590279    12.000000000000
         C           -1.453407819433    -1.789208533362    -0.235209409721    12.000000000000
         C            2.046377180567    -0.872196533362     0.040499590279    12.000000000000
         C           -0.099257819433     2.867595466638    -0.773128409721    12.000000000000
         C           -3.072758819433    -0.100096533362     0.358218590279    12.000000000000
         C           -2.763883819433    -1.430998533362     0.057531590279    12.000000000000
         H            0.956661180567    -2.069789533362    -1.161744409721     1.007825032230
         H            1.124288180567    -0.026364533362     1.784841590279     1.007825032230
         H            2.841345180567     0.403982466638     1.528141590279     1.007825032230
         H           -2.316210819433     1.897108466638     0.553282590279     1.007825032230
         H           -1.201712819433    -2.826502533362    -0.448793409721     1.007825032230
         H           -0.835357819433     3.423973466638    -0.183176409721     1.007825032230
         H           -0.544552819433     2.668023466638    -1.752634409721     1.007825032230
         H            0.792411180567     3.485627466638    -0.889614409721     1.007825032230
         H           -4.092589819433     0.183781466638     0.604141590279     1.007825032230
         H           -3.541625819433    -2.190588533362     0.063112590279     1.007825032230

  Basis Set: AUG-CC-PVTZ
    Blend: AUG-CC-PVTZ
  Basis Set: (AUG-CC-PVTZ AUX)
    Blend: AUG-CC-PVTZ-JKFIT
	 Reference Energy          =    -568.4424007765480837 [Eh]
	 Singles Energy            =      -0.0000000000000000 [Eh]
	 Same-Spin Energy          =      -0.6139796032001572 [Eh]
	 Opposite-Spin Energy      =      -1.8883624674167725 [Eh]
	 Correlation Energy        =      -2.5023420706169297 [Eh]
	 Total Energy              =    -570.9447428471650028 [Eh]

	 ================> DF-SCS-MP2 Energies <==================
	-----------------------------------------------------------
	 SCS Same-Spin Scale       =       0.3333333333333333 [-]
	 SCS Opposite-Spin Scale   =       1.2000000000000000 [-]
	 SCS Same-Spin Energy      =      -0.2046598677333857 [Eh]
	 SCS Opposite-Spin Energy  =      -2.2660349609001269 [Eh]
	 SCS Correlation Energy    =      -2.4706948286335129 [Eh]
	 SCS Total Energy          =    -570.9130956051816383 [Eh]
	-----------------------------------------------------------

  Dipole Moment: [D]
     X:    -5.1294      Y:    -0.2258      Z:     0.2060     Total:     5.1385

*** Psi4 exiting successfully. Buy a developer a beer!
