                               Psi4 1.3.2 release

  ==> Input File <==

--------------------------------------------------------------------------
#psi4
#
memory 32 gb

molecule  {
0 1
  O        3.1477550    -1.4485350    -0.2143050
  N        0.9062980    -1.2504610    -0.5893500
  N        1.5690131     1.5489852     0.3030528
  C       -0.6961080     0.5074870     0.0337420
  C       -0.3911060    -0.8453020    -0.2363150
  C        0.3345050     1.5654110    -0.0838510
  C        1.9201190     0.2388570     1.0398190
  C       -2.0282860     0.8425430     0.3372020
  C       -1.4126000    -1.8085370    -0.2310830
  C        2.0871850    -0.8915250     0.0446260
  C       -0.0584500     2.8482670    -0.7690020
  C       -3.0319510    -0.1194250     0.3623450
  C       -2.7230760    -1.4503270     0.0616580
  H        0.9974690    -2.0891180    -1.1576180
  H        1.1650960    -0.0456930     1.7889680
  H        2.8821530     0.3846540     1.5322680
  H       -2.2754030     1.8777800     0.5574090
  H       -1.1609050    -2.8458310    -0.4446670
  H       -0.7945500     3.4046450    -0.1790500
  H       -0.5037450     2.6486950    -1.7485080
  H        0.8332190     3.4662990    -0.8854880
  H       -4.0517820     0.1644530     0.6082680
  H       -3.5008180    -2.2099170     0.0672390
units angstrom
no_reorient  #important for SAPT in psi4, default
symmetry c1  #important for SAPT in psi4, default
}

set PROPERTIES_ORIGIN ["COM"]
properties('MP2/aug-cc-pvtz', properties = ['dipole'])
--------------------------------------------------------------------------

    Molecular point group: c1
  Charge       = 0
  Multiplicity = 1
  Basis Set: AUG-CC-PVTZ
    Blend: AUG-CC-PVTZ
  Basis Set: (AUG-CC-PVTZ AUX)
    Blend: AUG-CC-PVTZ-JKFIT

    Orbital Energies [Eh]
    ---------------------

    Doubly Occupied:

       1A    -20.532723     2A    -15.607759     3A    -15.575388
       4A    -11.363528     5A    -11.315899     6A    -11.301627
       7A    -11.269920     8A    -11.269301     9A    -11.267931
      10A    -11.266849    11A    -11.259290    12A    -11.254923
      13A    -11.230857    14A     -1.387698    15A     -1.274330
      16A     -1.226669    17A     -1.165101    18A     -1.061428
      19A     -1.035982    20A     -1.009691    21A     -0.951695
      22A     -0.885303    23A     -0.859296    24A     -0.795491
      25A     -0.764864    26A     -0.729520    27A     -0.687028
      28A     -0.675636    29A     -0.657879    30A     -0.645886
      31A     -0.627102    32A     -0.613635    33A     -0.602082
      34A     -0.585332    35A     -0.567514    36A     -0.558492
      37A     -0.542490    38A     -0.534942    39A     -0.526252
      40A     -0.513493    41A     -0.456487    42A     -0.445099
      43A     -0.423703    44A     -0.409411    45A     -0.357247
      46A     -0.333343

  @DF-RHF Final Energy:  -568.45811636660494

   => Energetics <=

    Nuclear Repulsion Energy =            758.9270863779349838
    One-Electron Energy =               -2277.9181843042133551
    Two-Electron Energy =                 950.5329815596734306
    Total Energy =                       -568.4581163666049406
  Basis Set: (AUG-CC-PVTZ AUX)
    Blend: AUG-CC-PVTZ-RI
    Molecular point group: c1

    Geometry (in Angstrom), charge = 0, multiplicity = 1:

       Center              X                  Y                   Z               Mass
    ------------   -----------------  -----------------  -----------------  -----------------
         O            3.110108928439    -1.428162868880    -0.210931642376    15.994914619570
         N            0.868651928439    -1.230088868880    -0.585976642376    14.003074004430
         N            1.531367028439     1.569357331120     0.306426157624    14.003074004430
         C           -0.733754071561     0.527859131120     0.037115357624    12.000000000000
         C           -0.428752071561    -0.824929868880    -0.232941642376    12.000000000000
         C            0.296858928439     1.585783131120    -0.080477642376    12.000000000000
         C            1.882472928439     0.259229131120     1.043192357624    12.000000000000
         C           -2.065932071561     0.862915131120     0.340575357624    12.000000000000
         C           -1.450246071561    -1.788164868880    -0.227709642376    12.000000000000
         C            2.049538928439    -0.871152868880     0.047999357624    12.000000000000
         C           -0.096096071561     2.868639131120    -0.765628642376    12.000000000000
         C           -3.069597071561    -0.099052868880     0.365718357624    12.000000000000
         C           -2.760722071561    -1.429954868880     0.065031357624    12.000000000000
         H            0.959822928439    -2.068745868880    -1.154244642376     1.007825032230
         H            1.127449928439    -0.025320868880     1.792341357624     1.007825032230
         H            2.844506928439     0.405026131120     1.535641357624     1.007825032230
         H           -2.313049071561     1.898152131120     0.560782357624     1.007825032230
         H           -1.198551071561    -2.825458868880    -0.441293642376     1.007825032230
         H           -0.832196071561     3.425017131120    -0.175676642376     1.007825032230
         H           -0.541391071561     2.669067131120    -1.745134642376     1.007825032230
         H            0.795572928439     3.486671131120    -0.882114642376     1.007825032230
         H           -4.089428071561     0.184825131120     0.611641357624     1.007825032230
         H           -3.538464071561    -2.189544868880     0.070612357624     1.007825032230

  Basis Set: AUG-CC-PVTZ
    Blend: AUG-CC-PVTZ
  Basis Set: (AUG-CC-PVTZ AUX)
    Blend: AUG-CC-PVTZ-JKFIT
	 Reference Energy          =    -568.4581163666049406 [Eh]
	 Singles Energy            =      -0.0000000000000000 [Eh]
	 Same-Spin Energy          =      -0.6145796943596578 [Eh]
	 Opposite-Spin Energy      =      -1.8890630095815040 [Eh]
	 Correlation Energy        =      -2.5036427039411615 [Eh]
	 Total Energy              =    -570.9617590705461225 [Eh]

	 ================> DF-SCS-MP2 Energies <==================
	-----------------------------------------------------------
	 SCS Same-Spin Scale       =       0.3333333333333333 [-]
	 SCS Opposite-Spin Scale   =       1.2000000000000000 [-]
	 SCS Same-Spin Energy      =      -0.2048598981198859 [Eh]
	 SCS Opposite-Spin Energy  =      -2.2668756114978046 [Eh]
	 SCS Correlation Energy    =      -2.4717355096176905 [Eh]
	 SCS Total Energy          =    -570.9298518762226422 [Eh]
	-----------------------------------------------------------

  Dipole Moment: [D]
     X:    -5.1904      Y:    -0.3766      Z:     0.2819     Total:     5.2117

*** Psi4 exiting successfully. Buy a developer a beer!
