                               Psi4 1.3.2 release

  ==> Input File <==

--------------------------------------------------------------------------
#psi4
#
memory 32 gb

molecule  {
0 1
  O        3.1477550    -1.4485350    -0.2143050
  N        0.9062980    -1.2504610    -0.5893500
  N        1.5545360     1.4658350     0.3351760
  C       -0.6961080     0.5074870     0.0337420
  C       -0.2063294    -0.9030048    -0.2865943
  C        0.3345050     1.5654110    -0.0838510
  C        1.9201190     0.2388570     1.0398190
  C       -2.0282860     0.8425430     0.3372020
  C       -1.4126000    -1.8085370    -0.2310830
  C        2.0871850    -0.8915250     0.0446260
  C       -0.0584500     2.8482670    -0.7690020
  C       -3.0319510    -0.1194250     0.3623450
  C       -2.7230760    -1.4503270     0.0616580
  H        0.9974690    -2.0891180    -1.1576180
  H        1.1650960    -0.0456930     1.7889680
  H        2.8821530     0.3846540     1.5322680
  H       -2.2754030     1.8777800     0.5574090
  H       -1.1609050    -2.8458310    -0.4446670
  H       -0.7945500     3.4046450    -0.1790500
  H       -0.5037450     2.6486950    -1.7485080
  H        0.8332190     3.4662990    -0.8854880
  H       -4.0517820     0.1644530     0.6082680
  H       -3.5008180    -2.2099170     0.0672390
units angstrom
no_reorient  #important for SAPT in psi4, default
symmetry c1  #important for SAPT in psi4, default
}

set PROPERTIES_ORIGIN ["COM"]
properties('MP2/aug-cc-pvtz', properties = ['dipole'])
--------------------------------------------------------------------------

    Molecular point group: c1
  Charge       = 0
  Multiplicity = 1
  Basis Set: AUG-CC-PVTZ
    Blend: AUG-CC-PVTZ
  Basis Set: (AUG-CC-PVTZ AUX)
    Blend: AUG-CC-PVTZ-JKFIT

    Orbital Energies [Eh]
    ---------------------

    Doubly Occupied:

       1A    -20.552537     2A    -15.627902     3A    -15.561957
       4A    -11.379859     5A    -11.327112     6A    -11.297376
       7A    -11.272223     8A    -11.265117     9A    -11.261881
      10A    -11.261063    11A    -11.257736    12A    -11.241648
      13A    -11.230288    14A     -1.417041    15A     -1.343277
      16A     -1.240339    17A     -1.145456    18A     -1.058902
      19A     -1.026025    20A     -0.998251    21A     -0.957335
      22A     -0.905208    23A     -0.866758    24A     -0.806232
      25A     -0.766388    26A     -0.749453    27A     -0.699510
      28A     -0.687698    29A     -0.663829    30A     -0.639188
      31A     -0.627030    32A     -0.621442    33A     -0.607413
      34A     -0.589714    35A     -0.576179    36A     -0.555382
      37A     -0.541075    38A     -0.538201    39A     -0.521939
      40A     -0.493268    41A     -0.469777    42A     -0.461444
      43A     -0.410325    44A     -0.407356    45A     -0.349339
      46A     -0.301895

  @DF-RHF Final Energy:  -568.40083580077089

   => Energetics <=

    Nuclear Repulsion Energy =            761.2060314823191902
    One-Electron Energy =               -2282.0549960443145210
    Two-Electron Energy =                 952.4481287612243250
    Total Energy =                       -568.4008358007708921
  Basis Set: (AUG-CC-PVTZ AUX)
    Blend: AUG-CC-PVTZ-RI
    Molecular point group: c1

    Geometry (in Angstrom), charge = 0, multiplicity = 1:

       Center              X                  Y                   Z               Mass
    ------------   -----------------  -----------------  -----------------  -----------------
         O            3.098536069705    -1.417496512421    -0.210049699251    15.994914619570
         N            0.857079069705    -1.219422512421    -0.585094699251    14.003074004430
         N            1.505317069705     1.496873487579     0.339431300749    14.003074004430
         C           -0.745326930295     0.538525487579     0.037997300749    12.000000000000
         C           -0.255548330295    -0.871966312421    -0.282338999251    12.000000000000
         C            0.285286069705     1.596449487579    -0.079595699251    12.000000000000
         C            1.870900069705     0.269895487579     1.044074300749    12.000000000000
         C           -2.077504930295     0.873581487579     0.341457300749    12.000000000000
         C           -1.461818930295    -1.777498512421    -0.226827699251    12.000000000000
         C            2.037966069705    -0.860486512421     0.048881300749    12.000000000000
         C           -0.107668930295     2.879305487579    -0.764746699251    12.000000000000
         C           -3.081169930295    -0.088386512421     0.366600300749    12.000000000000
         C           -2.772294930295    -1.419288512421     0.065913300749    12.000000000000
         H            0.948250069705    -2.058079512421    -1.153362699251     1.007825032230
         H            1.115877069705    -0.014654512421     1.793223300749     1.007825032230
         H            2.832934069705     0.415692487579     1.536523300749     1.007825032230
         H           -2.324621930295     1.908818487579     0.561664300749     1.007825032230
         H           -1.210123930295    -2.814792512421    -0.440411699251     1.007825032230
         H           -0.843768930295     3.435683487579    -0.174794699251     1.007825032230
         H           -0.552963930295     2.679733487579    -1.744252699251     1.007825032230
         H            0.784000069705     3.497337487579    -0.881232699251     1.007825032230
         H           -4.101000930295     0.195491487579     0.612523300749     1.007825032230
         H           -3.550036930295    -2.178878512421     0.071494300749     1.007825032230

  Basis Set: AUG-CC-PVTZ
    Blend: AUG-CC-PVTZ
  Basis Set: (AUG-CC-PVTZ AUX)
    Blend: AUG-CC-PVTZ-JKFIT
	 Reference Energy          =    -568.4008358007708921 [Eh]
	 Singles Energy            =      -0.0000000000000000 [Eh]
	 Same-Spin Energy          =      -0.6181040124979755 [Eh]
	 Opposite-Spin Energy      =      -1.8914961057548623 [Eh]
	 Correlation Energy        =      -2.5096001182528376 [Eh]
	 Total Energy              =    -570.9104359190237119 [Eh]

	 ================> DF-SCS-MP2 Energies <==================
	-----------------------------------------------------------
	 SCS Same-Spin Scale       =       0.3333333333333333 [-]
	 SCS Opposite-Spin Scale   =       1.2000000000000000 [-]
	 SCS Same-Spin Energy      =      -0.2060346708326585 [Eh]
	 SCS Opposite-Spin Energy  =      -2.2697953269058346 [Eh]
	 SCS Correlation Energy    =      -2.4758299977384932 [Eh]
	 SCS Total Energy          =    -570.8766657985094071 [Eh]
	-----------------------------------------------------------

  Dipole Moment: [D]
     X:    -3.9916      Y:    -0.5796      Z:     0.0192     Total:     4.0335

*** Psi4 exiting successfully. Buy a developer a beer!
