                               Psi4 1.3.2 release

  ==> Input File <==

--------------------------------------------------------------------------
#psi4
#
memory 32 gb

molecule  {
0 1
  O        3.1477550    -1.4485350    -0.2143050
  N        0.9138112    -1.2271986    -0.5875850
  N        1.5545360     1.4658350     0.3351760
  C       -0.6961080     0.5074870     0.0337420
  C       -0.3911060    -0.8453020    -0.2363150
  C        0.3345050     1.5654110    -0.0838510
  C        1.9201190     0.2388570     1.0398190
  C       -2.0282860     0.8425430     0.3372020
  C       -1.4126000    -1.8085370    -0.2310830
  C        2.0871850    -0.8915250     0.0446260
  C       -0.0584500     2.8482670    -0.7690020
  C       -3.0319510    -0.1194250     0.3623450
  C       -2.7230760    -1.4503270     0.0616580
  H        0.9974690    -2.0891180    -1.1576180
  H        1.1650960    -0.0456930     1.7889680
  H        2.8821530     0.3846540     1.5322680
  H       -2.2754030     1.8777800     0.5574090
  H       -1.1609050    -2.8458310    -0.4446670
  H       -0.7945500     3.4046450    -0.1790500
  H       -0.5037450     2.6486950    -1.7485080
  H        0.8332190     3.4662990    -0.8854880
  H       -4.0517820     0.1644530     0.6082680
  H       -3.5008180    -2.2099170     0.0672390
units angstrom
no_reorient  #important for SAPT in psi4, default
symmetry c1  #important for SAPT in psi4, default
}

set PROPERTIES_ORIGIN ["COM"]
properties('MP2/aug-cc-pvtz', properties = ['dipole'])
--------------------------------------------------------------------------

    Molecular point group: c1
  Charge       = 0
  Multiplicity = 1
  Basis Set: AUG-CC-PVTZ
    Blend: AUG-CC-PVTZ
  Basis Set: (AUG-CC-PVTZ AUX)
    Blend: AUG-CC-PVTZ-JKFIT

    Orbital Energies [Eh]
    ---------------------

    Doubly Occupied:

       1A    -20.530905     2A    -15.609034     3A    -15.566962
       4A    -11.361090     5A    -11.314913     6A    -11.302145
       7A    -11.266938     8A    -11.266078     9A    -11.266018
      10A    -11.265710    11A    -11.259415    12A    -11.254315
      13A    -11.234136    14A     -1.387503    15A     -1.277138
      16A     -1.232509    17A     -1.165368    18A     -1.065803
      19A     -1.036358    20A     -1.010917    21A     -0.951232
      22A     -0.886442    23A     -0.859273    24A     -0.795208
      25A     -0.767370    26A     -0.727755    27A     -0.691845
      28A     -0.677383    29A     -0.658297    30A     -0.647547
      31A     -0.626493    32A     -0.618233    33A     -0.602457
      34A     -0.586430    35A     -0.567621    36A     -0.559004
      37A     -0.543641    38A     -0.539035    39A     -0.528086
      40A     -0.515048    41A     -0.457473    42A     -0.444473
      43A     -0.417473    44A     -0.404894    45A     -0.355191
      46A     -0.333169

  @DF-RHF Final Energy:  -568.46441511015485

   => Energetics <=

    Nuclear Repulsion Energy =            761.0870702263108569
    One-Electron Energy =               -2282.2343164969320242
    Two-Electron Energy =                 952.6828311604662076
    Total Energy =                       -568.4644151101548459
  Basis Set: (AUG-CC-PVTZ AUX)
    Blend: AUG-CC-PVTZ-RI
    Molecular point group: c1

    Geometry (in Angstrom), charge = 0, multiplicity = 1:

       Center              X                  Y                   Z               Mass
    ------------   -----------------  -----------------  -----------------  -----------------
         O            3.110669109919    -1.423345448124    -0.213657635283    15.994914619570
         N            0.876725309919    -1.202009048124    -0.586937635283    14.003074004430
         N            1.517450109919     1.491024551876     0.335823364717    14.003074004430
         C           -0.733193890081     0.532676551876     0.034389364717    12.000000000000
         C           -0.428191890081    -0.820112448124    -0.235667635283    12.000000000000
         C            0.297419109919     1.590600551876    -0.083203635283    12.000000000000
         C            1.883033109919     0.264046551876     1.040466364717    12.000000000000
         C           -2.065371890081     0.867732551876     0.337849364717    12.000000000000
         C           -1.449685890081    -1.783347448124    -0.230435635283    12.000000000000
         C            2.050099109919    -0.866335448124     0.045273364717    12.000000000000
         C           -0.095535890081     2.873456551876    -0.768354635283    12.000000000000
         C           -3.069036890081    -0.094235448124     0.362992364717    12.000000000000
         C           -2.760161890081    -1.425137448124     0.062305364717    12.000000000000
         H            0.960383109919    -2.063928448124    -1.156970635283     1.007825032230
         H            1.128010109919    -0.020503448124     1.789615364717     1.007825032230
         H            2.845067109919     0.409843551876     1.532915364717     1.007825032230
         H           -2.312488890081     1.902969551876     0.558056364717     1.007825032230
         H           -1.197990890081    -2.820641448124    -0.444019635283     1.007825032230
         H           -0.831635890081     3.429834551876    -0.178402635283     1.007825032230
         H           -0.540830890081     2.673884551876    -1.747860635283     1.007825032230
         H            0.796133109919     3.491488551876    -0.884840635283     1.007825032230
         H           -4.088867890081     0.189642551876     0.608915364717     1.007825032230
         H           -3.537903890081    -2.184727448124     0.067886364717     1.007825032230

  Basis Set: AUG-CC-PVTZ
    Blend: AUG-CC-PVTZ
  Basis Set: (AUG-CC-PVTZ AUX)
    Blend: AUG-CC-PVTZ-JKFIT
	 Reference Energy          =    -568.4644151101548459 [Eh]
	 Singles Energy            =      -0.0000000000000000 [Eh]
	 Same-Spin Energy          =      -0.6147046583461900 [Eh]
	 Opposite-Spin Energy      =      -1.8875289036118947 [Eh]
	 Correlation Energy        =      -2.5022335619580849 [Eh]
	 Total Energy              =    -570.9666486721129104 [Eh]

	 ================> DF-SCS-MP2 Energies <==================
	-----------------------------------------------------------
	 SCS Same-Spin Scale       =       0.3333333333333333 [-]
	 SCS Opposite-Spin Scale   =       1.2000000000000000 [-]
	 SCS Same-Spin Energy      =      -0.2049015527820633 [Eh]
	 SCS Opposite-Spin Energy  =      -2.2650346843342737 [Eh]
	 SCS Correlation Energy    =      -2.4699362371163369 [Eh]
	 SCS Total Energy          =    -570.9343513472712175 [Eh]
	-----------------------------------------------------------

  Dipole Moment: [D]
     X:    -5.1889      Y:    -0.2624      Z:     0.2238     Total:     5.2003

*** Psi4 exiting successfully. Buy a developer a beer!
