                               Psi4 1.3.2 release

  ==> Input File <==

--------------------------------------------------------------------------
#psi4
#
memory 32 gb

molecule  {
0 1
  O        3.1477550    -1.4485350    -0.2143050
  N        0.9062980    -1.2504610    -0.5893500
  N        1.5545360     1.4658350     0.3351760
  C       -0.6961080     0.5074870     0.0337420
  C       -0.3911060    -0.8453020    -0.2363150
  C        0.3345050     1.5654110    -0.0838510
  C        1.9201190     0.2388570     1.0398190
  C       -1.9335895     0.8187259     0.3156309
  C       -1.4126000    -1.8085370    -0.2310830
  C        2.0871850    -0.8915250     0.0446260
  C       -0.0584500     2.8482670    -0.7690020
  C       -3.0319510    -0.1194250     0.3623450
  C       -2.7230760    -1.4503270     0.0616580
  H        0.9974690    -2.0891180    -1.1576180
  H        1.1650960    -0.0456930     1.7889680
  H        2.8821530     0.3846540     1.5322680
  H       -2.2754030     1.8777800     0.5574090
  H       -1.1609050    -2.8458310    -0.4446670
  H       -0.7945500     3.4046450    -0.1790500
  H       -0.5037450     2.6486950    -1.7485080
  H        0.8332190     3.4662990    -0.8854880
  H       -4.0517820     0.1644530     0.6082680
  H       -3.5008180    -2.2099170     0.0672390
units angstrom
no_reorient  #important for SAPT in psi4, default
symmetry c1  #important for SAPT in psi4, default
}

set PROPERTIES_ORIGIN ["COM"]
properties('MP2/aug-cc-pvtz', properties = ['dipole'])
--------------------------------------------------------------------------

    Molecular point group: c1
  Charge       = 0
  Multiplicity = 1
  Basis Set: AUG-CC-PVTZ
    Blend: AUG-CC-PVTZ
  Basis Set: (AUG-CC-PVTZ AUX)
    Blend: AUG-CC-PVTZ-JKFIT

    Orbital Energies [Eh]
    ---------------------

    Doubly Occupied:

       1A    -20.533045     2A    -15.607085     3A    -15.568118
       4A    -11.363124     5A    -11.314464     6A    -11.303281
       7A    -11.268138     8A    -11.265176     9A    -11.263367
      10A    -11.257489    11A    -11.257163    12A    -11.255597
      13A    -11.234333    14A     -1.388100    15A     -1.277622
      16A     -1.233865    17A     -1.170626    18A     -1.073146
      19A     -1.030952    20A     -1.012715    21A     -0.951544
      22A     -0.880344    23A     -0.861708    24A     -0.796860
      25A     -0.771298    26A     -0.724741    27A     -0.692934
      28A     -0.679098    29A     -0.659724    30A     -0.647626
      31A     -0.627020    32A     -0.618151    33A     -0.600504
      34A     -0.586973    35A     -0.567356    36A     -0.557428
      37A     -0.548738    38A     -0.537294    39A     -0.529716
      40A     -0.507469    41A     -0.458641    42A     -0.443584
      43A     -0.418147    44A     -0.407769    45A     -0.365071
      46A     -0.325493

  @DF-RHF Final Energy:  -568.45241254763619

   => Energetics <=

    Nuclear Repulsion Energy =            762.5119283908920806
    One-Electron Energy =               -2285.0434086885697980
    Two-Electron Energy =                 954.0790677500415313
    Total Energy =                       -568.4524125476361860
  Basis Set: (AUG-CC-PVTZ AUX)
    Blend: AUG-CC-PVTZ-RI
    Molecular point group: c1

    Geometry (in Angstrom), charge = 0, multiplicity = 1:

       Center              X                  Y                   Z               Mass
    ------------   -----------------  -----------------  -----------------  -----------------
         O            3.104745659930    -1.419832392504    -0.212028673054    15.994914619570
         N            0.863288659930    -1.221758392504    -0.587073673054    14.003074004430
         N            1.511526659930     1.494537607496     0.337452326946    14.003074004430
         C           -0.739117340070     0.536189607496     0.036018326946    12.000000000000
         C           -0.434115340070    -0.816599392504    -0.234038673054    12.000000000000
         C            0.291495659930     1.594113607496    -0.081574673054    12.000000000000
         C            1.877109659930     0.267559607496     1.042095326946    12.000000000000
         C           -1.976598840070     0.847428507496     0.317907226946    12.000000000000
         C           -1.455609340070    -1.779834392504    -0.228806673054    12.000000000000
         C            2.044175659930    -0.862822392504     0.046902326946    12.000000000000
         C           -0.101459340070     2.876969607496    -0.766725673054    12.000000000000
         C           -3.074960340070    -0.090722392504     0.364621326946    12.000000000000
         C           -2.766085340070    -1.421624392504     0.063934326946    12.000000000000
         H            0.954459659930    -2.060415392504    -1.155341673054     1.007825032230
         H            1.122086659930    -0.016990392504     1.791244326946     1.007825032230
         H            2.839143659930     0.413356607496     1.534544326946     1.007825032230
         H           -2.318412340070     1.906482607496     0.559685326946     1.007825032230
         H           -1.203914340070    -2.817128392504    -0.442390673054     1.007825032230
         H           -0.837559340070     3.433347607496    -0.176773673054     1.007825032230
         H           -0.546754340070     2.677397607496    -1.746231673054     1.007825032230
         H            0.790209659930     3.495001607496    -0.883211673054     1.007825032230
         H           -4.094791340070     0.193155607496     0.610544326946     1.007825032230
         H           -3.543827340070    -2.181214392504     0.069515326946     1.007825032230

  Basis Set: AUG-CC-PVTZ
    Blend: AUG-CC-PVTZ
  Basis Set: (AUG-CC-PVTZ AUX)
    Blend: AUG-CC-PVTZ-JKFIT
	 Reference Energy          =    -568.4524125476361860 [Eh]
	 Singles Energy            =      -0.0000000000000000 [Eh]
	 Same-Spin Energy          =      -0.6143653479417089 [Eh]
	 Opposite-Spin Energy      =      -1.8876282369247903 [Eh]
	 Correlation Energy        =      -2.5019935848664994 [Eh]
	 Total Energy              =    -570.9544061325026405 [Eh]

	 ================> DF-SCS-MP2 Energies <==================
	-----------------------------------------------------------
	 SCS Same-Spin Scale       =       0.3333333333333333 [-]
	 SCS Opposite-Spin Scale   =       1.2000000000000000 [-]
	 SCS Same-Spin Energy      =      -0.2047884493139030 [Eh]
	 SCS Opposite-Spin Energy  =      -2.2651538843097483 [Eh]
	 SCS Correlation Energy    =      -2.4699423336236515 [Eh]
	 SCS Total Energy          =    -570.9223548812598210 [Eh]
	-----------------------------------------------------------

  Dipole Moment: [D]
     X:    -5.0706      Y:    -0.2246      Z:     0.2355     Total:     5.0811

*** Psi4 exiting successfully. Buy a developer a beer!
