                               Psi4 1.3.2 release

  ==> Input File <==

--------------------------------------------------------------------------
#psi4
#
memory 32 gb

molecule  {
0 1
  O        3.1477550    -1.4485350    -0.2143050
  N        0.9062980    -1.2504610    -0.5893500
  N        1.6410551     1.4567840     0.2819108
  C       -0.6961080     0.5074870     0.0337420
  C       -0.3911060    -0.8453020    -0.2363150
  C        0.3345050     1.5654110    -0.0838510
  C        1.9201190     0.2388570     1.0398190
  C       -2.0282860     0.8425430     0.3372020
  C       -1.4126000    -1.8085370    -0.2310830
  C        2.0871850    -0.8915250     0.0446260
  C       -0.0584500     2.8482670    -0.7690020
  C       -3.0319510    -0.1194250     0.3623450
  C       -2.7230760    -1.4503270     0.0616580
  H        0.9974690    -2.0891180    -1.1576180
  H        1.1650960    -0.0456930     1.7889680
  H        2.8821530     0.3846540     1.5322680
  H       -2.2754030     1.8777800     0.5574090
  H       -1.1609050    -2.8458310    -0.4446670
  H       -0.7945500     3.4046450    -0.1790500
  H       -0.5037450     2.6486950    -1.7485080
  H        0.8332190     3.4662990    -0.8854880
  H       -4.0517820     0.1644530     0.6082680
  H       -3.5008180    -2.2099170     0.0672390
units angstrom
no_reorient  #important for SAPT in psi4, default
symmetry c1  #important for SAPT in psi4, default
}

set PROPERTIES_ORIGIN ["COM"]
properties('MP2/aug-cc-pvtz', properties = ['dipole'])
--------------------------------------------------------------------------

    Molecular point group: c1
  Charge       = 0
  Multiplicity = 1
  Basis Set: AUG-CC-PVTZ
    Blend: AUG-CC-PVTZ
  Basis Set: (AUG-CC-PVTZ AUX)
    Blend: AUG-CC-PVTZ-JKFIT

    Orbital Energies [Eh]
    ---------------------

    Doubly Occupied:

       1A    -20.529635     2A    -15.606962     3A    -15.575693
       4A    -11.359987     5A    -11.316989     6A    -11.313876
       7A    -11.270082     8A    -11.268828     9A    -11.267886
      10A    -11.263444    11A    -11.259683    12A    -11.255354
      13A    -11.236766    14A     -1.385382    15A     -1.272990
      16A     -1.216224    17A     -1.166381    18A     -1.068539
      19A     -1.035811    20A     -1.010608    21A     -0.944009
      22A     -0.887696    23A     -0.859535    24A     -0.793991
      25A     -0.769453    26A     -0.730656    27A     -0.686092
      28A     -0.678782    29A     -0.657562    30A     -0.648121
      31A     -0.627505    32A     -0.613379    33A     -0.602432
      34A     -0.586717    35A     -0.567751    36A     -0.560769
      37A     -0.543511    38A     -0.536557    39A     -0.525521
      40A     -0.511815    41A     -0.451389    42A     -0.444123
      43A     -0.428388    44A     -0.398287    45A     -0.352231
      46A     -0.333521

  @DF-RHF Final Energy:  -568.45196472046484

   => Energetics <=

    Nuclear Repulsion Energy =            759.2742892725909769
    One-Electron Energy =               -2278.6106797103157078
    Two-Electron Energy =                 950.8844257172598873
    Total Energy =                       -568.4519647204648436
  Basis Set: (AUG-CC-PVTZ AUX)
    Blend: AUG-CC-PVTZ-RI
    Molecular point group: c1

    Geometry (in Angstrom), charge = 0, multiplicity = 1:

       Center              X                  Y                   Z               Mass
    ------------   -----------------  -----------------  -----------------  -----------------
         O            3.104313814475    -1.420746133342    -0.209230963613    15.994914619570
         N            0.862856814475    -1.222672133342    -0.584275963613    14.003074004430
         N            1.597613914475     1.484572866658     0.286984836387    14.003074004430
         C           -0.739549185525     0.535275866658     0.038816036387    12.000000000000
         C           -0.434547185525    -0.817513133342    -0.231240963613    12.000000000000
         C            0.291063814475     1.593199866658    -0.078776963613    12.000000000000
         C            1.876677814475     0.266645866658     1.044893036387    12.000000000000
         C           -2.071727185525     0.870331866658     0.342276036387    12.000000000000
         C           -1.456041185525    -1.780748133342    -0.226008963613    12.000000000000
         C            2.043743814475    -0.863736133342     0.049700036387    12.000000000000
         C           -0.101891185525     2.876055866658    -0.763927963613    12.000000000000
         C           -3.075392185525    -0.091636133342     0.367419036387    12.000000000000
         C           -2.766517185525    -1.422538133342     0.066732036387    12.000000000000
         H            0.954027814475    -2.061329133342    -1.152543963613     1.007825032230
         H            1.121654814475    -0.017904133342     1.794042036387     1.007825032230
         H            2.838711814475     0.412442866658     1.537342036387     1.007825032230
         H           -2.318844185525     1.905568866658     0.562483036387     1.007825032230
         H           -1.204346185525    -2.818042133342    -0.439592963613     1.007825032230
         H           -0.837991185525     3.432433866658    -0.173975963613     1.007825032230
         H           -0.547186185525     2.676483866658    -1.743433963613     1.007825032230
         H            0.789777814475     3.494087866658    -0.880413963613     1.007825032230
         H           -4.095223185525     0.192241866658     0.613342036387     1.007825032230
         H           -3.544259185525    -2.182128133342     0.072313036387     1.007825032230

  Basis Set: AUG-CC-PVTZ
    Blend: AUG-CC-PVTZ
  Basis Set: (AUG-CC-PVTZ AUX)
    Blend: AUG-CC-PVTZ-JKFIT
	 Reference Energy          =    -568.4519647204648436 [Eh]
	 Singles Energy            =      -0.0000000000000000 [Eh]
	 Same-Spin Energy          =      -0.6164912894615215 [Eh]
	 Opposite-Spin Energy      =      -1.8916372541397588 [Eh]
	 Correlation Energy        =      -2.5081285436012806 [Eh]
	 Total Energy              =    -570.9600932640661313 [Eh]

	 ================> DF-SCS-MP2 Energies <==================
	-----------------------------------------------------------
	 SCS Same-Spin Scale       =       0.3333333333333333 [-]
	 SCS Opposite-Spin Scale   =       1.2000000000000000 [-]
	 SCS Same-Spin Energy      =      -0.2054970964871738 [Eh]
	 SCS Opposite-Spin Energy  =      -2.2699647049677103 [Eh]
	 SCS Correlation Energy    =      -2.4754618014548839 [Eh]
	 SCS Total Energy          =    -570.9274265219197559 [Eh]
	-----------------------------------------------------------

  Dipole Moment: [D]
     X:    -5.2890      Y:    -0.2483      Z:     0.2963     Total:     5.3031

*** Psi4 exiting successfully. Buy a developer a beer!
