                               Psi4 1.3.2 release

  ==> Input File <==

--------------------------------------------------------------------------
#psi4
#
memory 32 gb

molecule  {
0 1
  O        3.1477550    -1.4485350    -0.2143050
  N        0.9062980    -1.2504610    -0.5893500
  N        1.5545360     1.4658350     0.3351760
  C       -0.6961080     0.5074870     0.0337420
  C       -0.3911060    -0.8453020    -0.2363150
  C        0.5230984     1.5500185    -0.0190775
  C        1.9201190     0.2388570     1.0398190
  C       -2.0282860     0.8425430     0.3372020
  C       -1.4126000    -1.8085370    -0.2310830
  C        2.0871850    -0.8915250     0.0446260
  C       -0.0584500     2.8482670    -0.7690020
  C       -3.0319510    -0.1194250     0.3623450
  C       -2.7230760    -1.4503270     0.0616580
  H        0.9974690    -2.0891180    -1.1576180
  H        1.1650960    -0.0456930     1.7889680
  H        2.8821530     0.3846540     1.5322680
  H       -2.2754030     1.8777800     0.5574090
  H       -1.1609050    -2.8458310    -0.4446670
  H       -0.7945500     3.4046450    -0.1790500
  H       -0.5037450     2.6486950    -1.7485080
  H        0.8332190     3.4662990    -0.8854880
  H       -4.0517820     0.1644530     0.6082680
  H       -3.5008180    -2.2099170     0.0672390
units angstrom
no_reorient  #important for SAPT in psi4, default
symmetry c1  #important for SAPT in psi4, default
}

set PROPERTIES_ORIGIN ["COM"]
properties('MP2/aug-cc-pvtz', properties = ['dipole'])
--------------------------------------------------------------------------

    Molecular point group: c1
  Charge       = 0
  Multiplicity = 1
  Basis Set: AUG-CC-PVTZ
    Blend: AUG-CC-PVTZ
  Basis Set: (AUG-CC-PVTZ AUX)
    Blend: AUG-CC-PVTZ-JKFIT

    Orbital Energies [Eh]
    ---------------------

    Doubly Occupied:

       1A    -20.537246     2A    -15.607425     3A    -15.552513
       4A    -11.368177     5A    -11.305595     6A    -11.286458
       7A    -11.280149     8A    -11.264138     9A    -11.260974
      10A    -11.259007    11A    -11.253788    12A    -11.250094
      13A    -11.227796    14A     -1.392983    15A     -1.334446
      16A     -1.263219    17A     -1.158014    18A     -1.047035
      19A     -1.036010    20A     -1.011959    21A     -0.956893
      22A     -0.871954    23A     -0.853595    24A     -0.797887
      25A     -0.756133    26A     -0.722221    27A     -0.704130
      28A     -0.686850    29A     -0.656016    30A     -0.643117
      31A     -0.634037    32A     -0.623061    33A     -0.610540
      34A     -0.578861    35A     -0.569414    36A     -0.556746
      37A     -0.547553    38A     -0.533154    39A     -0.527895
      40A     -0.509351    41A     -0.496152    42A     -0.444994
      43A     -0.433727    44A     -0.384958    45A     -0.354122
      46A     -0.328877

  @DF-RHF Final Energy:  -568.40272142437084

   => Energetics <=

    Nuclear Repulsion Energy =            762.0544817310792496
    One-Electron Energy =               -2283.9558766374329934
    Two-Electron Energy =                 953.4986734819829053
    Total Energy =                       -568.4027214243708386
  Basis Set: (AUG-CC-PVTZ AUX)
    Blend: AUG-CC-PVTZ-RI
    Molecular point group: c1

    Geometry (in Angstrom), charge = 0, multiplicity = 1:

       Center              X                  Y                   Z               Mass
    ------------   -----------------  -----------------  -----------------  -----------------
         O            3.098272962049    -1.420413134686    -0.217980759965    15.994914619570
         N            0.856815962049    -1.222339134686    -0.593025759965    14.003074004430
         N            1.505053962049     1.493956865314     0.331500240035    14.003074004430
         C           -0.745590037951     0.535608865314     0.030066240035    12.000000000000
         C           -0.440588037951    -0.817180134686    -0.239990759965    12.000000000000
         C            0.473616362049     1.578140365314    -0.022753259965    12.000000000000
         C            1.870636962049     0.266978865314     1.036143240035    12.000000000000
         C           -2.077768037951     0.870664865314     0.333526240035    12.000000000000
         C           -1.462082037951    -1.780415134686    -0.234758759965    12.000000000000
         C            2.037702962049    -0.863403134686     0.040950240035    12.000000000000
         C           -0.107932037951     2.876388865314    -0.772677759965    12.000000000000
         C           -3.081433037951    -0.091303134686     0.358669240035    12.000000000000
         C           -2.772558037951    -1.422205134686     0.057982240035    12.000000000000
         H            0.947986962049    -2.060996134686    -1.161293759965     1.007825032230
         H            1.115613962049    -0.017571134686     1.785292240035     1.007825032230
         H            2.832670962049     0.412775865314     1.528592240035     1.007825032230
         H           -2.324885037951     1.905901865314     0.553733240035     1.007825032230
         H           -1.210387037951    -2.817709134686    -0.448342759965     1.007825032230
         H           -0.844032037951     3.432766865314    -0.182725759965     1.007825032230
         H           -0.553227037951     2.676816865314    -1.752183759965     1.007825032230
         H            0.783736962049     3.494420865314    -0.889163759965     1.007825032230
         H           -4.101264037951     0.192574865314     0.604592240035     1.007825032230
         H           -3.550300037951    -2.181795134686     0.063563240035     1.007825032230

  Basis Set: AUG-CC-PVTZ
    Blend: AUG-CC-PVTZ
  Basis Set: (AUG-CC-PVTZ AUX)
    Blend: AUG-CC-PVTZ-JKFIT
	 Reference Energy          =    -568.4027214243708386 [Eh]
	 Singles Energy            =      -0.0000000000000000 [Eh]
	 Same-Spin Energy          =      -0.6110922519364953 [Eh]
	 Opposite-Spin Energy      =      -1.8805239855031535 [Eh]
	 Correlation Energy        =      -2.4916162374396489 [Eh]
	 Total Energy              =    -570.8943376618104821 [Eh]

	 ================> DF-SCS-MP2 Energies <==================
	-----------------------------------------------------------
	 SCS Same-Spin Scale       =       0.3333333333333333 [-]
	 SCS Opposite-Spin Scale   =       1.2000000000000000 [-]
	 SCS Same-Spin Energy      =      -0.2036974173121651 [Eh]
	 SCS Opposite-Spin Energy  =      -2.2566287826037841 [Eh]
	 SCS Correlation Energy    =      -2.4603261999159494 [Eh]
	 SCS Total Energy          =    -570.8630476242867644 [Eh]
	-----------------------------------------------------------

  Dipole Moment: [D]
     X:    -4.4156      Y:    -0.2576      Z:     0.5125     Total:     4.4527

*** Psi4 exiting successfully. Buy a developer a beer!
