                               Psi4 1.4a3.dev225

  ==> Input File <==

--------------------------------------------------------------------------
#psi4
#
memory 32 gb

molecule  {
0 1
  O        3.1477550    -1.4485350    -0.2143050
  N        0.9062980    -1.2504610    -0.5893500
  N        1.5545360     1.4658350     0.3351760
  C       -0.6961080     0.5074870     0.0337420
  C       -0.3911060    -0.8453020    -0.2363150
  C        0.3345050     1.5654110    -0.0838510
  C        1.9201190     0.2388570     1.0398190
  C       -2.0282860     0.8425430     0.3372020
  C       -1.4126000    -1.8085370    -0.2310830
  C        2.0446316    -0.9044593     0.0217806
  C       -0.0584500     2.8482670    -0.7690020
  C       -3.0319510    -0.1194250     0.3623450
  C       -2.7230760    -1.4503270     0.0616580
  H        0.9974690    -2.0891180    -1.1576180
  H        1.1650960    -0.0456930     1.7889680
  H        2.8821530     0.3846540     1.5322680
  H       -2.2754030     1.8777800     0.5574090
  H       -1.1609050    -2.8458310    -0.4446670
  H       -0.7945500     3.4046450    -0.1790500
  H       -0.5037450     2.6486950    -1.7485080
  H        0.8332190     3.4662990    -0.8854880
  H       -4.0517820     0.1644530     0.6082680
  H       -3.5008180    -2.2099170     0.0672390
units angstrom
no_reorient  #important for SAPT in psi4, default
symmetry c1  #important for SAPT in psi4, default
}

set PROPERTIES_ORIGIN ["COM"]
properties('MP2/aug-cc-pvtz', properties = ['dipole'])
--------------------------------------------------------------------------

    Molecular point group: c1
  Charge       = 0
  Multiplicity = 1
  Basis Set: AUG-CC-PVTZ
    Blend: AUG-CC-PVTZ
  Basis Set: (AUG-CC-PVTZ AUX)
    Blend: AUG-CC-PVTZ-JKFIT

    Orbital Energies [Eh]
    ---------------------

    Doubly Occupied:

       1A    -20.522132     2A    -15.614838     3A    -15.567338
       4A    -11.359482     5A    -11.317922     6A    -11.302263
       7A    -11.269874     8A    -11.268310     9A    -11.267899
      10A    -11.266563    11A    -11.262173    12A    -11.257039
      13A    -11.234670    14A     -1.373587    15A     -1.280444
      16A     -1.236386    17A     -1.169069    18A     -1.066376
      19A     -1.039821    20A     -1.013204    21A     -0.948156
      22A     -0.891383    23A     -0.863466    24A     -0.802857
      25A     -0.770723    26A     -0.733736    27A     -0.691666
      28A     -0.673004    29A     -0.660419    30A     -0.650455
      31A     -0.627801    32A     -0.620182    33A     -0.595705
      34A     -0.585809    35A     -0.568800    36A     -0.559862
      37A     -0.544324    38A     -0.540466    39A     -0.526937
      40A     -0.517643    41A     -0.452909    42A     -0.440184
      43A     -0.417144    44A     -0.401682    45A     -0.356386
      46A     -0.336724

  @DF-RHF Final Energy:  -568.46130372881635

   => Energetics <=

    Nuclear Repulsion Energy =            761.1405650000451715
    One-Electron Energy =               -2282.2681124075670596
    Two-Electron Energy =                 952.6662436787055412
    Total Energy =                       -568.4613037288163468
  Basis Set: (AUG-CC-PVTZ AUX)
    Blend: AUG-CC-PVTZ-RI
    Molecular point group: c1

    Geometry (in Angstrom), charge = 0, multiplicity = 1:

       Center              X                  Y                   Z               Mass
    ------------   -----------------  -----------------  -----------------  -----------------
         O            3.114206857657    -1.420582588480    -0.211940830336    15.994914619570
         N            0.872749857657    -1.222508588480    -0.586985830336    14.003074004430
         N            1.520987857657     1.493787411520     0.337540169664    14.003074004430
         C           -0.729656142343     0.535439411520     0.036106169664    12.000000000000
         C           -0.424654142343    -0.817349588480    -0.233950830336    12.000000000000
         C            0.300956857657     1.593363411520    -0.081486830336    12.000000000000
         C            1.886570857657     0.266809411520     1.042183169664    12.000000000000
         C           -2.061834142343     0.870495411520     0.339566169664    12.000000000000
         C           -1.446148142343    -1.780584588480    -0.228718830336    12.000000000000
         C            2.011083457657    -0.876506888480     0.024144769664    12.000000000000
         C           -0.091998142343     2.876219411520    -0.766637830336    12.000000000000
         C           -3.065499142343    -0.091472588480     0.364709169664    12.000000000000
         C           -2.756624142343    -1.422374588480     0.064022169664    12.000000000000
         H            0.963920857657    -2.061165588480    -1.155253830336     1.007825032230
         H            1.131547857657    -0.017740588480     1.791332169664     1.007825032230
         H            2.848604857657     0.412606411520     1.534632169664     1.007825032230
         H           -2.308951142343     1.905732411520     0.559773169664     1.007825032230
         H           -1.194453142343    -2.817878588480    -0.442302830336     1.007825032230
         H           -0.828098142343     3.432597411520    -0.176685830336     1.007825032230
         H           -0.537293142343     2.676647411520    -1.746143830336     1.007825032230
         H            0.799670857657     3.494251411520    -0.883123830336     1.007825032230
         H           -4.085330142343     0.192405411520     0.610632169664     1.007825032230
         H           -3.534366142343    -2.181964588480     0.069603169664     1.007825032230

  Basis Set: AUG-CC-PVTZ
    Blend: AUG-CC-PVTZ
  Basis Set: (AUG-CC-PVTZ AUX)
    Blend: AUG-CC-PVTZ-JKFIT
	 Reference Energy          =    -568.4613037288163468 [Eh]
	 Singles Energy            =      -0.0000000000000000 [Eh]
	 Same-Spin Energy          =      -0.6148395680627370 [Eh]
	 Opposite-Spin Energy      =      -1.8879559705576010 [Eh]
	 Correlation Energy        =      -2.5027955386203380 [Eh]
	 Total Energy              =    -570.9640992674367226 [Eh]

	 ================> DF-SCS-MP2 Energies <==================
	-----------------------------------------------------------
	 SCS Same-Spin Scale       =       0.3333333333333333 [-]
	 SCS Opposite-Spin Scale   =       1.2000000000000000 [-]
	 SCS Same-Spin Energy      =      -0.2049465226875790 [Eh]
	 SCS Opposite-Spin Energy  =      -2.2655471646691212 [Eh]
	 SCS Correlation Energy    =      -2.4704936873567003 [Eh]
	 SCS Total Energy          =    -570.9317974161730262 [Eh]
	-----------------------------------------------------------

  Dipole Moment: [D]
     X:    -5.5973      Y:    -0.2198      Z:     0.1482     Total:     5.6036

*** Psi4 exiting successfully. Buy a developer a beer!
