                               Psi4 1.3.2 release

  ==> Input File <==

--------------------------------------------------------------------------
#psi4
#
memory 32 gb

molecule  {
0 1
  O        3.1477550    -1.4485350    -0.2143050
  N        0.9062980    -1.2504610    -0.5893500
  N        1.5545360     1.4658350     0.3351760
  C       -0.6961080     0.5074870     0.0337420
  C       -0.3585428    -0.8810378    -0.2282954
  C        0.3345050     1.5654110    -0.0838510
  C        1.9201190     0.2388570     1.0398190
  C       -2.0282860     0.8425430     0.3372020
  C       -1.4126000    -1.8085370    -0.2310830
  C        2.0871850    -0.8915250     0.0446260
  C       -0.0584500     2.8482670    -0.7690020
  C       -3.0319510    -0.1194250     0.3623450
  C       -2.7230760    -1.4503270     0.0616580
  H        0.9974690    -2.0891180    -1.1576180
  H        1.1650960    -0.0456930     1.7889680
  H        2.8821530     0.3846540     1.5322680
  H       -2.2754030     1.8777800     0.5574090
  H       -1.1609050    -2.8458310    -0.4446670
  H       -0.7945500     3.4046450    -0.1790500
  H       -0.5037450     2.6486950    -1.7485080
  H        0.8332190     3.4662990    -0.8854880
  H       -4.0517820     0.1644530     0.6082680
  H       -3.5008180    -2.2099170     0.0672390
units angstrom
no_reorient  #important for SAPT in psi4, default
symmetry c1  #important for SAPT in psi4, default
}

set PROPERTIES_ORIGIN ["COM"]
properties('MP2/aug-cc-pvtz', properties = ['dipole'])
--------------------------------------------------------------------------

    Molecular point group: c1
  Charge       = 0
  Multiplicity = 1
  Basis Set: AUG-CC-PVTZ
    Blend: AUG-CC-PVTZ
  Basis Set: (AUG-CC-PVTZ AUX)
    Blend: AUG-CC-PVTZ-JKFIT

    Orbital Energies [Eh]
    ---------------------

    Doubly Occupied:

       1A    -20.535670     2A    -15.610402     3A    -15.566146
       4A    -11.365579     5A    -11.316239     6A    -11.301560
       7A    -11.268010     8A    -11.267868     9A    -11.265458
      10A    -11.265002    11A    -11.256625    12A    -11.252155
      13A    -11.233498    14A     -1.391506    15A     -1.284534
      16A     -1.235824    17A     -1.161080    18A     -1.063254
      19A     -1.035409    20A     -1.007527    21A     -0.952569
      22A     -0.887683    23A     -0.858373    24A     -0.798170
      25A     -0.765462    26A     -0.735336    27A     -0.692657
      28A     -0.679375    29A     -0.658835    30A     -0.643558
      31A     -0.624756    32A     -0.618782    33A     -0.608599
      34A     -0.586319    35A     -0.569517    36A     -0.558404
      37A     -0.543543    38A     -0.538669    39A     -0.525734
      40A     -0.510760    41A     -0.459931    42A     -0.449087
      43A     -0.416903    44A     -0.406159    45A     -0.353736
      46A     -0.326765

  @DF-RHF Final Energy:  -568.46208105736628

   => Energetics <=

    Nuclear Repulsion Energy =            760.6032163074446544
    One-Electron Energy =               -2281.2245398567520169
    Two-Electron Energy =                 952.1592424919410860
    Total Energy =                       -568.4620810573662766
  Basis Set: (AUG-CC-PVTZ AUX)
    Blend: AUG-CC-PVTZ-RI
    Molecular point group: c1

    Geometry (in Angstrom), charge = 0, multiplicity = 1:

       Center              X                  Y                   Z               Mass
    ------------   -----------------  -----------------  -----------------  -----------------
         O            3.109028762771    -1.419010787699    -0.214068481197    15.994914619570
         N            0.867571762771    -1.220936787699    -0.589113481197    14.003074004430
         N            1.515809762771     1.495359212301     0.335412518803    14.003074004430
         C           -0.734834237229     0.537011212301     0.033978518803    12.000000000000
         C           -0.397269037229    -0.851513587699    -0.228058881197    12.000000000000
         C            0.295778762771     1.594935212301    -0.083614481197    12.000000000000
         C            1.881392762771     0.268381212301     1.040055518803    12.000000000000
         C           -2.067012237229     0.872067212301     0.337438518803    12.000000000000
         C           -1.451326237229    -1.779012787699    -0.230846481197    12.000000000000
         C            2.048458762771    -0.862000787699     0.044862518803    12.000000000000
         C           -0.097176237229     2.877791212301    -0.768765481197    12.000000000000
         C           -3.070677237229    -0.089900787699     0.362581518803    12.000000000000
         C           -2.761802237229    -1.420802787699     0.061894518803    12.000000000000
         H            0.958742762771    -2.059593787699    -1.157381481197     1.007825032230
         H            1.126369762771    -0.016168787699     1.789204518803     1.007825032230
         H            2.843426762771     0.414178212301     1.532504518803     1.007825032230
         H           -2.314129237229     1.907304212301     0.557645518803     1.007825032230
         H           -1.199631237229    -2.816306787699    -0.444430481197     1.007825032230
         H           -0.833276237229     3.434169212301    -0.178813481197     1.007825032230
         H           -0.542471237229     2.678219212301    -1.748271481197     1.007825032230
         H            0.794492762771     3.495823212301    -0.885251481197     1.007825032230
         H           -4.090508237229     0.193977212301     0.608504518803     1.007825032230
         H           -3.539544237229    -2.180392787699     0.067475518803     1.007825032230

  Basis Set: AUG-CC-PVTZ
    Blend: AUG-CC-PVTZ
  Basis Set: (AUG-CC-PVTZ AUX)
    Blend: AUG-CC-PVTZ-JKFIT
	 Reference Energy          =    -568.4620810573662766 [Eh]
	 Singles Energy            =      -0.0000000000000000 [Eh]
	 Same-Spin Energy          =      -0.6150321366856619 [Eh]
	 Opposite-Spin Energy      =      -1.8877193895665640 [Eh]
	 Correlation Energy        =      -2.5027515262522257 [Eh]
	 Total Energy              =    -570.9648325836185450 [Eh]

	 ================> DF-SCS-MP2 Energies <==================
	-----------------------------------------------------------
	 SCS Same-Spin Scale       =       0.3333333333333333 [-]
	 SCS Opposite-Spin Scale   =       1.2000000000000000 [-]
	 SCS Same-Spin Energy      =      -0.2050107122285540 [Eh]
	 SCS Opposite-Spin Energy  =      -2.2652632674798769 [Eh]
	 SCS Correlation Energy    =      -2.4702739797084310 [Eh]
	 SCS Total Energy          =    -570.9323550370746716 [Eh]
	-----------------------------------------------------------

  Dipole Moment: [D]
     X:    -4.9181      Y:    -0.3082      Z:     0.1990     Total:     4.9318

*** Psi4 exiting successfully. Buy a developer a beer!
