                               Psi4 1.3.2 release

  ==> Input File <==

--------------------------------------------------------------------------
#psi4
#
memory 32 gb

molecule  {
0 1
  O        3.1477550    -1.4485350    -0.2143050
  N        0.9062980    -1.2504610    -0.5893500
  N        1.5545360     1.4658350     0.3351760
  C       -0.6838462     0.5546947     0.0394205
  C       -0.3911060    -0.8453020    -0.2363150
  C        0.3345050     1.5654110    -0.0838510
  C        1.9201190     0.2388570     1.0398190
  C       -2.0282860     0.8425430     0.3372020
  C       -1.4126000    -1.8085370    -0.2310830
  C        2.0871850    -0.8915250     0.0446260
  C       -0.0584500     2.8482670    -0.7690020
  C       -3.0319510    -0.1194250     0.3623450
  C       -2.7230760    -1.4503270     0.0616580
  H        0.9974690    -2.0891180    -1.1576180
  H        1.1650960    -0.0456930     1.7889680
  H        2.8821530     0.3846540     1.5322680
  H       -2.2754030     1.8777800     0.5574090
  H       -1.1609050    -2.8458310    -0.4446670
  H       -0.7945500     3.4046450    -0.1790500
  H       -0.5037450     2.6486950    -1.7485080
  H        0.8332190     3.4662990    -0.8854880
  H       -4.0517820     0.1644530     0.6082680
  H       -3.5008180    -2.2099170     0.0672390
units angstrom
no_reorient  #important for SAPT in psi4, default
symmetry c1  #important for SAPT in psi4, default
}

set PROPERTIES_ORIGIN ["COM"]
properties('MP2/aug-cc-pvtz', properties = ['dipole'])
--------------------------------------------------------------------------

    Molecular point group: c1
  Charge       = 0
  Multiplicity = 1
  Basis Set: AUG-CC-PVTZ
    Blend: AUG-CC-PVTZ
  Basis Set: (AUG-CC-PVTZ AUX)
    Blend: AUG-CC-PVTZ-JKFIT

    Orbital Energies [Eh]
    ---------------------

    Doubly Occupied:

       1A    -20.532634     2A    -15.607965     3A    -15.567154
       4A    -11.362952     5A    -11.319996     6A    -11.299693
       7A    -11.268288     8A    -11.267141     9A    -11.267069
      10A    -11.267039    11A    -11.258274    12A    -11.253795
      13A    -11.233387    14A     -1.387841    15A     -1.275982
      16A     -1.234281    17A     -1.162612    18A     -1.069058
      19A     -1.035002    20A     -1.007697    21A     -0.951939
      22A     -0.890415    23A     -0.856049    24A     -0.796455
      25A     -0.768645    26A     -0.730884    27A     -0.692297
      28A     -0.678186    29A     -0.659561    30A     -0.645967
      31A     -0.625488    32A     -0.618159    33A     -0.604772
      34A     -0.586677    35A     -0.566807    36A     -0.558798
      37A     -0.546253    38A     -0.538855    39A     -0.526417
      40A     -0.512008    41A     -0.458003    42A     -0.444923
      43A     -0.418692    44A     -0.407432    45A     -0.354531
      46A     -0.328908

  @DF-RHF Final Energy:  -568.46098859818926

   => Energetics <=

    Nuclear Repulsion Energy =            760.5337838306446656
    One-Electron Energy =               -2281.0995854342386338
    Two-Electron Energy =                 952.1048130054048215
    Total Energy =                       -568.4609885981892603
  Basis Set: (AUG-CC-PVTZ AUX)
    Blend: AUG-CC-PVTZ-RI
    Molecular point group: c1

    Geometry (in Angstrom), charge = 0, multiplicity = 1:

       Center              X                  Y                   Z               Mass
    ------------   -----------------  -----------------  -----------------  -----------------
         O            3.110428221420    -1.424728422857    -0.213907099586    15.994914619570
         N            0.868971221420    -1.226654422857    -0.588952099586    14.003074004430
         N            1.517209221420     1.489641577143     0.335573900414    14.003074004430
         C           -0.721172978580     0.578501277143     0.039818400414    12.000000000000
         C           -0.428432778580    -0.821495422857    -0.235917099586    12.000000000000
         C            0.297178221420     1.589217577143    -0.083453099586    12.000000000000
         C            1.882792221420     0.262663577143     1.040216900414    12.000000000000
         C           -2.065612778580     0.866349577143     0.337599900414    12.000000000000
         C           -1.449926778580    -1.784730422857    -0.230685099586    12.000000000000
         C            2.049858221420    -0.867718422857     0.045023900414    12.000000000000
         C           -0.095776778580     2.872073577143    -0.768604099586    12.000000000000
         C           -3.069277778580    -0.095618422857     0.362742900414    12.000000000000
         C           -2.760402778580    -1.426520422857     0.062055900414    12.000000000000
         H            0.960142221420    -2.065311422857    -1.157220099586     1.007825032230
         H            1.127769221420    -0.021886422857     1.789365900414     1.007825032230
         H            2.844826221420     0.408460577143     1.532665900414     1.007825032230
         H           -2.312729778580     1.901586577143     0.557806900414     1.007825032230
         H           -1.198231778580    -2.822024422857    -0.444269099586     1.007825032230
         H           -0.831876778580     3.428451577143    -0.178652099586     1.007825032230
         H           -0.541071778580     2.672501577143    -1.748110099586     1.007825032230
         H            0.795892221420     3.490105577143    -0.885090099586     1.007825032230
         H           -4.089108778580     0.188259577143     0.608665900414     1.007825032230
         H           -3.538144778580    -2.186110422857     0.067636900414     1.007825032230

  Basis Set: AUG-CC-PVTZ
    Blend: AUG-CC-PVTZ
  Basis Set: (AUG-CC-PVTZ AUX)
    Blend: AUG-CC-PVTZ-JKFIT
	 Reference Energy          =    -568.4609885981892603 [Eh]
	 Singles Energy            =      -0.0000000000000000 [Eh]
	 Same-Spin Energy          =      -0.6152447772397521 [Eh]
	 Opposite-Spin Energy      =      -1.8882117103519054 [Eh]
	 Correlation Energy        =      -2.5034564875916576 [Eh]
	 Total Energy              =    -570.9644450857808806 [Eh]

	 ================> DF-SCS-MP2 Energies <==================
	-----------------------------------------------------------
	 SCS Same-Spin Scale       =       0.3333333333333333 [-]
	 SCS Opposite-Spin Scale   =       1.2000000000000000 [-]
	 SCS Same-Spin Energy      =      -0.2050815924132507 [Eh]
	 SCS Opposite-Spin Energy  =      -2.2658540524222865 [Eh]
	 SCS Correlation Energy    =      -2.4709356448355373 [Eh]
	 SCS Total Energy          =    -570.9319242430248096 [Eh]
	-----------------------------------------------------------

  Dipole Moment: [D]
     X:    -5.1123      Y:    -0.2959      Z:     0.2271     Total:     5.1259

*** Psi4 exiting successfully. Buy a developer a beer!
