                               Psi4 1.3.2 release

  ==> Input File <==

--------------------------------------------------------------------------
#psi4
#
memory 32 gb

molecule  {
0 1
  O        3.1477550    -1.4485350    -0.2143050
  N        0.8983896    -1.2736000    -0.5910074
  N        1.5545360     1.4658350     0.3351760
  C       -0.6961080     0.5074870     0.0337420
  C       -0.3911060    -0.8453020    -0.2363150
  C        0.3345050     1.5654110    -0.0838510
  C        1.9201190     0.2388570     1.0398190
  C       -2.0282860     0.8425430     0.3372020
  C       -1.4126000    -1.8085370    -0.2310830
  C        2.0871850    -0.8915250     0.0446260
  C       -0.0584500     2.8482670    -0.7690020
  C       -3.0319510    -0.1194250     0.3623450
  C       -2.7230760    -1.4503270     0.0616580
  H        0.9974690    -2.0891180    -1.1576180
  H        1.1650960    -0.0456930     1.7889680
  H        2.8821530     0.3846540     1.5322680
  H       -2.2754030     1.8777800     0.5574090
  H       -1.1609050    -2.8458310    -0.4446670
  H       -0.7945500     3.4046450    -0.1790500
  H       -0.5037450     2.6486950    -1.7485080
  H        0.8332190     3.4662990    -0.8854880
  H       -4.0517820     0.1644530     0.6082680
  H       -3.5008180    -2.2099170     0.0672390
units angstrom
no_reorient  #important for SAPT in psi4, default
symmetry c1  #important for SAPT in psi4, default
}

set PROPERTIES_ORIGIN ["COM"]
properties('MP2/aug-cc-pvtz', properties = ['dipole'])
--------------------------------------------------------------------------

    Molecular point group: c1
  Charge       = 0
  Multiplicity = 1
  Basis Set: AUG-CC-PVTZ
    Blend: AUG-CC-PVTZ
  Basis Set: (AUG-CC-PVTZ AUX)
    Blend: AUG-CC-PVTZ-JKFIT

    Orbital Energies [Eh]
    ---------------------

    Doubly Occupied:

       1A    -20.533724     2A    -15.605034     3A    -15.567157
       4A    -11.364159     5A    -11.313963     6A    -11.302649
       7A    -11.268060     8A    -11.266734     9A    -11.265575
      10A    -11.264829    11A    -11.257119    12A    -11.253218
      13A    -11.234295    14A     -1.387572    15A     -1.275014
      16A     -1.233287    17A     -1.163775    18A     -1.065326
      19A     -1.034146    20A     -1.011533    21A     -0.952144
      22A     -0.884947    23A     -0.857053    24A     -0.795601
      25A     -0.768838    26A     -0.729923    27A     -0.691124
      28A     -0.678179    29A     -0.656673    30A     -0.649155
      31A     -0.625888    32A     -0.618567    33A     -0.606624
      34A     -0.586521    35A     -0.566112    36A     -0.558648
      37A     -0.543543    38A     -0.538838    39A     -0.527621
      40A     -0.515795    41A     -0.457794    42A     -0.444695
      43A     -0.417686    44A     -0.405897    45A     -0.354734
      46A     -0.331320

  @DF-RHF Final Energy:  -568.46540470240041

   => Energetics <=

    Nuclear Repulsion Energy =            760.3976136243827568
    One-Electron Energy =               -2280.8638672688994120
    Two-Electron Energy =                 952.0008489421162494
    Total Energy =                       -568.4654047024004058
  Basis Set: (AUG-CC-PVTZ AUX)
    Blend: AUG-CC-PVTZ-RI
    Molecular point group: c1

    Geometry (in Angstrom), charge = 0, multiplicity = 1:

       Center              X                  Y                   Z               Mass
    ------------   -----------------  -----------------  -----------------  -----------------
         O            3.111909635300    -1.419612883771    -0.213382334791    15.994914619570
         N            0.862544235300    -1.244677883771    -0.590084734791    14.003074004430
         N            1.518690635300     1.494757116229     0.336098665209    14.003074004430
         C           -0.731953364700     0.536409116229     0.034664665209    12.000000000000
         C           -0.426951364700    -0.816379883771    -0.235392334791    12.000000000000
         C            0.298659635300     1.594333116229    -0.082928334791    12.000000000000
         C            1.884273635300     0.267779116229     1.040741665209    12.000000000000
         C           -2.064131364700     0.871465116229     0.338124665209    12.000000000000
         C           -1.448445364700    -1.779614883771    -0.230160334791    12.000000000000
         C            2.051339635300    -0.862602883771     0.045548665209    12.000000000000
         C           -0.094295364700     2.877189116229    -0.768079334791    12.000000000000
         C           -3.067796364700    -0.090502883771     0.363267665209    12.000000000000
         C           -2.758921364700    -1.421404883771     0.062580665209    12.000000000000
         H            0.961623635300    -2.060195883771    -1.156695334791     1.007825032230
         H            1.129250635300    -0.016770883771     1.789890665209     1.007825032230
         H            2.846307635300     0.413576116229     1.533190665209     1.007825032230
         H           -2.311248364700     1.906702116229     0.558331665209     1.007825032230
         H           -1.196750364700    -2.816908883771    -0.443744334791     1.007825032230
         H           -0.830395364700     3.433567116229    -0.178127334791     1.007825032230
         H           -0.539590364700     2.677617116229    -1.747585334791     1.007825032230
         H            0.797373635300     3.495221116229    -0.884565334791     1.007825032230
         H           -4.087627364700     0.193375116229     0.609190665209     1.007825032230
         H           -3.536663364700    -2.180994883771     0.068161665209     1.007825032230

  Basis Set: AUG-CC-PVTZ
    Blend: AUG-CC-PVTZ
  Basis Set: (AUG-CC-PVTZ AUX)
    Blend: AUG-CC-PVTZ-JKFIT
	 Reference Energy          =    -568.4654047024004058 [Eh]
	 Singles Energy            =      -0.0000000000000000 [Eh]
	 Same-Spin Energy          =      -0.6142624831062925 [Eh]
	 Opposite-Spin Energy      =      -1.8869332655161508 [Eh]
	 Correlation Energy        =      -2.5011957486224432 [Eh]
	 Total Energy              =    -570.9666004510228277 [Eh]

	 ================> DF-SCS-MP2 Energies <==================
	-----------------------------------------------------------
	 SCS Same-Spin Scale       =       0.3333333333333333 [-]
	 SCS Opposite-Spin Scale   =       1.2000000000000000 [-]
	 SCS Same-Spin Energy      =      -0.2047541610354308 [Eh]
	 SCS Opposite-Spin Energy  =      -2.2643199186193810 [Eh]
	 SCS Correlation Energy    =      -2.4690740796548116 [Eh]
	 SCS Total Energy          =    -570.9344787820551801 [Eh]
	-----------------------------------------------------------

  Dipole Moment: [D]
     X:    -5.0373      Y:    -0.2205      Z:     0.2318     Total:     5.0474

*** Psi4 exiting successfully. Buy a developer a beer!
