                               Psi4 1.3.2 release

  ==> Input File <==

--------------------------------------------------------------------------
#psi4
#
memory 32 gb

molecule  {
0 1
  O        3.1477550    -1.4485350    -0.2143050
  N        0.9062980    -1.2504610    -0.5893500
  N        1.5545360     1.4658350     0.3351760
  C       -0.6961080     0.5074870     0.0337420
  C       -0.3911060    -0.8453020    -0.2363150
  C        0.4357046     1.4520250    -0.1147261
  C        1.9201190     0.2388570     1.0398190
  C       -2.0282860     0.8425430     0.3372020
  C       -1.4126000    -1.8085370    -0.2310830
  C        2.0871850    -0.8915250     0.0446260
  C       -0.0584500     2.8482670    -0.7690020
  C       -3.0319510    -0.1194250     0.3623450
  C       -2.7230760    -1.4503270     0.0616580
  H        0.9974690    -2.0891180    -1.1576180
  H        1.1650960    -0.0456930     1.7889680
  H        2.8821530     0.3846540     1.5322680
  H       -2.2754030     1.8777800     0.5574090
  H       -1.1609050    -2.8458310    -0.4446670
  H       -0.7945500     3.4046450    -0.1790500
  H       -0.5037450     2.6486950    -1.7485080
  H        0.8332190     3.4662990    -0.8854880
  H       -4.0517820     0.1644530     0.6082680
  H       -3.5008180    -2.2099170     0.0672390
units angstrom
no_reorient  #important for SAPT in psi4, default
symmetry c1  #important for SAPT in psi4, default
}

set PROPERTIES_ORIGIN ["COM"]
properties('MP2/aug-cc-pvtz', properties = ['dipole'])
--------------------------------------------------------------------------

    Molecular point group: c1
  Charge       = 0
  Multiplicity = 1
  Basis Set: AUG-CC-PVTZ
    Blend: AUG-CC-PVTZ
  Basis Set: (AUG-CC-PVTZ AUX)
    Blend: AUG-CC-PVTZ-JKFIT

    Orbital Energies [Eh]
    ---------------------

    Doubly Occupied:

       1A    -20.534972     2A    -15.608675     3A    -15.564645
       4A    -11.365516     5A    -11.311446     6A    -11.295000
       7A    -11.270342     8A    -11.268452     9A    -11.266341
      10A    -11.264985    11A    -11.257407    12A    -11.254656
      13A    -11.229974    14A     -1.390527    15A     -1.293614
      16A     -1.255767    17A     -1.164627    18A     -1.060066
      19A     -1.035898    20A     -1.005573    21A     -0.948203
      22A     -0.886887    23A     -0.858525    24A     -0.798246
      25A     -0.766603    26A     -0.728419    27A     -0.697835
      28A     -0.681782    29A     -0.660756    30A     -0.644975
      31A     -0.626562    32A     -0.618839    33A     -0.609631
      34A     -0.576414    35A     -0.569498    36A     -0.550605
      37A     -0.546568    38A     -0.536280    39A     -0.528843
      40A     -0.504759    41A     -0.472929    42A     -0.446260
      43A     -0.423826    44A     -0.405272    45A     -0.357807
      46A     -0.332904

  @DF-RHF Final Energy:  -568.44791194638378

   => Energetics <=

    Nuclear Repulsion Energy =            762.3583175140504409
    One-Electron Energy =               -2284.6570408527218206
    Two-Electron Energy =                 953.8508113922875964
    Total Energy =                       -568.4479119463837833
  Basis Set: (AUG-CC-PVTZ AUX)
    Blend: AUG-CC-PVTZ-RI
    Molecular point group: c1

    Geometry (in Angstrom), charge = 0, multiplicity = 1:

       Center              X                  Y                   Z               Mass
    ------------   -----------------  -----------------  -----------------  -----------------
         O            3.104297374613    -1.413658041389    -0.211387310229    15.994914619570
         N            0.862840374613    -1.215584041389    -0.586432310229    14.003074004430
         N            1.511078374613     1.500711958611     0.338093689771    14.003074004430
         C           -0.739565625387     0.542363958611     0.036659689771    12.000000000000
         C           -0.434563625387    -0.810425041389    -0.233397310229    12.000000000000
         C            0.392246974613     1.486901958611    -0.111808410229    12.000000000000
         C            1.876661374613     0.273733958611     1.042736689771    12.000000000000
         C           -2.071743625387     0.877419958611     0.340119689771    12.000000000000
         C           -1.456057625387    -1.773660041389    -0.228165310229    12.000000000000
         C            2.043727374613    -0.856648041389     0.047543689771    12.000000000000
         C           -0.101907625387     2.883143958611    -0.766084310229    12.000000000000
         C           -3.075408625387    -0.084548041389     0.365262689771    12.000000000000
         C           -2.766533625387    -1.415450041389     0.064575689771    12.000000000000
         H            0.954011374613    -2.054241041389    -1.154700310229     1.007825032230
         H            1.121638374613    -0.010816041389     1.791885689771     1.007825032230
         H            2.838695374613     0.419530958611     1.535185689771     1.007825032230
         H           -2.318860625387     1.912656958611     0.560326689771     1.007825032230
         H           -1.204362625387    -2.810954041389    -0.441749310229     1.007825032230
         H           -0.838007625387     3.439521958611    -0.176132310229     1.007825032230
         H           -0.547202625387     2.683571958611    -1.745590310229     1.007825032230
         H            0.789761374613     3.501175958611    -0.882570310229     1.007825032230
         H           -4.095239625387     0.199329958611     0.611185689771     1.007825032230
         H           -3.544275625387    -2.175040041389     0.070156689771     1.007825032230

  Basis Set: AUG-CC-PVTZ
    Blend: AUG-CC-PVTZ
  Basis Set: (AUG-CC-PVTZ AUX)
    Blend: AUG-CC-PVTZ-JKFIT
	 Reference Energy          =    -568.4479119463837833 [Eh]
	 Singles Energy            =      -0.0000000000000000 [Eh]
	 Same-Spin Energy          =      -0.6131851709106219 [Eh]
	 Opposite-Spin Energy      =      -1.8851139549848646 [Eh]
	 Correlation Energy        =      -2.4982991258954863 [Eh]
	 Total Energy              =    -570.9462110722793113 [Eh]

	 ================> DF-SCS-MP2 Energies <==================
	-----------------------------------------------------------
	 SCS Same-Spin Scale       =       0.3333333333333333 [-]
	 SCS Opposite-Spin Scale   =       1.2000000000000000 [-]
	 SCS Same-Spin Energy      =      -0.2043950569702073 [Eh]
	 SCS Opposite-Spin Energy  =      -2.2621367459818376 [Eh]
	 SCS Correlation Energy    =      -2.4665318029520447 [Eh]
	 SCS Total Energy          =    -570.9144437493358737 [Eh]
	-----------------------------------------------------------

  Dipole Moment: [D]
     X:    -4.9162      Y:    -0.4923      Z:     0.4168     Total:     4.9584

*** Psi4 exiting successfully. Buy a developer a beer!
