                               Psi4 1.3.2 release

  ==> Input File <==

--------------------------------------------------------------------------
#psi4
#
memory 32 gb

molecule  {
0 1
  O        3.1477550    -1.4485350    -0.2143050
  N        0.8900883    -1.2966085    -0.5925568
  N        1.5545360     1.4658350     0.3351760
  C       -0.6961080     0.5074870     0.0337420
  C       -0.3911060    -0.8453020    -0.2363150
  C        0.3345050     1.5654110    -0.0838510
  C        1.9201190     0.2388570     1.0398190
  C       -2.0282860     0.8425430     0.3372020
  C       -1.4126000    -1.8085370    -0.2310830
  C        2.0871850    -0.8915250     0.0446260
  C       -0.0584500     2.8482670    -0.7690020
  C       -3.0319510    -0.1194250     0.3623450
  C       -2.7230760    -1.4503270     0.0616580
  H        0.9974690    -2.0891180    -1.1576180
  H        1.1650960    -0.0456930     1.7889680
  H        2.8821530     0.3846540     1.5322680
  H       -2.2754030     1.8777800     0.5574090
  H       -1.1609050    -2.8458310    -0.4446670
  H       -0.7945500     3.4046450    -0.1790500
  H       -0.5037450     2.6486950    -1.7485080
  H        0.8332190     3.4662990    -0.8854880
  H       -4.0517820     0.1644530     0.6082680
  H       -3.5008180    -2.2099170     0.0672390
units angstrom
no_reorient  #important for SAPT in psi4, default
symmetry c1  #important for SAPT in psi4, default
}

set PROPERTIES_ORIGIN ["COM"]
properties('MP2/aug-cc-pvtz', properties = ['dipole'])
--------------------------------------------------------------------------

    Molecular point group: c1
  Charge       = 0
  Multiplicity = 1
  Basis Set: AUG-CC-PVTZ
    Blend: AUG-CC-PVTZ
  Basis Set: (AUG-CC-PVTZ AUX)
    Blend: AUG-CC-PVTZ-JKFIT

    Orbital Energies [Eh]
    ---------------------

    Doubly Occupied:

       1A    -20.535272     2A    -15.602971     3A    -15.567262
       4A    -11.365739     5A    -11.313562     6A    -11.302909
       7A    -11.269095     8A    -11.266649     9A    -11.265504
      10A    -11.264193    11A    -11.255980    12A    -11.252682
      13A    -11.234381    14A     -1.387713    15A     -1.274071
      16A     -1.233703    17A     -1.163034    18A     -1.065124
      19A     -1.033108    20A     -1.011908    21A     -0.952600
      22A     -0.884172    23A     -0.856245    24A     -0.795742
      25A     -0.769525    26A     -0.730919    27A     -0.690706
      28A     -0.678598    29A     -0.655899    30A     -0.649948
      31A     -0.625613    32A     -0.618957    33A     -0.608164
      34A     -0.586565    35A     -0.565251    36A     -0.558472
      37A     -0.543519    38A     -0.538650    39A     -0.527402
      40A     -0.516034    41A     -0.457909    42A     -0.444828
      43A     -0.417786    44A     -0.406383    45A     -0.354500
      46A     -0.330434

  @DF-RHF Final Energy:  -568.46392445342963

   => Energetics <=

    Nuclear Repulsion Energy =            760.0564333941902078
    One-Electron Energy =               -2280.1813530564618304
    Two-Electron Energy =                 951.6609952088419959
    Total Energy =                       -568.4639244534296267
  Basis Set: (AUG-CC-PVTZ AUX)
    Blend: AUG-CC-PVTZ-RI
    Molecular point group: c1

    Geometry (in Angstrom), charge = 0, multiplicity = 1:

       Center              X                  Y                   Z               Mass
    ------------   -----------------  -----------------  -----------------  -----------------
         O            3.112577398265    -1.417762062311    -0.213257699862    15.994914619570
         N            0.854910698265    -1.265835562311    -0.591509499862    14.003074004430
         N            1.519358398265     1.496607937689     0.336223300138    14.003074004430
         C           -0.731285601735     0.538259937689     0.034789300138    12.000000000000
         C           -0.426283601735    -0.814529062311    -0.235267699862    12.000000000000
         C            0.299327398265     1.596183937689    -0.082803699862    12.000000000000
         C            1.884941398265     0.269629937689     1.040866300138    12.000000000000
         C           -2.063463601735     0.873315937689     0.338249300138    12.000000000000
         C           -1.447777601735    -1.777764062311    -0.230035699862    12.000000000000
         C            2.052007398265    -0.860752062311     0.045673300138    12.000000000000
         C           -0.093627601735     2.879039937689    -0.767954699862    12.000000000000
         C           -3.067128601735    -0.088652062311     0.363392300138    12.000000000000
         C           -2.758253601735    -1.419554062311     0.062705300138    12.000000000000
         H            0.962291398265    -2.058345062311    -1.156570699862     1.007825032230
         H            1.129918398265    -0.014920062311     1.790015300138     1.007825032230
         H            2.846975398265     0.415426937689     1.533315300138     1.007825032230
         H           -2.310580601735     1.908552937689     0.558456300138     1.007825032230
         H           -1.196082601735    -2.815058062311    -0.443619699862     1.007825032230
         H           -0.829727601735     3.435417937689    -0.178002699862     1.007825032230
         H           -0.538922601735     2.679467937689    -1.747460699862     1.007825032230
         H            0.798041398265     3.497071937689    -0.884440699862     1.007825032230
         H           -4.086959601735     0.195225937689     0.609315300138     1.007825032230
         H           -3.535995601735    -2.179144062311     0.068286300138     1.007825032230

  Basis Set: AUG-CC-PVTZ
    Blend: AUG-CC-PVTZ
  Basis Set: (AUG-CC-PVTZ AUX)
    Blend: AUG-CC-PVTZ-JKFIT
	 Reference Energy          =    -568.4639244534296267 [Eh]
	 Singles Energy            =      -0.0000000000000000 [Eh]
	 Same-Spin Energy          =      -0.6140941843613017 [Eh]
	 Opposite-Spin Energy      =      -1.8867798676166205 [Eh]
	 Correlation Energy        =      -2.5008740519779220 [Eh]
	 Total Energy              =    -570.9647985054075434 [Eh]

	 ================> DF-SCS-MP2 Energies <==================
	-----------------------------------------------------------
	 SCS Same-Spin Scale       =       0.3333333333333333 [-]
	 SCS Opposite-Spin Scale   =       1.2000000000000000 [-]
	 SCS Same-Spin Energy      =      -0.2046980614537672 [Eh]
	 SCS Opposite-Spin Energy  =      -2.2641358411399444 [Eh]
	 SCS Correlation Energy    =      -2.4688339025937118 [Eh]
	 SCS Total Energy          =    -570.9327583560233279 [Eh]
	-----------------------------------------------------------

  Dipole Moment: [D]
     X:    -4.9586      Y:    -0.1970      Z:     0.2369     Total:     4.9681

*** Psi4 exiting successfully. Buy a developer a beer!
