                               Psi4 1.3.2 release

  ==> Input File <==

--------------------------------------------------------------------------
#psi4
#
memory 32 gb

molecule  {
0 1
  O        3.1477550    -1.4485350    -0.2143050
  N        0.9062980    -1.2504610    -0.5893500
  N        1.5545360     1.4658350     0.3351760
  C       -0.6003647     0.5278614     0.0218092
  C       -0.3911060    -0.8453020    -0.2363150
  C        0.3345050     1.5654110    -0.0838510
  C        1.9201190     0.2388570     1.0398190
  C       -2.0282860     0.8425430     0.3372020
  C       -1.4126000    -1.8085370    -0.2310830
  C        2.0871850    -0.8915250     0.0446260
  C       -0.0584500     2.8482670    -0.7690020
  C       -3.0319510    -0.1194250     0.3623450
  C       -2.7230760    -1.4503270     0.0616580
  H        0.9974690    -2.0891180    -1.1576180
  H        1.1650960    -0.0456930     1.7889680
  H        2.8821530     0.3846540     1.5322680
  H       -2.2754030     1.8777800     0.5574090
  H       -1.1609050    -2.8458310    -0.4446670
  H       -0.7945500     3.4046450    -0.1790500
  H       -0.5037450     2.6486950    -1.7485080
  H        0.8332190     3.4662990    -0.8854880
  H       -4.0517820     0.1644530     0.6082680
  H       -3.5008180    -2.2099170     0.0672390
units angstrom
no_reorient  #important for SAPT in psi4, default
symmetry c1  #important for SAPT in psi4, default
}

set PROPERTIES_ORIGIN ["COM"]
properties('MP2/aug-cc-pvtz', properties = ['dipole'])
--------------------------------------------------------------------------

    Molecular point group: c1
  Charge       = 0
  Multiplicity = 1
  Basis Set: AUG-CC-PVTZ
    Blend: AUG-CC-PVTZ
  Basis Set: (AUG-CC-PVTZ AUX)
    Blend: AUG-CC-PVTZ-JKFIT

    Orbital Energies [Eh]
    ---------------------

    Doubly Occupied:

       1A    -20.531132     2A    -15.605281     3A    -15.565374
       4A    -11.361882     5A    -11.317542     6A    -11.295838
       7A    -11.275995     8A    -11.269374     9A    -11.267439
      10A    -11.266050    11A    -11.260061    12A    -11.255071
      13A    -11.234733    14A     -1.386724    15A     -1.278233
      16A     -1.235232    17A     -1.158066    18A     -1.069383
      19A     -1.031930    20A     -1.009534    21A     -0.951572
      22A     -0.896297    23A     -0.854761    24A     -0.797630
      25A     -0.768694    26A     -0.731406    27A     -0.691357
      28A     -0.677600    29A     -0.660138    30A     -0.650360
      31A     -0.621524    32A     -0.615592    33A     -0.604302
      34A     -0.587240    35A     -0.566046    36A     -0.558160
      37A     -0.547043    38A     -0.537685    39A     -0.525183
      40A     -0.515335    41A     -0.455306    42A     -0.443783
      43A     -0.421479    44A     -0.404039    45A     -0.346454
      46A     -0.334284

  @DF-RHF Final Energy:  -568.45099195129274

   => Energetics <=

    Nuclear Repulsion Energy =            761.1639921360824701
    One-Electron Energy =               -2282.3536806954234635
    Two-Electron Energy =                 952.7386966080482580
    Total Energy =                       -568.4509919512927354
  Basis Set: (AUG-CC-PVTZ AUX)
    Blend: AUG-CC-PVTZ-RI
    Molecular point group: c1

    Geometry (in Angstrom), charge = 0, multiplicity = 1:

       Center              X                  Y                   Z               Mass
    ------------   -----------------  -----------------  -----------------  -----------------
         O            3.104673499718    -1.422878693590    -0.212693080548    15.994914619570
         N            0.863216499718    -1.224804693590    -0.587738080548    14.003074004430
         N            1.511454499718     1.491491306410     0.336787919452    14.003074004430
         C           -0.643446200282     0.553517706410     0.023421119452    12.000000000000
         C           -0.434187500282    -0.819645693590    -0.234703080548    12.000000000000
         C            0.291423499718     1.591067306410    -0.082239080548    12.000000000000
         C            1.877037499718     0.264513306410     1.041430919452    12.000000000000
         C           -2.071367500282     0.868199306410     0.338813919452    12.000000000000
         C           -1.455681500282    -1.782880693590    -0.229471080548    12.000000000000
         C            2.044103499718    -0.865868693590     0.046237919452    12.000000000000
         C           -0.101531500282     2.873923306410    -0.767390080548    12.000000000000
         C           -3.075032500282    -0.093768693590     0.363956919452    12.000000000000
         C           -2.766157500282    -1.424670693590     0.063269919452    12.000000000000
         H            0.954387499718    -2.063461693590    -1.156006080548     1.007825032230
         H            1.122014499718    -0.020036693590     1.790579919452     1.007825032230
         H            2.839071499718     0.410310306410     1.533879919452     1.007825032230
         H           -2.318484500282     1.903436306410     0.559020919452     1.007825032230
         H           -1.203986500282    -2.820174693590    -0.443055080548     1.007825032230
         H           -0.837631500282     3.430301306410    -0.177438080548     1.007825032230
         H           -0.546826500282     2.674351306410    -1.746896080548     1.007825032230
         H            0.790137499718     3.491955306410    -0.883876080548     1.007825032230
         H           -4.094863500282     0.190109306410     0.609879919452     1.007825032230
         H           -3.543899500282    -2.184260693590     0.068850919452     1.007825032230

  Basis Set: AUG-CC-PVTZ
    Blend: AUG-CC-PVTZ
  Basis Set: (AUG-CC-PVTZ AUX)
    Blend: AUG-CC-PVTZ-JKFIT
	 Reference Energy          =    -568.4509919512927354 [Eh]
	 Singles Energy            =      -0.0000000000000000 [Eh]
	 Same-Spin Energy          =      -0.6159120097978829 [Eh]
	 Opposite-Spin Energy      =      -1.8896136512375852 [Eh]
	 Correlation Energy        =      -2.5055256610354681 [Eh]
	 Total Energy              =    -570.9565176123281844 [Eh]

	 ================> DF-SCS-MP2 Energies <==================
	-----------------------------------------------------------
	 SCS Same-Spin Scale       =       0.3333333333333333 [-]
	 SCS Opposite-Spin Scale   =       1.2000000000000000 [-]
	 SCS Same-Spin Energy      =      -0.2053040032659609 [Eh]
	 SCS Opposite-Spin Energy  =      -2.2675363814851019 [Eh]
	 SCS Correlation Energy    =      -2.4728403847510627 [Eh]
	 SCS Total Energy          =    -570.9238323360438017 [Eh]
	-----------------------------------------------------------

  Dipole Moment: [D]
     X:    -5.2089      Y:    -0.3119      Z:     0.1973     Total:     5.2219

*** Psi4 exiting successfully. Buy a developer a beer!
