                               Psi4 1.3.2 release

  ==> Input File <==

--------------------------------------------------------------------------
#psi4
#
memory 32 gb

molecule  {
0 1
  O        3.1477550    -1.4485350    -0.2143050
  N        0.9062980    -1.2504610    -0.5893500
  N        1.5545360     1.4658350     0.3351760
  C       -0.6961080     0.5074870     0.0337420
  C       -0.4078568    -0.8278715    -0.2403230
  C        0.3345050     1.5654110    -0.0838510
  C        1.9201190     0.2388570     1.0398190
  C       -2.0282860     0.8425430     0.3372020
  C       -1.4126000    -1.8085370    -0.2310830
  C        2.0871850    -0.8915250     0.0446260
  C       -0.0584500     2.8482670    -0.7690020
  C       -3.0319510    -0.1194250     0.3623450
  C       -2.7230760    -1.4503270     0.0616580
  H        0.9974690    -2.0891180    -1.1576180
  H        1.1650960    -0.0456930     1.7889680
  H        2.8821530     0.3846540     1.5322680
  H       -2.2754030     1.8777800     0.5574090
  H       -1.1609050    -2.8458310    -0.4446670
  H       -0.7945500     3.4046450    -0.1790500
  H       -0.5037450     2.6486950    -1.7485080
  H        0.8332190     3.4662990    -0.8854880
  H       -4.0517820     0.1644530     0.6082680
  H       -3.5008180    -2.2099170     0.0672390
units angstrom
no_reorient  #important for SAPT in psi4, default
symmetry c1  #important for SAPT in psi4, default
}

set PROPERTIES_ORIGIN ["COM"]
properties('MP2/aug-cc-pvtz', properties = ['dipole'])
--------------------------------------------------------------------------

    Molecular point group: c1
  Charge       = 0
  Multiplicity = 1
  Basis Set: AUG-CC-PVTZ
    Blend: AUG-CC-PVTZ
  Basis Set: (AUG-CC-PVTZ AUX)
    Blend: AUG-CC-PVTZ-JKFIT

    Orbital Energies [Eh]
    ---------------------

    Doubly Occupied:

       1A    -20.530626     2A    -15.605326     3A    -15.567515
       4A    -11.361148     5A    -11.313562     6A    -11.302846
       7A    -11.266982     8A    -11.266627     9A    -11.265709
      10A    -11.264907    11A    -11.259112    12A    -11.254529
      13A    -11.234586    14A     -1.385618    15A     -1.272674
      16A     -1.230971    17A     -1.166281    18A     -1.066867
      19A     -1.035176    20A     -1.013005    21A     -0.951283
      22A     -0.884973    23A     -0.858035    24A     -0.794043
      25A     -0.769338    26A     -0.725790    27A     -0.690833
      28A     -0.676981    29A     -0.656821    30A     -0.650841
      31A     -0.626744    32A     -0.618121    33A     -0.602705
      34A     -0.586597    35A     -0.565599    36A     -0.559069
      37A     -0.543714    38A     -0.538931    39A     -0.528910
      40A     -0.517485    41A     -0.456580    42A     -0.442194
      43A     -0.417874    44A     -0.404982    45A     -0.355757
      46A     -0.334821

  @DF-RHF Final Energy:  -568.46531012280946

   => Energetics <=

    Nuclear Repulsion Energy =            760.8131108820797408
    One-Electron Energy =               -2281.7106643111847006
    Two-Electron Energy =                 952.4322433062953905
    Total Energy =                       -568.4653101228094556
  Basis Set: (AUG-CC-PVTZ AUX)
    Blend: AUG-CC-PVTZ-RI
    Molecular point group: c1

    Geometry (in Angstrom), charge = 0, multiplicity = 1:

       Center              X                  Y                   Z               Mass
    ------------   -----------------  -----------------  -----------------  -----------------
         O            3.112428178762    -1.422675758506    -0.213239369469    15.994914619570
         N            0.870971178762    -1.224601758506    -0.588284369469    14.003074004430
         N            1.519209178762     1.491694241494     0.336241630531    14.003074004430
         C           -0.731434821238     0.533346241494     0.034807630531    12.000000000000
         C           -0.443183621238    -0.802012258506    -0.239257369469    12.000000000000
         C            0.299178178762     1.591270241494    -0.082785369469    12.000000000000
         C            1.884792178762     0.264716241494     1.040884630531    12.000000000000
         C           -2.063612821238     0.868402241494     0.338267630531    12.000000000000
         C           -1.447926821238    -1.782677758506    -0.230017369469    12.000000000000
         C            2.051858178762    -0.865665758506     0.045691630531    12.000000000000
         C           -0.093776821238     2.874126241494    -0.767936369469    12.000000000000
         C           -3.067277821238    -0.093565758506     0.363410630531    12.000000000000
         C           -2.758402821238    -1.424467758506     0.062723630531    12.000000000000
         H            0.962142178762    -2.063258758506    -1.156552369469     1.007825032230
         H            1.129769178762    -0.019833758506     1.790033630531     1.007825032230
         H            2.846826178762     0.410513241494     1.533333630531     1.007825032230
         H           -2.310729821238     1.903639241494     0.558474630531     1.007825032230
         H           -1.196231821238    -2.819971758506    -0.443601369469     1.007825032230
         H           -0.829876821238     3.430504241494    -0.177984369469     1.007825032230
         H           -0.539071821238     2.674554241494    -1.747442369469     1.007825032230
         H            0.797892178762     3.492158241494    -0.884422369469     1.007825032230
         H           -4.087108821238     0.190312241494     0.609333630531     1.007825032230
         H           -3.536144821238    -2.184057758506     0.068304630531     1.007825032230

  Basis Set: AUG-CC-PVTZ
    Blend: AUG-CC-PVTZ
  Basis Set: (AUG-CC-PVTZ AUX)
    Blend: AUG-CC-PVTZ-JKFIT
	 Reference Energy          =    -568.4653101228094556 [Eh]
	 Singles Energy            =      -0.0000000000000000 [Eh]
	 Same-Spin Energy          =      -0.6142259452237318 [Eh]
	 Opposite-Spin Energy      =      -1.8870342337965513 [Eh]
	 Correlation Energy        =      -2.5012601790202833 [Eh]
	 Total Energy              =    -570.9665703018297336 [Eh]

	 ================> DF-SCS-MP2 Energies <==================
	-----------------------------------------------------------
	 SCS Same-Spin Scale       =       0.3333333333333333 [-]
	 SCS Opposite-Spin Scale   =       1.2000000000000000 [-]
	 SCS Same-Spin Energy      =      -0.2047419817412439 [Eh]
	 SCS Opposite-Spin Energy  =      -2.2644410805558617 [Eh]
	 SCS Correlation Energy    =      -2.4691830622971054 [Eh]
	 SCS Total Energy          =    -570.9344931851065894 [Eh]
	-----------------------------------------------------------

  Dipole Moment: [D]
     X:    -5.2109      Y:    -0.2085      Z:     0.2413     Total:     5.2206

*** Psi4 exiting successfully. Buy a developer a beer!
