                               Psi4 1.3.2 release

  ==> Input File <==

--------------------------------------------------------------------------
#psi4
#
memory 32 gb

molecule  {
0 1
  O        3.1051635    -1.4969164    -0.2705487
  N        0.9062980    -1.2504610    -0.5893500
  N        1.5545360     1.4658350     0.3351760
  C       -0.6961080     0.5074870     0.0337420
  C       -0.3911060    -0.8453020    -0.2363150
  C        0.3345050     1.5654110    -0.0838510
  C        1.9201190     0.2388570     1.0398190
  C       -2.0282860     0.8425430     0.3372020
  C       -1.4126000    -1.8085370    -0.2310830
  C        2.0871850    -0.8915250     0.0446260
  C       -0.0584500     2.8482670    -0.7690020
  C       -3.0319510    -0.1194250     0.3623450
  C       -2.7230760    -1.4503270     0.0616580
  H        0.9974690    -2.0891180    -1.1576180
  H        1.1650960    -0.0456930     1.7889680
  H        2.8821530     0.3846540     1.5322680
  H       -2.2754030     1.8777800     0.5574090
  H       -1.1609050    -2.8458310    -0.4446670
  H       -0.7945500     3.4046450    -0.1790500
  H       -0.5037450     2.6486950    -1.7485080
  H        0.8332190     3.4662990    -0.8854880
  H       -4.0517820     0.1644530     0.6082680
  H       -3.5008180    -2.2099170     0.0672390
units angstrom
no_reorient  #important for SAPT in psi4, default
symmetry c1  #important for SAPT in psi4, default
}

set PROPERTIES_ORIGIN ["COM"]
properties('MP2/aug-cc-pvtz', properties = ['dipole'])
--------------------------------------------------------------------------

    Molecular point group: c1
  Charge       = 0
  Multiplicity = 1
  Basis Set: AUG-CC-PVTZ
    Blend: AUG-CC-PVTZ
  Basis Set: (AUG-CC-PVTZ AUX)
    Blend: AUG-CC-PVTZ-JKFIT

    Orbital Energies [Eh]
    ---------------------

    Doubly Occupied:

       1A    -20.531328     2A    -15.602940     3A    -15.568066
       4A    -11.362762     5A    -11.312823     6A    -11.303628
       7A    -11.271091     8A    -11.266382     9A    -11.264994
      10A    -11.264920    11A    -11.257071    12A    -11.252949
      13A    -11.234752    14A     -1.389028    15A     -1.273598
      16A     -1.232524    17A     -1.163476    18A     -1.065977
      19A     -1.034534    20A     -1.011212    21A     -0.953543
      22A     -0.884964    23A     -0.856829    24A     -0.794738
      25A     -0.768073    26A     -0.727852    27A     -0.691544
      28A     -0.678243    29A     -0.657026    30A     -0.647734
      31A     -0.625817    32A     -0.618375    33A     -0.605669
      34A     -0.586783    35A     -0.566825    36A     -0.558880
      37A     -0.543687    38A     -0.539408    39A     -0.527811
      40A     -0.515404    41A     -0.457159    42A     -0.442295
      43A     -0.418922    44A     -0.407319    45A     -0.355023
      46A     -0.330583

  @DF-RHF Final Energy:  -568.46442748264019

   => Energetics <=

    Nuclear Repulsion Energy =            760.9321699333228253
    One-Electron Energy =               -2281.9440759654389694
    Two-Electron Energy =                 952.5474785494760681
    Total Energy =                       -568.4644274826401897
  Basis Set: (AUG-CC-PVTZ AUX)
    Blend: AUG-CC-PVTZ-RI
    Molecular point group: c1

    Geometry (in Angstrom), charge = 0, multiplicity = 1:

       Center              X                  Y                   Z               Mass
    ------------   -----------------  -----------------  -----------------  -----------------
         O            3.072595408664    -1.465410178715    -0.264591522248    15.994914619570
         N            0.873729908664    -1.218954778715    -0.583392822248    14.003074004430
         N            1.521967908664     1.497341221285     0.341133177752    14.003074004430
         C           -0.728676091336     0.538993221285     0.039699177752    12.000000000000
         C           -0.423674091336    -0.813795778715    -0.230357822248    12.000000000000
         C            0.301936908664     1.596917221285    -0.077893822248    12.000000000000
         C            1.887550908664     0.270363221285     1.045776177752    12.000000000000
         C           -2.060854091336     0.874049221285     0.343159177752    12.000000000000
         C           -1.445168091336    -1.777030778715    -0.225125822248    12.000000000000
         C            2.054616908664    -0.860018778715     0.050583177752    12.000000000000
         C           -0.091018091336     2.879773221285    -0.763044822248    12.000000000000
         C           -3.064519091336    -0.087918778715     0.368302177752    12.000000000000
         C           -2.755644091336    -1.418820778715     0.067615177752    12.000000000000
         H            0.964900908664    -2.057611778715    -1.151660822248     1.007825032230
         H            1.132527908664    -0.014186778715     1.794925177752     1.007825032230
         H            2.849584908664     0.416160221285     1.538225177752     1.007825032230
         H           -2.307971091336     1.909286221285     0.563366177752     1.007825032230
         H           -1.193473091336    -2.814324778715    -0.438709822248     1.007825032230
         H           -0.827118091336     3.436151221285    -0.173092822248     1.007825032230
         H           -0.536313091336     2.680201221285    -1.742550822248     1.007825032230
         H            0.800650908664     3.497805221285    -0.879530822248     1.007825032230
         H           -4.084350091336     0.195959221285     0.614225177752     1.007825032230
         H           -3.533386091336    -2.178410778715     0.073196177752     1.007825032230

  Basis Set: AUG-CC-PVTZ
    Blend: AUG-CC-PVTZ
  Basis Set: (AUG-CC-PVTZ AUX)
    Blend: AUG-CC-PVTZ-JKFIT
	 Reference Energy          =    -568.4644274826401897 [Eh]
	 Singles Energy            =      -0.0000000000000000 [Eh]
	 Same-Spin Energy          =      -0.6144769484033978 [Eh]
	 Opposite-Spin Energy      =      -1.8870994306197666 [Eh]
	 Correlation Energy        =      -2.5015763790231644 [Eh]
	 Total Energy              =    -570.9660038616633528 [Eh]

	 ================> DF-SCS-MP2 Energies <==================
	-----------------------------------------------------------
	 SCS Same-Spin Scale       =       0.3333333333333333 [-]
	 SCS Opposite-Spin Scale   =       1.2000000000000000 [-]
	 SCS Same-Spin Energy      =      -0.2048256494677993 [Eh]
	 SCS Opposite-Spin Energy  =      -2.2645193167437196 [Eh]
	 SCS Correlation Energy    =      -2.4693449662115188 [Eh]
	 SCS Total Energy          =    -570.9337724488517551 [Eh]
	-----------------------------------------------------------

  Dipole Moment: [D]
     X:    -5.0023      Y:    -0.1194      Z:     0.3491     Total:     5.0159

*** Psi4 exiting successfully. Buy a developer a beer!
