                               Psi4 1.3.2 release

  ==> Input File <==

--------------------------------------------------------------------------
#psi4
#
memory 32 gb

molecule  {
0 1
  O        3.1477550    -1.4485350    -0.2143050
  N        0.9062980    -1.2504610    -0.5893500
  N        1.5545360     1.4658350     0.3351760
  C       -0.6961080     0.5074870     0.0337420
  C       -0.3590146    -0.8806413    -0.2474054
  C        0.3345050     1.5654110    -0.0838510
  C        1.9201190     0.2388570     1.0398190
  C       -2.0282860     0.8425430     0.3372020
  C       -1.4126000    -1.8085370    -0.2310830
  C        2.0871850    -0.8915250     0.0446260
  C       -0.0584500     2.8482670    -0.7690020
  C       -3.0319510    -0.1194250     0.3623450
  C       -2.7230760    -1.4503270     0.0616580
  H        0.9974690    -2.0891180    -1.1576180
  H        1.1650960    -0.0456930     1.7889680
  H        2.8821530     0.3846540     1.5322680
  H       -2.2754030     1.8777800     0.5574090
  H       -1.1609050    -2.8458310    -0.4446670
  H       -0.7945500     3.4046450    -0.1790500
  H       -0.5037450     2.6486950    -1.7485080
  H        0.8332190     3.4662990    -0.8854880
  H       -4.0517820     0.1644530     0.6082680
  H       -3.5008180    -2.2099170     0.0672390
units angstrom
no_reorient  #important for SAPT in psi4, default
symmetry c1  #important for SAPT in psi4, default
}

set PROPERTIES_ORIGIN ["COM"]
properties('MP2/aug-cc-pvtz', properties = ['dipole'])
--------------------------------------------------------------------------

    Molecular point group: c1
  Charge       = 0
  Multiplicity = 1
  Basis Set: AUG-CC-PVTZ
    Blend: AUG-CC-PVTZ
  Basis Set: (AUG-CC-PVTZ AUX)
    Blend: AUG-CC-PVTZ-JKFIT

    Orbital Energies [Eh]
    ---------------------

    Doubly Occupied:

       1A    -20.536091     2A    -15.610722     3A    -15.566135
       4A    -11.366208     5A    -11.316446     6A    -11.301507
       7A    -11.268008     8A    -11.267986     9A    -11.265379
      10A    -11.264911    11A    -11.256372    12A    -11.251900
      13A    -11.233454    14A     -1.391967    15A     -1.285554
      16A     -1.236128    17A     -1.160754    18A     -1.063141
      19A     -1.035474    20A     -1.007153    21A     -0.952754
      22A     -0.888157    23A     -0.858553    24A     -0.798752
      25A     -0.765122    26A     -0.735858    27A     -0.692864
      28A     -0.679524    29A     -0.658887    30A     -0.643011
      31A     -0.624599    32A     -0.619029    33A     -0.608881
      34A     -0.586274    35A     -0.570018    36A     -0.558444
      37A     -0.543487    38A     -0.538695    39A     -0.525694
      40A     -0.510205    41A     -0.460297    42A     -0.449471
      43A     -0.416610    44A     -0.406290    45A     -0.353758
      46A     -0.326168

  @DF-RHF Final Energy:  -568.46170463924489

   => Energetics <=

    Nuclear Repulsion Energy =            760.5628996939443596
    One-Electron Energy =               -2281.1358309212096174
    Two-Electron Energy =                 952.1112265880202585
    Total Energy =                       -568.4617046392448856
  Basis Set: (AUG-CC-PVTZ AUX)
    Blend: AUG-CC-PVTZ-RI
    Molecular point group: c1

    Geometry (in Angstrom), charge = 0, multiplicity = 1:

       Center              X                  Y                   Z               Mass
    ------------   -----------------  -----------------  -----------------  -----------------
         O            3.109061285878    -1.419038120068    -0.212751150630    15.994914619570
         N            0.867604285878    -1.220964120068    -0.587796150630    14.003074004430
         N            1.515842285878     1.495331879932     0.336729849370    14.003074004430
         C           -0.734801714122     0.536983879932     0.035295849370    12.000000000000
         C           -0.397708314122    -0.851144420068    -0.245851550630    12.000000000000
         C            0.295811285878     1.594907879932    -0.082297150630    12.000000000000
         C            1.881425285878     0.268353879932     1.041372849370    12.000000000000
         C           -2.066979714122     0.872039879932     0.338755849370    12.000000000000
         C           -1.451293714122    -1.779040120068    -0.229529150630    12.000000000000
         C            2.048491285878    -0.862028120068     0.046179849370    12.000000000000
         C           -0.097143714122     2.877763879932    -0.767448150630    12.000000000000
         C           -3.070644714122    -0.089928120068     0.363898849370    12.000000000000
         C           -2.761769714122    -1.420830120068     0.063211849370    12.000000000000
         H            0.958775285878    -2.059621120068    -1.156064150630     1.007825032230
         H            1.126402285878    -0.016196120068     1.790521849370     1.007825032230
         H            2.843459285878     0.414150879932     1.533821849370     1.007825032230
         H           -2.314096714122     1.907276879932     0.558962849370     1.007825032230
         H           -1.199598714122    -2.816334120068    -0.443113150630     1.007825032230
         H           -0.833243714122     3.434141879932    -0.177496150630     1.007825032230
         H           -0.542438714122     2.678191879932    -1.746954150630     1.007825032230
         H            0.794525285878     3.495795879932    -0.883934150630     1.007825032230
         H           -4.090475714122     0.193949879932     0.609821849370     1.007825032230
         H           -3.539511714122    -2.180420120068     0.068792849370     1.007825032230

  Basis Set: AUG-CC-PVTZ
    Blend: AUG-CC-PVTZ
  Basis Set: (AUG-CC-PVTZ AUX)
    Blend: AUG-CC-PVTZ-JKFIT
	 Reference Energy          =    -568.4617046392448856 [Eh]
	 Singles Energy            =      -0.0000000000000000 [Eh]
	 Same-Spin Energy          =      -0.6150572605218096 [Eh]
	 Opposite-Spin Energy      =      -1.8877489198700403 [Eh]
	 Correlation Energy        =      -2.5028061803918500 [Eh]
	 Total Energy              =    -570.9645108196367573 [Eh]

	 ================> DF-SCS-MP2 Energies <==================
	-----------------------------------------------------------
	 SCS Same-Spin Scale       =       0.3333333333333333 [-]
	 SCS Opposite-Spin Scale   =       1.2000000000000000 [-]
	 SCS Same-Spin Energy      =      -0.2050190868406032 [Eh]
	 SCS Opposite-Spin Energy  =      -2.2652987038440484 [Eh]
	 SCS Correlation Energy    =      -2.4703177906846516 [Eh]
	 SCS Total Energy          =    -570.9320224299295887 [Eh]
	-----------------------------------------------------------

  Dipole Moment: [D]
     X:    -4.8932      Y:    -0.3089      Z:     0.1943     Total:     4.9068

*** Psi4 exiting successfully. Buy a developer a beer!
