                               Psi4 1.3.2 release

  ==> Input File <==

--------------------------------------------------------------------------
#psi4
#
memory 32 gb

molecule  {
0 1
  O        3.1477550    -1.4485350    -0.2143050
  N        0.9062980    -1.2504610    -0.5893500
  N        1.5545360     1.4658350     0.3351760
  C       -0.6961080     0.5074870     0.0337420
  C       -0.4250850    -0.9226261    -0.2860545
  C        0.3345050     1.5654110    -0.0838510
  C        1.9201190     0.2388570     1.0398190
  C       -2.0282860     0.8425430     0.3372020
  C       -1.4126000    -1.8085370    -0.2310830
  C        2.0871850    -0.8915250     0.0446260
  C       -0.0584500     2.8482670    -0.7690020
  C       -3.0319510    -0.1194250     0.3623450
  C       -2.7230760    -1.4503270     0.0616580
  H        0.9974690    -2.0891180    -1.1576180
  H        1.1650960    -0.0456930     1.7889680
  H        2.8821530     0.3846540     1.5322680
  H       -2.2754030     1.8777800     0.5574090
  H       -1.1609050    -2.8458310    -0.4446670
  H       -0.7945500     3.4046450    -0.1790500
  H       -0.5037450     2.6486950    -1.7485080
  H        0.8332190     3.4662990    -0.8854880
  H       -4.0517820     0.1644530     0.6082680
  H       -3.5008180    -2.2099170     0.0672390
units angstrom
no_reorient  #important for SAPT in psi4, default
symmetry c1  #important for SAPT in psi4, default
}

set PROPERTIES_ORIGIN ["COM"]
properties('MP2/aug-cc-pvtz', properties = ['dipole'])
--------------------------------------------------------------------------

    Molecular point group: c1
  Charge       = 0
  Multiplicity = 1
  Basis Set: AUG-CC-PVTZ
    Blend: AUG-CC-PVTZ
  Basis Set: (AUG-CC-PVTZ AUX)
    Blend: AUG-CC-PVTZ-JKFIT

    Orbital Energies [Eh]
    ---------------------

    Doubly Occupied:

       1A    -20.533372     2A    -15.605777     3A    -15.566918
       4A    -11.364859     5A    -11.312788     6A    -11.302913
       7A    -11.272029     8A    -11.267062     9A    -11.266656
      10A    -11.266324    11A    -11.253926    12A    -11.249661
      13A    -11.234187    14A     -1.387992    15A     -1.274272
      16A     -1.233579    17A     -1.165249    18A     -1.064440
      19A     -1.044886    20A     -1.004976    21A     -0.952161
      22A     -0.889978    23A     -0.852505    24A     -0.798588
      25A     -0.765760    26A     -0.730426    27A     -0.690643
      28A     -0.678301    29A     -0.660141    30A     -0.639144
      31A     -0.628438    32A     -0.618612    33A     -0.605419
      34A     -0.586395    35A     -0.568273    36A     -0.558839
      37A     -0.545450    38A     -0.537314    39A     -0.527515
      40A     -0.509633    41A     -0.458325    42A     -0.445354
      43A     -0.417441    44A     -0.406685    45A     -0.357143
      46A     -0.330152

  @DF-RHF Final Energy:  -568.45442162039694

   => Energetics <=

    Nuclear Repulsion Energy =            759.9371133470272071
    One-Electron Energy =               -2279.9220712251499208
    Two-Electron Energy =                 951.5305362577257711
    Total Energy =                       -568.4544216203969427
  Basis Set: (AUG-CC-PVTZ AUX)
    Blend: AUG-CC-PVTZ-RI
    Molecular point group: c1

    Geometry (in Angstrom), charge = 0, multiplicity = 1:

       Center              X                  Y                   Z               Mass
    ------------   -----------------  -----------------  -----------------  -----------------
         O            3.113615789147    -1.416143935851    -0.210086909876    15.994914619570
         N            0.872158789147    -1.218069935851    -0.585131909876    14.003074004430
         N            1.520396789147     1.498226064149     0.339394090124    14.003074004430
         C           -0.730247210853     0.539878064149     0.037960090124    12.000000000000
         C           -0.459224210853    -0.890235035851    -0.281836409876    12.000000000000
         C            0.300365789147     1.597802064149    -0.079632909876    12.000000000000
         C            1.885979789147     0.271248064149     1.044037090124    12.000000000000
         C           -2.062425210853     0.874934064149     0.341420090124    12.000000000000
         C           -1.446739210853    -1.776145935851    -0.226864909876    12.000000000000
         C            2.053045789147    -0.859133935851     0.048844090124    12.000000000000
         C           -0.092589210853     2.880658064149    -0.764783909876    12.000000000000
         C           -3.066090210853    -0.087033935851     0.366563090124    12.000000000000
         C           -2.757215210853    -1.417935935851     0.065876090124    12.000000000000
         H            0.963329789147    -2.056726935851    -1.153399909876     1.007825032230
         H            1.130956789147    -0.013301935851     1.793186090124     1.007825032230
         H            2.848013789147     0.417045064149     1.536486090124     1.007825032230
         H           -2.309542210853     1.910171064149     0.561627090124     1.007825032230
         H           -1.195044210853    -2.813439935851    -0.440448909876     1.007825032230
         H           -0.828689210853     3.437036064149    -0.174831909876     1.007825032230
         H           -0.537884210853     2.681086064149    -1.744289909876     1.007825032230
         H            0.799079789147     3.498690064149    -0.881269909876     1.007825032230
         H           -4.085921210853     0.196844064149     0.612486090124     1.007825032230
         H           -3.534957210853    -2.177525935851     0.071457090124     1.007825032230

  Basis Set: AUG-CC-PVTZ
    Blend: AUG-CC-PVTZ
  Basis Set: (AUG-CC-PVTZ AUX)
    Blend: AUG-CC-PVTZ-JKFIT
	 Reference Energy          =    -568.4544216203969427 [Eh]
	 Singles Energy            =      -0.0000000000000000 [Eh]
	 Same-Spin Energy          =      -0.6144919692662472 [Eh]
	 Opposite-Spin Energy      =      -1.8877812468784501 [Eh]
	 Correlation Energy        =      -2.5022732161446974 [Eh]
	 Total Energy              =    -570.9566948365416010 [Eh]

	 ================> DF-SCS-MP2 Energies <==================
	-----------------------------------------------------------
	 SCS Same-Spin Scale       =       0.3333333333333333 [-]
	 SCS Opposite-Spin Scale   =       1.2000000000000000 [-]
	 SCS Same-Spin Energy      =      -0.2048306564220824 [Eh]
	 SCS Opposite-Spin Energy  =      -2.2653374962541402 [Eh]
	 SCS Correlation Energy    =      -2.4701681526762225 [Eh]
	 SCS Total Energy          =    -570.9245897730731940 [Eh]
	-----------------------------------------------------------

  Dipole Moment: [D]
     X:    -5.1020      Y:    -0.2430      Z:     0.2467     Total:     5.1138

*** Psi4 exiting successfully. Buy a developer a beer!
