                               Psi4 1.4a3.dev225

  ==> Input File <==

--------------------------------------------------------------------------
#psi4
#
memory 32 gb

molecule  {
0 1
  O        3.1477550    -1.4485350    -0.2143050
  N        0.9062980    -1.2504610    -0.5893500
  N        1.5545360     1.4658350     0.3351760
  C       -0.6961080     0.5074870     0.0337420
  C       -0.3803117    -0.8931783    -0.2458725
  C        0.3345050     1.5654110    -0.0838510
  C        1.9201190     0.2388570     1.0398190
  C       -2.0282860     0.8425430     0.3372020
  C       -1.4126000    -1.8085370    -0.2310830
  C        2.0871850    -0.8915250     0.0446260
  C       -0.0584500     2.8482670    -0.7690020
  C       -3.0319510    -0.1194250     0.3623450
  C       -2.7230760    -1.4503270     0.0616580
  H        0.9974690    -2.0891180    -1.1576180
  H        1.1650960    -0.0456930     1.7889680
  H        2.8821530     0.3846540     1.5322680
  H       -2.2754030     1.8777800     0.5574090
  H       -1.1609050    -2.8458310    -0.4446670
  H       -0.7945500     3.4046450    -0.1790500
  H       -0.5037450     2.6486950    -1.7485080
  H        0.8332190     3.4662990    -0.8854880
  H       -4.0517820     0.1644530     0.6082680
  H       -3.5008180    -2.2099170     0.0672390
units angstrom
no_reorient  #important for SAPT in psi4, default
symmetry c1  #important for SAPT in psi4, default
}

set PROPERTIES_ORIGIN ["COM"]
properties('MP2/aug-cc-pvtz', properties = ['dipole'])
--------------------------------------------------------------------------

    Molecular point group: c1
  Charge       = 0
  Multiplicity = 1
  Basis Set: AUG-CC-PVTZ
    Blend: AUG-CC-PVTZ
  Basis Set: (AUG-CC-PVTZ AUX)
    Blend: AUG-CC-PVTZ-JKFIT

    Orbital Energies [Eh]
    ---------------------

    Doubly Occupied:

       1A    -20.534896     2A    -15.608908     3A    -15.566423
       4A    -11.365297     5A    -11.315145     6A    -11.302032
       7A    -11.269180     8A    -11.267604     9A    -11.265791
      10A    -11.265552    11A    -11.254546    12A    -11.252667
      13A    -11.233751    14A     -1.390292    15A     -1.280944
      16A     -1.235126    17A     -1.162413    18A     -1.063450
      19A     -1.038424    20A     -1.006852    21A     -0.952433
      22A     -0.888292    23A     -0.856641    24A     -0.798299
      25A     -0.765383    26A     -0.733784    27A     -0.691907
      28A     -0.678934    29A     -0.659162    30A     -0.642368
      31A     -0.625917    32A     -0.618827    33A     -0.607803
      34A     -0.586371    35A     -0.569005    36A     -0.558613
      37A     -0.544135    38A     -0.538246    39A     -0.526306
      40A     -0.510993    41A     -0.459473    42A     -0.447859
      43A     -0.417147    44A     -0.406301    45A     -0.354528
      46A     -0.328176

  @DF-RHF Final Energy:  -568.46193220581154

   => Energetics <=

    Nuclear Repulsion Energy =            760.3985828621376868
    One-Electron Energy =               -2280.8286425008395781
    Two-Electron Energy =                 951.9681274328904692
    Total Energy =                       -568.4619322058115358
  Basis Set: (AUG-CC-PVTZ AUX)
    Blend: AUG-CC-PVTZ-RI
    Molecular point group: c1

    Geometry (in Angstrom), charge = 0, multiplicity = 1:

       Center              X                  Y                   Z               Mass
    ------------   -----------------  -----------------  -----------------  -----------------
         O            3.110529382205    -1.418173893311    -0.212856819705    15.994914619570
         N            0.869072382205    -1.220099893311    -0.587901819705    14.003074004430
         N            1.517310382205     1.496196106689     0.336624180295    14.003074004430
         C           -0.733333617795     0.537848106689     0.035190180295    12.000000000000
         C           -0.417537317795    -0.862817193311    -0.244424319705    12.000000000000
         C            0.297279382205     1.595772106689    -0.082402819705    12.000000000000
         C            1.882893382205     0.269218106689     1.041267180295    12.000000000000
         C           -2.065511617795     0.872904106689     0.338650180295    12.000000000000
         C           -1.449825617795    -1.778175893311    -0.229634819705    12.000000000000
         C            2.049959382205    -0.861163893311     0.046074180295    12.000000000000
         C           -0.095675617795     2.878628106689    -0.767553819705    12.000000000000
         C           -3.069176617795    -0.089063893311     0.363793180295    12.000000000000
         C           -2.760301617795    -1.419965893311     0.063106180295    12.000000000000
         H            0.960243382205    -2.058756893311    -1.156169819705     1.007825032230
         H            1.127870382205    -0.015331893311     1.790416180295     1.007825032230
         H            2.844927382205     0.415015106689     1.533716180295     1.007825032230
         H           -2.312628617795     1.908141106689     0.558857180295     1.007825032230
         H           -1.198130617795    -2.815469893311    -0.443218819705     1.007825032230
         H           -0.831775617795     3.435006106689    -0.177601819705     1.007825032230
         H           -0.540970617795     2.679056106689    -1.747059819705     1.007825032230
         H            0.795993382205     3.496660106689    -0.884039819705     1.007825032230
         H           -4.089007617795     0.194814106689     0.609716180295     1.007825032230
         H           -3.538043617795    -2.179555893311     0.068687180295     1.007825032230

  Basis Set: AUG-CC-PVTZ
    Blend: AUG-CC-PVTZ
  Basis Set: (AUG-CC-PVTZ AUX)
    Blend: AUG-CC-PVTZ-JKFIT
	 Reference Energy          =    -568.4619322058115358 [Eh]
	 Singles Energy            =      -0.0000000000000000 [Eh]
	 Same-Spin Energy          =      -0.6148397082850396 [Eh]
	 Opposite-Spin Energy      =      -1.8876029980692208 [Eh]
	 Correlation Energy        =      -2.5024427063542607 [Eh]
	 Total Energy              =    -570.9643749121657947 [Eh]

	 ================> DF-SCS-MP2 Energies <==================
	-----------------------------------------------------------
	 SCS Same-Spin Scale       =       0.3333333333333333 [-]
	 SCS Opposite-Spin Scale   =       1.2000000000000000 [-]
	 SCS Same-Spin Energy      =      -0.2049465694283465 [Eh]
	 SCS Opposite-Spin Energy  =      -2.2651235976830648 [Eh]
	 SCS Correlation Energy    =      -2.4700701671114111 [Eh]
	 SCS Total Energy          =    -570.9320023729229661 [Eh]
	-----------------------------------------------------------

  Dipole Moment: [D]
     X:    -4.9775      Y:    -0.2858      Z:     0.2148     Total:     4.9903

*** Psi4 exiting successfully. Buy a developer a beer!
