                               Psi4 1.3.2 release

  ==> Input File <==

--------------------------------------------------------------------------
#psi4
#
memory 32 gb

molecule  {
0 1
  O        3.1477550    -1.4485350    -0.2143050
  N        0.9062980    -1.2504610    -0.5893500
  N        1.5545360     1.4658350     0.3351760
  C       -0.6961080     0.5074870     0.0337420
  C       -0.5758826    -0.7875992    -0.1860357
  C        0.3345050     1.5654110    -0.0838510
  C        1.9201190     0.2388570     1.0398190
  C       -2.0282860     0.8425430     0.3372020
  C       -1.4126000    -1.8085370    -0.2310830
  C        2.0871850    -0.8915250     0.0446260
  C       -0.0584500     2.8482670    -0.7690020
  C       -3.0319510    -0.1194250     0.3623450
  C       -2.7230760    -1.4503270     0.0616580
  H        0.9974690    -2.0891180    -1.1576180
  H        1.1650960    -0.0456930     1.7889680
  H        2.8821530     0.3846540     1.5322680
  H       -2.2754030     1.8777800     0.5574090
  H       -1.1609050    -2.8458310    -0.4446670
  H       -0.7945500     3.4046450    -0.1790500
  H       -0.5037450     2.6486950    -1.7485080
  H        0.8332190     3.4662990    -0.8854880
  H       -4.0517820     0.1644530     0.6082680
  H       -3.5008180    -2.2099170     0.0672390
units angstrom
no_reorient  #important for SAPT in psi4, default
symmetry c1  #important for SAPT in psi4, default
}

set PROPERTIES_ORIGIN ["COM"]
properties('MP2/aug-cc-pvtz', properties = ['dipole'])
--------------------------------------------------------------------------

    Molecular point group: c1
  Charge       = 0
  Multiplicity = 1
  Basis Set: AUG-CC-PVTZ
    Blend: AUG-CC-PVTZ
  Basis Set: (AUG-CC-PVTZ AUX)
    Blend: AUG-CC-PVTZ-JKFIT

    Orbital Energies [Eh]
    ---------------------

    Doubly Occupied:

       1A    -20.517817     2A    -15.586058     3A    -15.570459
       4A    -11.348594     5A    -11.310185     6A    -11.307515
       7A    -11.272026     8A    -11.271026     9A    -11.265336
      10A    -11.262900    11A    -11.259713    12A    -11.258494
      13A    -11.237690    14A     -1.371332    15A     -1.260542
      16A     -1.217157    17A     -1.172147    18A     -1.078611
      19A     -1.045269    20A     -1.020460    21A     -0.948144
      22A     -0.888713    23A     -0.854689    24A     -0.783711
      25A     -0.777688    26A     -0.716037    27A     -0.678923
      28A     -0.674560    29A     -0.667408    30A     -0.649661
      31A     -0.628988    32A     -0.615043    33A     -0.591242
      34A     -0.585055    35A     -0.561946    36A     -0.558552
      37A     -0.551547    38A     -0.534897    39A     -0.527952
      40A     -0.522507    41A     -0.446808    42A     -0.422751
      43A     -0.420600    44A     -0.401835    45A     -0.361280
      46A     -0.353513

  @DF-RHF Final Energy:  -568.42462582800636

   => Energetics <=

    Nuclear Repulsion Energy =            761.0201745220565499
    One-Electron Energy =               -2282.1748396968077941
    Two-Electron Energy =                 952.7300393467448885
    Total Energy =                       -568.4246258280063557
  Basis Set: (AUG-CC-PVTZ AUX)
    Blend: AUG-CC-PVTZ-RI
    Molecular point group: c1

    Geometry (in Angstrom), charge = 0, multiplicity = 1:

       Center              X                  Y                   Z               Mass
    ------------   -----------------  -----------------  -----------------  -----------------
         O            3.124010885321    -1.425451893084    -0.216981615396    15.994914619570
         N            0.882553885321    -1.227377893084    -0.592026615396    14.003074004430
         N            1.530791885321     1.488918106916     0.332499384604    14.003074004430
         C           -0.719852114679     0.530570106916     0.031065384604    12.000000000000
         C           -0.599626714679    -0.764516093084    -0.188712315396    12.000000000000
         C            0.310760885321     1.588494106916    -0.086527615396    12.000000000000
         C            1.896374885321     0.261940106916     1.037142384604    12.000000000000
         C           -2.052030114679     0.865626106916     0.334525384604    12.000000000000
         C           -1.436344114679    -1.785453893084    -0.233759615396    12.000000000000
         C            2.063440885321    -0.868441893084     0.041949384604    12.000000000000
         C           -0.082194114679     2.871350106916    -0.771678615396    12.000000000000
         C           -3.055695114679    -0.096341893084     0.359668384604    12.000000000000
         C           -2.746820114679    -1.427243893084     0.058981384604    12.000000000000
         H            0.973724885321    -2.066034893084    -1.160294615396     1.007825032230
         H            1.141351885321    -0.022609893084     1.786291384604     1.007825032230
         H            2.858408885321     0.407737106916     1.529591384604     1.007825032230
         H           -2.299147114679     1.900863106916     0.554732384604     1.007825032230
         H           -1.184649114679    -2.822747893084    -0.447343615396     1.007825032230
         H           -0.818294114679     3.427728106916    -0.181726615396     1.007825032230
         H           -0.527489114679     2.671778106916    -1.751184615396     1.007825032230
         H            0.809474885321     3.489382106916    -0.888164615396     1.007825032230
         H           -4.075526114679     0.187536106916     0.605591384604     1.007825032230
         H           -3.524562114679    -2.186833893084     0.064562384604     1.007825032230

  Basis Set: AUG-CC-PVTZ
    Blend: AUG-CC-PVTZ
  Basis Set: (AUG-CC-PVTZ AUX)
    Blend: AUG-CC-PVTZ-JKFIT
	 Reference Energy          =    -568.4246258280063557 [Eh]
	 Singles Energy            =      -0.0000000000000000 [Eh]
	 Same-Spin Energy          =      -0.6143842359437250 [Eh]
	 Opposite-Spin Energy      =      -1.8887775400779039 [Eh]
	 Correlation Energy        =      -2.5031617760216287 [Eh]
	 Total Energy              =    -570.9277876040280262 [Eh]

	 ================> DF-SCS-MP2 Energies <==================
	-----------------------------------------------------------
	 SCS Same-Spin Scale       =       0.3333333333333333 [-]
	 SCS Opposite-Spin Scale   =       1.2000000000000000 [-]
	 SCS Same-Spin Energy      =      -0.2047947453145750 [Eh]
	 SCS Opposite-Spin Energy  =      -2.2665330480934847 [Eh]
	 SCS Correlation Energy    =      -2.4713277934080597 [Eh]
	 SCS Total Energy          =    -570.8959536214143782 [Eh]
	-----------------------------------------------------------

  Dipole Moment: [D]
     X:    -6.0349      Y:     0.0289      Z:     0.3886     Total:     6.0474

*** Psi4 exiting successfully. Buy a developer a beer!
