                               Psi4 1.3.2 release

  ==> Input File <==

--------------------------------------------------------------------------
#psi4
#
memory 32 gb

molecule  {
0 1
  O        3.1477550    -1.4485350    -0.2143050
  N        0.9062980    -1.2504610    -0.5893500
  N        1.5545360     1.4658350     0.3351760
  C       -0.6961080     0.5074870     0.0337420
  C       -0.5322249    -0.8754835    -0.2040185
  C        0.3345050     1.5654110    -0.0838510
  C        1.9201190     0.2388570     1.0398190
  C       -2.0282860     0.8425430     0.3372020
  C       -1.4126000    -1.8085370    -0.2310830
  C        2.0871850    -0.8915250     0.0446260
  C       -0.0584500     2.8482670    -0.7690020
  C       -3.0319510    -0.1194250     0.3623450
  C       -2.7230760    -1.4503270     0.0616580
  H        0.9974690    -2.0891180    -1.1576180
  H        1.1650960    -0.0456930     1.7889680
  H        2.8821530     0.3846540     1.5322680
  H       -2.2754030     1.8777800     0.5574090
  H       -1.1609050    -2.8458310    -0.4446670
  H       -0.7945500     3.4046450    -0.1790500
  H       -0.5037450     2.6486950    -1.7485080
  H        0.8332190     3.4662990    -0.8854880
  H       -4.0517820     0.1644530     0.6082680
  H       -3.5008180    -2.2099170     0.0672390
units angstrom
no_reorient  #important for SAPT in psi4, default
symmetry c1  #important for SAPT in psi4, default
}

set PROPERTIES_ORIGIN ["COM"]
properties('MP2/aug-cc-pvtz', properties = ['dipole'])
--------------------------------------------------------------------------

    Molecular point group: c1
  Charge       = 0
  Multiplicity = 1
  Basis Set: AUG-CC-PVTZ
    Blend: AUG-CC-PVTZ
  Basis Set: (AUG-CC-PVTZ AUX)
    Blend: AUG-CC-PVTZ-JKFIT

    Orbital Energies [Eh]
    ---------------------

    Doubly Occupied:

       1A    -20.523426     2A    -15.593422     3A    -15.568636
       4A    -11.354462     5A    -11.308620     6A    -11.305763
       7A    -11.271657     8A    -11.269983     9A    -11.269488
      10A    -11.264155    11A    -11.257966    12A    -11.249953
      13A    -11.236199    14A     -1.376949    15A     -1.260129
      16A     -1.221426    17A     -1.173065    18A     -1.072524
      19A     -1.048873    20A     -1.012199    21A     -0.949180
      22A     -0.890129    23A     -0.848775    24A     -0.787757
      25A     -0.775203    26A     -0.717238    27A     -0.683186
      28A     -0.674923    29A     -0.662931    30A     -0.648494
      31A     -0.630415    32A     -0.615873    33A     -0.594353
      34A     -0.586839    35A     -0.561612    36A     -0.558744
      37A     -0.549697    38A     -0.535156    39A     -0.530477
      40A     -0.519209    41A     -0.450155    42A     -0.431265
      43A     -0.420479    44A     -0.404682    45A     -0.361501
      46A     -0.343870

  @DF-RHF Final Energy:  -568.43928581373348

   => Energetics <=

    Nuclear Repulsion Energy =            760.3416095524848970
    One-Electron Energy =               -2280.8197175041364062
    Two-Electron Energy =                 952.0388221379180322
    Total Energy =                       -568.4392858137334770
  Basis Set: (AUG-CC-PVTZ AUX)
    Blend: AUG-CC-PVTZ-RI
    Molecular point group: c1

    Geometry (in Angstrom), charge = 0, multiplicity = 1:

       Center              X                  Y                   Z               Mass
    ------------   -----------------  -----------------  -----------------  -----------------
         O            3.121001381256    -1.419393668346    -0.215741987342    15.994914619570
         N            0.879544381256    -1.221319668346    -0.590786987342    14.003074004430
         N            1.527782381256     1.494976331654     0.333739012658    14.003074004430
         C           -0.722861618744     0.536628331654     0.032305012658    12.000000000000
         C           -0.558978518744    -0.846342168346    -0.205455487342    12.000000000000
         C            0.307751381256     1.594552331654    -0.085287987342    12.000000000000
         C            1.893365381256     0.267998331654     1.038382012658    12.000000000000
         C           -2.055039618744     0.871684331654     0.335765012658    12.000000000000
         C           -1.439353618744    -1.779395668346    -0.232519987342    12.000000000000
         C            2.060431381256    -0.862383668346     0.043189012658    12.000000000000
         C           -0.085203618744     2.877408331654    -0.770438987342    12.000000000000
         C           -3.058704618744    -0.090283668346     0.360908012658    12.000000000000
         C           -2.749829618744    -1.421185668346     0.060221012658    12.000000000000
         H            0.970715381256    -2.059976668346    -1.159054987342     1.007825032230
         H            1.138342381256    -0.016551668346     1.787531012658     1.007825032230
         H            2.855399381256     0.413795331654     1.530831012658     1.007825032230
         H           -2.302156618744     1.906921331654     0.555972012658     1.007825032230
         H           -1.187658618744    -2.816689668346    -0.446103987342     1.007825032230
         H           -0.821303618744     3.433786331654    -0.180486987342     1.007825032230
         H           -0.530498618744     2.677836331654    -1.749944987342     1.007825032230
         H            0.806465381256     3.495440331654    -0.886924987342     1.007825032230
         H           -4.078535618744     0.193594331654     0.606831012658     1.007825032230
         H           -3.527571618744    -2.180775668346     0.065802012658     1.007825032230

  Basis Set: AUG-CC-PVTZ
    Blend: AUG-CC-PVTZ
  Basis Set: (AUG-CC-PVTZ AUX)
    Blend: AUG-CC-PVTZ-JKFIT
	 Reference Energy          =    -568.4392858137334770 [Eh]
	 Singles Energy            =      -0.0000000000000000 [Eh]
	 Same-Spin Energy          =      -0.6139817756907896 [Eh]
	 Opposite-Spin Energy      =      -1.8877838288011795 [Eh]
	 Correlation Energy        =      -2.5017656044919692 [Eh]
	 Total Energy              =    -570.9410514182254701 [Eh]

	 ================> DF-SCS-MP2 Energies <==================
	-----------------------------------------------------------
	 SCS Same-Spin Scale       =       0.3333333333333333 [-]
	 SCS Opposite-Spin Scale   =       1.2000000000000000 [-]
	 SCS Same-Spin Energy      =      -0.2046605918969299 [Eh]
	 SCS Opposite-Spin Energy  =      -2.2653405945614153 [Eh]
	 SCS Correlation Energy    =      -2.4700011864583451 [Eh]
	 SCS Total Energy          =    -570.9092870001918527 [Eh]
	-----------------------------------------------------------

  Dipole Moment: [D]
     X:    -5.7274      Y:    -0.0956      Z:     0.3507     Total:     5.7389

*** Psi4 exiting successfully. Buy a developer a beer!
