                               Psi4 1.3.2 release

  ==> Input File <==

--------------------------------------------------------------------------
#psi4
#
memory 32 gb

molecule  {
0 1
  O        3.1477550    -1.4485350    -0.2143050
  N        0.9062980    -1.2504610    -0.5893500
  N        1.5545360     1.4658350     0.3351760
  C       -0.6961080     0.5074870     0.0337420
  C       -0.4244420    -0.8111362    -0.2252183
  C        0.3345050     1.5654110    -0.0838510
  C        1.9201190     0.2388570     1.0398190
  C       -2.0282860     0.8425430     0.3372020
  C       -1.4126000    -1.8085370    -0.2310830
  C        2.0871850    -0.8915250     0.0446260
  C       -0.0584500     2.8482670    -0.7690020
  C       -3.0319510    -0.1194250     0.3623450
  C       -2.7230760    -1.4503270     0.0616580
  H        0.9974690    -2.0891180    -1.1576180
  H        1.1650960    -0.0456930     1.7889680
  H        2.8821530     0.3846540     1.5322680
  H       -2.2754030     1.8777800     0.5574090
  H       -1.1609050    -2.8458310    -0.4446670
  H       -0.7945500     3.4046450    -0.1790500
  H       -0.5037450     2.6486950    -1.7485080
  H        0.8332190     3.4662990    -0.8854880
  H       -4.0517820     0.1644530     0.6082680
  H       -3.5008180    -2.2099170     0.0672390
units angstrom
no_reorient  #important for SAPT in psi4, default
symmetry c1  #important for SAPT in psi4, default
}

set PROPERTIES_ORIGIN ["COM"]
properties('MP2/aug-cc-pvtz', properties = ['dipole'])
--------------------------------------------------------------------------

    Molecular point group: c1
  Charge       = 0
  Multiplicity = 1
  Basis Set: AUG-CC-PVTZ
    Blend: AUG-CC-PVTZ
  Basis Set: (AUG-CC-PVTZ AUX)
    Blend: AUG-CC-PVTZ-JKFIT

    Orbital Energies [Eh]
    ---------------------

    Doubly Occupied:

       1A    -20.528679     2A    -15.603249     3A    -15.567992
       4A    -11.359162     5A    -11.312564     6A    -11.303386
       7A    -11.267420     8A    -11.266140     9A    -11.266069
      10A    -11.263786    11A    -11.260166    12A    -11.255429
      13A    -11.235013    14A     -1.383444    15A     -1.269516
      16A     -1.228317    17A     -1.168274    18A     -1.068489
      19A     -1.035090    20A     -1.015154    21A     -0.950779
      22A     -0.884200    23A     -0.857980    24A     -0.792132
      25A     -0.770841    26A     -0.722587    27A     -0.689820
      28A     -0.676097    29A     -0.656251    30A     -0.653847
      31A     -0.627253    32A     -0.617711    33A     -0.600415
      34A     -0.586811    35A     -0.563891    36A     -0.559250
      37A     -0.544153    38A     -0.538562    39A     -0.529958
      40A     -0.519702    41A     -0.455244    42A     -0.439443
      43A     -0.418355    44A     -0.404418    45A     -0.356706
      46A     -0.337803

  @DF-RHF Final Energy:  -568.46334162714618

   => Energetics <=

    Nuclear Repulsion Energy =            760.9429138035127380
    One-Electron Energy =               -2281.9894115304937259
    Two-Electron Energy =                 952.5831560998348095
    Total Energy =                       -568.4633416271461783
  Basis Set: (AUG-CC-PVTZ AUX)
    Blend: AUG-CC-PVTZ-RI
    Molecular point group: c1

    Geometry (in Angstrom), charge = 0, multiplicity = 1:

       Center              X                  Y                   Z               Mass
    ------------   -----------------  -----------------  -----------------  -----------------
         O            3.113571464524    -1.423829391276    -0.214280598302    15.994914619570
         N            0.872114464524    -1.225755391276    -0.589325598302    14.003074004430
         N            1.520352464524     1.490540608724     0.335200401698    14.003074004430
         C           -0.730291535476     0.532192608724     0.033766401698    12.000000000000
         C           -0.458625535476    -0.786430591276    -0.225193898302    12.000000000000
         C            0.300321464524     1.590116608724    -0.083826598302    12.000000000000
         C            1.885935464524     0.263562608724     1.039843401698    12.000000000000
         C           -2.062469535476     0.867248608724     0.337226401698    12.000000000000
         C           -1.446783535476    -1.783831391276    -0.231058598302    12.000000000000
         C            2.053001464524    -0.866819391276     0.044650401698    12.000000000000
         C           -0.092633535476     2.872972608724    -0.768977598302    12.000000000000
         C           -3.066134535476    -0.094719391276     0.362369401698    12.000000000000
         C           -2.757259535476    -1.425621391276     0.061682401698    12.000000000000
         H            0.963285464524    -2.064412391276    -1.157593598302     1.007825032230
         H            1.130912464524    -0.020987391276     1.788992401698     1.007825032230
         H            2.847969464524     0.409359608724     1.532292401698     1.007825032230
         H           -2.309586535476     1.902485608724     0.557433401698     1.007825032230
         H           -1.195088535476    -2.821125391276    -0.444642598302     1.007825032230
         H           -0.828733535476     3.429350608724    -0.179025598302     1.007825032230
         H           -0.537928535476     2.673400608724    -1.748483598302     1.007825032230
         H            0.799035464524     3.491004608724    -0.885463598302     1.007825032230
         H           -4.085965535476     0.189158608724     0.608292401698     1.007825032230
         H           -3.535001535476    -2.185211391276     0.067263401698     1.007825032230

  Basis Set: AUG-CC-PVTZ
    Blend: AUG-CC-PVTZ
  Basis Set: (AUG-CC-PVTZ AUX)
    Blend: AUG-CC-PVTZ-JKFIT
	 Reference Energy          =    -568.4633416271461783 [Eh]
	 Singles Energy            =      -0.0000000000000000 [Eh]
	 Same-Spin Energy          =      -0.6140048814299469 [Eh]
	 Opposite-Spin Energy      =      -1.8869631700632459 [Eh]
	 Correlation Energy        =      -2.5009680514931927 [Eh]
	 Total Energy              =    -570.9643096786393244 [Eh]

	 ================> DF-SCS-MP2 Energies <==================
	-----------------------------------------------------------
	 SCS Same-Spin Scale       =       0.3333333333333333 [-]
	 SCS Opposite-Spin Scale   =       1.2000000000000000 [-]
	 SCS Same-Spin Energy      =      -0.2046682938099823 [Eh]
	 SCS Opposite-Spin Energy  =      -2.2643558040758949 [Eh]
	 SCS Correlation Energy    =      -2.4690240978858773 [Eh]
	 SCS Total Energy          =    -570.9323657250320139 [Eh]
	-----------------------------------------------------------

  Dipole Moment: [D]
     X:    -5.3268      Y:    -0.1738      Z:     0.2601     Total:     5.3360

*** Psi4 exiting successfully. Buy a developer a beer!
