                               Psi4 1.3.2 release

  ==> Input File <==

--------------------------------------------------------------------------
#psi4
#
memory 32 gb

molecule  {
0 1
  O        3.1477550    -1.4485350    -0.2143050
  N        0.9062980    -1.2504610    -0.5893500
  N        1.5545360     1.4658350     0.3351760
  C       -0.6961080     0.5074870     0.0337420
  C       -0.3911060    -0.8453020    -0.2363150
  C        0.3345050     1.5654110    -0.0838510
  C        1.9201190     0.2388570     1.0398190
  C       -2.2176790     0.8901772     0.3803443
  C       -1.4126000    -1.8085370    -0.2310830
  C        2.0871850    -0.8915250     0.0446260
  C       -0.0584500     2.8482670    -0.7690020
  C       -3.0319510    -0.1194250     0.3623450
  C       -2.7230760    -1.4503270     0.0616580
  H        0.9974690    -2.0891180    -1.1576180
  H        1.1650960    -0.0456930     1.7889680
  H        2.8821530     0.3846540     1.5322680
  H       -2.2754030     1.8777800     0.5574090
  H       -1.1609050    -2.8458310    -0.4446670
  H       -0.7945500     3.4046450    -0.1790500
  H       -0.5037450     2.6486950    -1.7485080
  H        0.8332190     3.4662990    -0.8854880
  H       -4.0517820     0.1644530     0.6082680
  H       -3.5008180    -2.2099170     0.0672390
units angstrom
no_reorient  #important for SAPT in psi4, default
symmetry c1  #important for SAPT in psi4, default
}

set PROPERTIES_ORIGIN ["COM"]
properties('MP2/aug-cc-pvtz', properties = ['dipole'])
--------------------------------------------------------------------------

    Molecular point group: c1
  Charge       = 0
  Multiplicity = 1
  Basis Set: AUG-CC-PVTZ
    Blend: AUG-CC-PVTZ
  Basis Set: (AUG-CC-PVTZ AUX)
    Blend: AUG-CC-PVTZ-JKFIT

    Orbital Energies [Eh]
    ---------------------

    Doubly Occupied:

       1A    -20.530914     2A    -15.607050     3A    -15.564924
       4A    -11.361611     5A    -11.313942     6A    -11.300565
       7A    -11.274955     8A    -11.269064     9A    -11.266592
      10A    -11.265091    11A    -11.264117    12A    -11.247542
      13A    -11.233830    14A     -1.386438    15A     -1.273914
      16A     -1.231051    17A     -1.161293    18A     -1.057701
      19A     -1.048798    20A     -1.002890    21A     -0.951550
      22A     -0.895384    23A     -0.853337    24A     -0.793969
      25A     -0.761240    26A     -0.740198    27A     -0.691452
      28A     -0.678886    29A     -0.669761    30A     -0.650007
      31A     -0.619846    32A     -0.613833    33A     -0.605456
      34A     -0.585459    35A     -0.572647    36A     -0.564142
      37A     -0.545449    38A     -0.527935    39A     -0.519895
      40A     -0.503396    41A     -0.454074    42A     -0.448004
      43A     -0.415565    44A     -0.400007    45A     -0.356657
      46A     -0.331104

  @DF-RHF Final Energy:  -568.42482889999974

   => Energetics <=

    Nuclear Repulsion Energy =            757.6259741209264575
    One-Electron Energy =               -2275.2785271328543786
    Two-Electron Energy =                 949.2277241119281825
    Total Energy =                       -568.4248288999997385
  Basis Set: (AUG-CC-PVTZ AUX)
    Blend: AUG-CC-PVTZ-RI
    Molecular point group: c1

    Geometry (in Angstrom), charge = 0, multiplicity = 1:

       Center              X                  Y                   Z               Mass
    ------------   -----------------  -----------------  -----------------  -----------------
         O            3.124329112680    -1.424757823249    -0.216489632756    15.994914619570
         N            0.882872112680    -1.226683823249    -0.591534632756    14.003074004430
         N            1.531110112680     1.489612176751     0.332991367244    14.003074004430
         C           -0.719533887320     0.531264176751     0.031557367244    12.000000000000
         C           -0.414531887320    -0.821524823249    -0.238499632756    12.000000000000
         C            0.311079112680     1.589188176751    -0.086035632756    12.000000000000
         C            1.896693112680     0.262634176751     1.037634367244    12.000000000000
         C           -2.241104887320     0.913954376751     0.378159667244    12.000000000000
         C           -1.436025887320    -1.784759823249    -0.233267632756    12.000000000000
         C            2.063759112680    -0.867747823249     0.042441367244    12.000000000000
         C           -0.081875887320     2.872044176751    -0.771186632756    12.000000000000
         C           -3.055376887320    -0.095647823249     0.360160367244    12.000000000000
         C           -2.746501887320    -1.426549823249     0.059473367244    12.000000000000
         H            0.974043112680    -2.065340823249    -1.159802632756     1.007825032230
         H            1.141670112680    -0.021915823249     1.786783367244     1.007825032230
         H            2.858727112680     0.408431176751     1.530083367244     1.007825032230
         H           -2.298828887320     1.901557176751     0.555224367244     1.007825032230
         H           -1.184330887320    -2.822053823249    -0.446851632756     1.007825032230
         H           -0.817975887320     3.428422176751    -0.181234632756     1.007825032230
         H           -0.527170887320     2.672472176751    -1.750692632756     1.007825032230
         H            0.809793112680     3.490076176751    -0.887672632756     1.007825032230
         H           -4.075207887320     0.188230176751     0.606083367244     1.007825032230
         H           -3.524243887320    -2.186139823249     0.065054367244     1.007825032230

  Basis Set: AUG-CC-PVTZ
    Blend: AUG-CC-PVTZ
  Basis Set: (AUG-CC-PVTZ AUX)
    Blend: AUG-CC-PVTZ-JKFIT
	 Reference Energy          =    -568.4248288999997385 [Eh]
	 Singles Energy            =      -0.0000000000000000 [Eh]
	 Same-Spin Energy          =      -0.6141747833970846 [Eh]
	 Opposite-Spin Energy      =      -1.8894486798090113 [Eh]
	 Correlation Energy        =      -2.5036234632060959 [Eh]
	 Total Energy              =    -570.9284523632057926 [Eh]

	 ================> DF-SCS-MP2 Energies <==================
	-----------------------------------------------------------
	 SCS Same-Spin Scale       =       0.3333333333333333 [-]
	 SCS Opposite-Spin Scale   =       1.2000000000000000 [-]
	 SCS Same-Spin Energy      =      -0.2047249277990282 [Eh]
	 SCS Opposite-Spin Energy  =      -2.2673384157708134 [Eh]
	 SCS Correlation Energy    =      -2.4720633435698418 [Eh]
	 SCS Total Energy          =    -570.8968922435695958 [Eh]
	-----------------------------------------------------------

  Dipole Moment: [D]
     X:    -5.2060      Y:    -0.2778      Z:     0.2148     Total:     5.2178

*** Psi4 exiting successfully. Buy a developer a beer!
