                               Psi4 1.3.2 release

  ==> Input File <==

--------------------------------------------------------------------------
#psi4
#
memory 32 gb

molecule  {
0 1
  O        3.1477550    -1.4485350    -0.2143050
  N        0.9062980    -1.2504610    -0.5893500
  N        1.5545360     1.4658350     0.3351760
  C       -0.6961080     0.5074870     0.0337420
  C       -0.4076209    -0.8280698    -0.2307666
  C        0.3345050     1.5654110    -0.0838510
  C        1.9201190     0.2388570     1.0398190
  C       -2.0282860     0.8425430     0.3372020
  C       -1.4126000    -1.8085370    -0.2310830
  C        2.0871850    -0.8915250     0.0446260
  C       -0.0584500     2.8482670    -0.7690020
  C       -3.0319510    -0.1194250     0.3623450
  C       -2.7230760    -1.4503270     0.0616580
  H        0.9974690    -2.0891180    -1.1576180
  H        1.1650960    -0.0456930     1.7889680
  H        2.8821530     0.3846540     1.5322680
  H       -2.2754030     1.8777800     0.5574090
  H       -1.1609050    -2.8458310    -0.4446670
  H       -0.7945500     3.4046450    -0.1790500
  H       -0.5037450     2.6486950    -1.7485080
  H        0.8332190     3.4662990    -0.8854880
  H       -4.0517820     0.1644530     0.6082680
  H       -3.5008180    -2.2099170     0.0672390
units angstrom
no_reorient  #important for SAPT in psi4, default
symmetry c1  #important for SAPT in psi4, default
}

set PROPERTIES_ORIGIN ["COM"]
properties('MP2/aug-cc-pvtz', properties = ['dipole'])
--------------------------------------------------------------------------

    Molecular point group: c1
  Charge       = 0
  Multiplicity = 1
  Basis Set: AUG-CC-PVTZ
    Blend: AUG-CC-PVTZ
  Basis Set: (AUG-CC-PVTZ AUX)
    Blend: AUG-CC-PVTZ-JKFIT

    Orbital Energies [Eh]
    ---------------------

    Doubly Occupied:

       1A    -20.530445     2A    -15.605179     3A    -15.567522
       4A    -11.360865     5A    -11.313461     6A    -11.302877
       7A    -11.267016     8A    -11.266580     9A    -11.265754
      10A    -11.264858    11A    -11.259214    12A    -11.254620
      13A    -11.234607    14A     -1.385429    15A     -1.272399
      16A     -1.230751    17A     -1.166439    18A     -1.066951
      19A     -1.035148    20A     -1.013201    21A     -0.951215
      22A     -0.884836    23A     -0.857988    24A     -0.793763
      25A     -0.769510    26A     -0.725583    27A     -0.690721
      28A     -0.676923    29A     -0.656793    30A     -0.651157
      31A     -0.626781    32A     -0.618015    33A     -0.602556
      34A     -0.586637    35A     -0.565373    36A     -0.559027
      37A     -0.543767    38A     -0.538901    39A     -0.528929
      40A     -0.517714    41A     -0.456419    42A     -0.442024
      43A     -0.417989    44A     -0.404919    45A     -0.355748
      46A     -0.335107

  @DF-RHF Final Energy:  -568.46520677252249

   => Energetics <=

    Nuclear Repulsion Energy =            760.8391846555343818
    One-Electron Energy =               -2281.7653612586254894
    Two-Electron Energy =                 952.4609698305686152
    Total Energy =                       -568.4652067725224924
  Basis Set: (AUG-CC-PVTZ AUX)
    Blend: AUG-CC-PVTZ-RI
    Molecular point group: c1

    Geometry (in Angstrom), charge = 0, multiplicity = 1:

       Center              X                  Y                   Z               Mass
    ------------   -----------------  -----------------  -----------------  -----------------
         O            3.112411917208    -1.422662088874    -0.213898131260    15.994914619570
         N            0.870954917208    -1.224588088874    -0.588943131260    14.003074004430
         N            1.519192917208     1.491707911126     0.335582868740    14.003074004430
         C           -0.731451082792     0.533359911126     0.034148868740    12.000000000000
         C           -0.442963982792    -0.802196888874    -0.230359731260    12.000000000000
         C            0.299161917208     1.591283911126    -0.083444131260    12.000000000000
         C            1.884775917208     0.264729911126     1.040225868740    12.000000000000
         C           -2.063629082792     0.868415911126     0.337608868740    12.000000000000
         C           -1.447943082792    -1.782664088874    -0.230676131260    12.000000000000
         C            2.051841917208    -0.865652088874     0.045032868740    12.000000000000
         C           -0.093793082792     2.874139911126    -0.768595131260    12.000000000000
         C           -3.067294082792    -0.093552088874     0.362751868740    12.000000000000
         C           -2.758419082792    -1.424454088874     0.062064868740    12.000000000000
         H            0.962125917208    -2.063245088874    -1.157211131260     1.007825032230
         H            1.129752917208    -0.019820088874     1.789374868740     1.007825032230
         H            2.846809917208     0.410526911126     1.532674868740     1.007825032230
         H           -2.310746082792     1.903652911126     0.557815868740     1.007825032230
         H           -1.196248082792    -2.819958088874    -0.444260131260     1.007825032230
         H           -0.829893082792     3.430517911126    -0.178643131260     1.007825032230
         H           -0.539088082792     2.674567911126    -1.748101131260     1.007825032230
         H            0.797875917208     3.492171911126    -0.885081131260     1.007825032230
         H           -4.087125082792     0.190325911126     0.608674868740     1.007825032230
         H           -3.536161082792    -2.184044088874     0.067645868740     1.007825032230

  Basis Set: AUG-CC-PVTZ
    Blend: AUG-CC-PVTZ
  Basis Set: (AUG-CC-PVTZ AUX)
    Blend: AUG-CC-PVTZ-JKFIT
	 Reference Energy          =    -568.4652067725224924 [Eh]
	 Singles Energy            =      -0.0000000000000000 [Eh]
	 Same-Spin Energy          =      -0.6142181489469601 [Eh]
	 Opposite-Spin Energy      =      -1.8870289303520331 [Eh]
	 Correlation Energy        =      -2.5012470792989934 [Eh]
	 Total Energy              =    -570.9664538518214840 [Eh]

	 ================> DF-SCS-MP2 Energies <==================
	-----------------------------------------------------------
	 SCS Same-Spin Scale       =       0.3333333333333333 [-]
	 SCS Opposite-Spin Scale   =       1.2000000000000000 [-]
	 SCS Same-Spin Energy      =      -0.2047393829823200 [Eh]
	 SCS Opposite-Spin Energy  =      -2.2644347164224397 [Eh]
	 SCS Correlation Energy    =      -2.4691740994047597 [Eh]
	 SCS Total Energy          =    -570.9343808719272602 [Eh]
	-----------------------------------------------------------

  Dipole Moment: [D]
     X:    -5.2215      Y:    -0.2083      Z:     0.2438     Total:     5.2313

*** Psi4 exiting successfully. Buy a developer a beer!
