                               Psi4 1.3.2 release

  ==> Input File <==

--------------------------------------------------------------------------
#psi4
#
memory 32 gb

molecule  {
0 1
  O        3.1477550    -1.4485350    -0.2143050
  N        0.9215793    -1.2043660    -0.5826890
  N        1.5545360     1.4658350     0.3351760
  C       -0.6961080     0.5074870     0.0337420
  C       -0.3911060    -0.8453020    -0.2363150
  C        0.3345050     1.5654110    -0.0838510
  C        1.9201190     0.2388570     1.0398190
  C       -2.0282860     0.8425430     0.3372020
  C       -1.4126000    -1.8085370    -0.2310830
  C        2.0871850    -0.8915250     0.0446260
  C       -0.0584500     2.8482670    -0.7690020
  C       -3.0319510    -0.1194250     0.3623450
  C       -2.7230760    -1.4503270     0.0616580
  H        0.9974690    -2.0891180    -1.1576180
  H        1.1650960    -0.0456930     1.7889680
  H        2.8821530     0.3846540     1.5322680
  H       -2.2754030     1.8777800     0.5574090
  H       -1.1609050    -2.8458310    -0.4446670
  H       -0.7945500     3.4046450    -0.1790500
  H       -0.5037450     2.6486950    -1.7485080
  H        0.8332190     3.4662990    -0.8854880
  H       -4.0517820     0.1644530     0.6082680
  H       -3.5008180    -2.2099170     0.0672390
units angstrom
no_reorient  #important for SAPT in psi4, default
symmetry c1  #important for SAPT in psi4, default
}

set PROPERTIES_ORIGIN ["COM"]
properties('MP2/aug-cc-pvtz', properties = ['dipole'])
--------------------------------------------------------------------------

    Molecular point group: c1
  Charge       = 0
  Multiplicity = 1
  Basis Set: AUG-CC-PVTZ
    Blend: AUG-CC-PVTZ
  Basis Set: (AUG-CC-PVTZ AUX)
    Blend: AUG-CC-PVTZ-JKFIT

    Orbital Energies [Eh]
    ---------------------

    Doubly Occupied:

       1A    -20.529315     2A    -15.611112     3A    -15.566874
       4A    -11.359364     5A    -11.315573     6A    -11.301896
       7A    -11.267098     8A    -11.266740     9A    -11.265840
      10A    -11.264904    11A    -11.260654    12A    -11.254939
      13A    -11.234079    14A     -1.387536    15A     -1.278459
      16A     -1.232183    17A     -1.166335    18A     -1.066111
      19A     -1.037682    20A     -1.010694    21A     -0.950754
      22A     -0.887339    23A     -0.860745    24A     -0.795119
      25A     -0.766657    26A     -0.726587    27A     -0.692189
      28A     -0.676996    29A     -0.659192    30A     -0.646790
      31A     -0.626853    32A     -0.618237    33A     -0.599823
      34A     -0.586389    35A     -0.568286    36A     -0.559199
      37A     -0.543705    38A     -0.539066    39A     -0.528353
      40A     -0.514499    41A     -0.457205    42A     -0.444279
      43A     -0.417355    44A     -0.404313    45A     -0.355443
      46A     -0.334190

  @DF-RHF Final Energy:  -568.46189177916108

   => Energetics <=

    Nuclear Repulsion Energy =            761.4684252340823605
    One-Electron Energy =               -2282.9867351337534274
    Two-Electron Energy =                 953.0564181205099885
    Total Energy =                       -568.4618917791610784
  Basis Set: (AUG-CC-PVTZ AUX)
    Blend: AUG-CC-PVTZ-RI
    Molecular point group: c1

    Geometry (in Angstrom), charge = 0, multiplicity = 1:

       Center              X                  Y                   Z               Mass
    ------------   -----------------  -----------------  -----------------  -----------------
         O            3.110044237972    -1.425182120053    -0.214051473294    15.994914619570
         N            0.883868537972    -1.181013120053    -0.582435473294    14.003074004430
         N            1.516825237972     1.489187879947     0.335429526706    14.003074004430
         C           -0.733818762028     0.530839879947     0.033995526706    12.000000000000
         C           -0.428816762028    -0.821949120053    -0.236061473294    12.000000000000
         C            0.296794237972     1.588763879947    -0.083597473294    12.000000000000
         C            1.882408237972     0.262209879947     1.040072526706    12.000000000000
         C           -2.065996762028     0.865895879947     0.337455526706    12.000000000000
         C           -1.450310762028    -1.785184120053    -0.230829473294    12.000000000000
         C            2.049474237972    -0.868172120053     0.044879526706    12.000000000000
         C           -0.096160762028     2.871619879947    -0.768748473294    12.000000000000
         C           -3.069661762028    -0.096072120053     0.362598526706    12.000000000000
         C           -2.760786762028    -1.426974120053     0.061911526706    12.000000000000
         H            0.959758237972    -2.065765120053    -1.157364473294     1.007825032230
         H            1.127385237972    -0.022340120053     1.789221526706     1.007825032230
         H            2.844442237972     0.408006879947     1.532521526706     1.007825032230
         H           -2.313113762028     1.901132879947     0.557662526706     1.007825032230
         H           -1.198615762028    -2.822478120053    -0.444413473294     1.007825032230
         H           -0.832260762028     3.427997879947    -0.178796473294     1.007825032230
         H           -0.541455762028     2.672047879947    -1.748254473294     1.007825032230
         H            0.795508237972     3.489651879947    -0.885234473294     1.007825032230
         H           -4.089492762028     0.187805879947     0.608521526706     1.007825032230
         H           -3.538528762028    -2.186564120053     0.067492526706     1.007825032230

  Basis Set: AUG-CC-PVTZ
    Blend: AUG-CC-PVTZ
  Basis Set: (AUG-CC-PVTZ AUX)
    Blend: AUG-CC-PVTZ-JKFIT
	 Reference Energy          =    -568.4618917791610784 [Eh]
	 Singles Energy            =      -0.0000000000000000 [Eh]
	 Same-Spin Energy          =      -0.6149880644687999 [Eh]
	 Opposite-Spin Energy      =      -1.8879670481769373 [Eh]
	 Correlation Energy        =      -2.5029551126457372 [Eh]
	 Total Energy              =    -570.9648468918068147 [Eh]

	 ================> DF-SCS-MP2 Energies <==================
	-----------------------------------------------------------
	 SCS Same-Spin Scale       =       0.3333333333333333 [-]
	 SCS Opposite-Spin Scale   =       1.2000000000000000 [-]
	 SCS Same-Spin Energy      =      -0.2049960214896000 [Eh]
	 SCS Opposite-Spin Energy  =      -2.2655604578123247 [Eh]
	 SCS Correlation Energy    =      -2.4705564793019246 [Eh]
	 SCS Total Energy          =    -570.9324482584629550 [Eh]
	-----------------------------------------------------------

  Dipole Moment: [D]
     X:    -5.2733      Y:    -0.2790      Z:     0.2161     Total:     5.2851

*** Psi4 exiting successfully. Buy a developer a beer!
