                               Psi4 1.3.2 release

  ==> Input File <==

--------------------------------------------------------------------------
#psi4
#
memory 32 gb

molecule  {
0 1
  O        3.1477550    -1.4485350    -0.2143050
  N        0.9062980    -1.2504610    -0.5893500
  N        1.5545360     1.4658350     0.3351760
  C       -0.6961080     0.5074870     0.0337420
  C       -0.3911060    -0.8453020    -0.2363150
  C        0.3432741     1.5793234    -0.0633356
  C        1.9201190     0.2388570     1.0398190
  C       -2.0282860     0.8425430     0.3372020
  C       -1.4126000    -1.8085370    -0.2310830
  C        2.0871850    -0.8915250     0.0446260
  C       -0.0584500     2.8482670    -0.7690020
  C       -3.0319510    -0.1194250     0.3623450
  C       -2.7230760    -1.4503270     0.0616580
  H        0.9974690    -2.0891180    -1.1576180
  H        1.1650960    -0.0456930     1.7889680
  H        2.8821530     0.3846540     1.5322680
  H       -2.2754030     1.8777800     0.5574090
  H       -1.1609050    -2.8458310    -0.4446670
  H       -0.7945500     3.4046450    -0.1790500
  H       -0.5037450     2.6486950    -1.7485080
  H        0.8332190     3.4662990    -0.8854880
  H       -4.0517820     0.1644530     0.6082680
  H       -3.5008180    -2.2099170     0.0672390
units angstrom
no_reorient  #important for SAPT in psi4, default
symmetry c1  #important for SAPT in psi4, default
}

set PROPERTIES_ORIGIN ["COM"]
properties('MP2/aug-cc-pvtz', properties = ['dipole'])
--------------------------------------------------------------------------

    Molecular point group: c1
  Charge       = 0
  Multiplicity = 1
  Basis Set: AUG-CC-PVTZ
    Blend: AUG-CC-PVTZ
  Basis Set: (AUG-CC-PVTZ AUX)
    Blend: AUG-CC-PVTZ-JKFIT

    Orbital Energies [Eh]
    ---------------------

    Doubly Occupied:

       1A    -20.532511     2A    -15.606904     3A    -15.566231
       4A    -11.362873     5A    -11.313806     6A    -11.301683
       7A    -11.267931     8A    -11.266628     9A    -11.265252
      10A    -11.264762    11A    -11.257900    12A    -11.253240
      13A    -11.234050    14A     -1.387708    15A     -1.276593
      16A     -1.236625    17A     -1.163865    18A     -1.064011
      19A     -1.035031    20A     -1.011362    21A     -0.953613
      22A     -0.883721    23A     -0.857504    24A     -0.795158
      25A     -0.767189    26A     -0.728224    27A     -0.691932
      28A     -0.678299    29A     -0.656741    30A     -0.648275
      31A     -0.625868    32A     -0.619309    33A     -0.605026
      34A     -0.586372    35A     -0.566929    36A     -0.558400
      37A     -0.544922    38A     -0.538367    39A     -0.527902
      40A     -0.515037    41A     -0.458803    42A     -0.444484
      43A     -0.417368    44A     -0.405975    45A     -0.355528
      46A     -0.331921

  @DF-RHF Final Energy:  -568.46647556315747

   => Energetics <=

    Nuclear Repulsion Energy =            760.6336399764933276
    One-Electron Energy =               -2281.3365671705955720
    Two-Electron Energy =                 952.2364516309448845
    Total Energy =                       -568.4664755631574735
  Basis Set: (AUG-CC-PVTZ AUX)
    Blend: AUG-CC-PVTZ-RI
    Molecular point group: c1

    Geometry (in Angstrom), charge = 0, multiplicity = 1:

       Center              X                  Y                   Z               Mass
    ------------   -----------------  -----------------  -----------------  -----------------
         O            3.110668987535    -1.422433241464    -0.214929867869    15.994914619570
         N            0.869211987535    -1.224359241464    -0.589974867869    14.003074004430
         N            1.517449987535     1.491936758536     0.334551132131    14.003074004430
         C           -0.733194012465     0.533588758536     0.033117132131    12.000000000000
         C           -0.428192012465    -0.819200241464    -0.236939867869    12.000000000000
         C            0.306188087535     1.605425158536    -0.063960467869    12.000000000000
         C            1.883032987535     0.264958758536     1.039194132131    12.000000000000
         C           -2.065372012465     0.868644758536     0.336577132131    12.000000000000
         C           -1.449686012465    -1.782435241464    -0.231707867869    12.000000000000
         C            2.050098987535    -0.865423241464     0.044001132131    12.000000000000
         C           -0.095536012465     2.874368758536    -0.769626867869    12.000000000000
         C           -3.069037012465    -0.093323241464     0.361720132131    12.000000000000
         C           -2.760162012465    -1.424225241464     0.061033132131    12.000000000000
         H            0.960382987535    -2.063016241464    -1.158242867869     1.007825032230
         H            1.128009987535    -0.019591241464     1.788343132131     1.007825032230
         H            2.845066987535     0.410755758536     1.531643132131     1.007825032230
         H           -2.312489012465     1.903881758536     0.556784132131     1.007825032230
         H           -1.197991012465    -2.819729241464    -0.445291867869     1.007825032230
         H           -0.831636012465     3.430746758536    -0.179674867869     1.007825032230
         H           -0.540831012465     2.674796758536    -1.749132867869     1.007825032230
         H            0.796132987535     3.492400758536    -0.886112867869     1.007825032230
         H           -4.088868012465     0.190554758536     0.607643132131     1.007825032230
         H           -3.537904012465    -2.183815241464     0.066614132131     1.007825032230

  Basis Set: AUG-CC-PVTZ
    Blend: AUG-CC-PVTZ
  Basis Set: (AUG-CC-PVTZ AUX)
    Blend: AUG-CC-PVTZ-JKFIT
	 Reference Energy          =    -568.4664755631574735 [Eh]
	 Singles Energy            =      -0.0000000000000000 [Eh]
	 Same-Spin Energy          =      -0.6140165582952892 [Eh]
	 Opposite-Spin Energy      =      -1.8864179080433137 [Eh]
	 Correlation Energy        =      -2.5004344663386027 [Eh]
	 Total Energy              =    -570.9669100294960344 [Eh]

	 ================> DF-SCS-MP2 Energies <==================
	-----------------------------------------------------------
	 SCS Same-Spin Scale       =       0.3333333333333333 [-]
	 SCS Opposite-Spin Scale   =       1.2000000000000000 [-]
	 SCS Same-Spin Energy      =      -0.2046721860984297 [Eh]
	 SCS Opposite-Spin Energy  =      -2.2637014896519765 [Eh]
	 SCS Correlation Energy    =      -2.4683736757504064 [Eh]
	 SCS Total Energy          =    -570.9348492389078729 [Eh]
	-----------------------------------------------------------

  Dipole Moment: [D]
     X:    -5.0764      Y:    -0.2183      Z:     0.2334     Total:     5.0865

*** Psi4 exiting successfully. Buy a developer a beer!
