                               Psi4 1.3.2 release

  ==> Input File <==

--------------------------------------------------------------------------
#psi4
#
memory 32 gb

molecule  {
0 1
  O        3.1477550    -1.4485350    -0.2143050
  N        0.9062980    -1.2504610    -0.5893500
  N        1.5545360     1.4658350     0.3351760
  C       -0.6961080     0.5074870     0.0337420
  C       -0.4960965    -0.7453028    -0.2602966
  C        0.3345050     1.5654110    -0.0838510
  C        1.9201190     0.2388570     1.0398190
  C       -2.0282860     0.8425430     0.3372020
  C       -1.4126000    -1.8085370    -0.2310830
  C        2.0871850    -0.8915250     0.0446260
  C       -0.0584500     2.8482670    -0.7690020
  C       -3.0319510    -0.1194250     0.3623450
  C       -2.7230760    -1.4503270     0.0616580
  H        0.9974690    -2.0891180    -1.1576180
  H        1.1650960    -0.0456930     1.7889680
  H        2.8821530     0.3846540     1.5322680
  H       -2.2754030     1.8777800     0.5574090
  H       -1.1609050    -2.8458310    -0.4446670
  H       -0.7945500     3.4046450    -0.1790500
  H       -0.5037450     2.6486950    -1.7485080
  H        0.8332190     3.4662990    -0.8854880
  H       -4.0517820     0.1644530     0.6082680
  H       -3.5008180    -2.2099170     0.0672390
units angstrom
no_reorient  #important for SAPT in psi4, default
symmetry c1  #important for SAPT in psi4, default
}

set PROPERTIES_ORIGIN ["COM"]
properties('MP2/aug-cc-pvtz', properties = ['dipole'])
--------------------------------------------------------------------------

    Molecular point group: c1
  Charge       = 0
  Multiplicity = 1
  Basis Set: AUG-CC-PVTZ
    Blend: AUG-CC-PVTZ
  Basis Set: (AUG-CC-PVTZ AUX)
    Blend: AUG-CC-PVTZ-JKFIT

    Orbital Energies [Eh]
    ---------------------

    Doubly Occupied:

       1A    -20.522873     2A    -15.595548     3A    -15.569865
       4A    -11.354003     5A    -11.310381     6A    -11.305473
       7A    -11.269300     8A    -11.267301     9A    -11.264692
      10A    -11.263661    11A    -11.259591    12A    -11.258012
      13A    -11.236634    14A     -1.377001    15A     -1.264217
      16A     -1.219370    17A     -1.173330    18A     -1.075264
      19A     -1.035256    20A     -1.021132    21A     -0.949568
      22A     -0.883809    23A     -0.858507    24A     -0.787616
      25A     -0.774227    26A     -0.715349    27A     -0.685490
      28A     -0.673224    29A     -0.663539    30A     -0.652818
      31A     -0.628050    32A     -0.617090    33A     -0.593556
      34A     -0.586745    35A     -0.561138    36A     -0.559976
      37A     -0.547210    38A     -0.534342    39A     -0.532878
      40A     -0.524435    41A     -0.451640    42A     -0.429886
      43A     -0.419009    44A     -0.402568    45A     -0.362669
      46A     -0.344567

  @DF-RHF Final Energy:  -568.44424458247136

   => Energetics <=

    Nuclear Repulsion Energy =            761.2013273760851462
    One-Electron Energy =               -2282.5255260532303510
    Two-Electron Energy =                 952.8799540946738489
    Total Energy =                       -568.4442445824713559
  Basis Set: (AUG-CC-PVTZ AUX)
    Blend: AUG-CC-PVTZ-RI
    Molecular point group: c1

    Geometry (in Angstrom), charge = 0, multiplicity = 1:

       Center              X                  Y                   Z               Mass
    ------------   -----------------  -----------------  -----------------  -----------------
         O            3.118510902677    -1.428367557165    -0.211862507417    15.994914619570
         N            0.877053902677    -1.230293557165    -0.586907507417    14.003074004430
         N            1.525291902677     1.486002442835     0.337618492583    14.003074004430
         C           -0.725352097323     0.527654442835     0.036184492583    12.000000000000
         C           -0.525340597323    -0.725135357165    -0.257854107417    12.000000000000
         C            0.305260902677     1.585578442835    -0.081408507417    12.000000000000
         C            1.890874902677     0.259024442835     1.042261492583    12.000000000000
         C           -2.057530097323     0.862710442835     0.339644492583    12.000000000000
         C           -1.441844097323    -1.788369557165    -0.228640507417    12.000000000000
         C            2.057940902677    -0.871357557165     0.047068492583    12.000000000000
         C           -0.087694097323     2.868434442835    -0.766559507417    12.000000000000
         C           -3.061195097323    -0.099257557165     0.364787492583    12.000000000000
         C           -2.752320097323    -1.430159557165     0.064100492583    12.000000000000
         H            0.968224902677    -2.068950557165    -1.155175507417     1.007825032230
         H            1.135851902677    -0.025525557165     1.791410492583     1.007825032230
         H            2.852908902677     0.404821442835     1.534710492583     1.007825032230
         H           -2.304647097323     1.897947442835     0.559851492583     1.007825032230
         H           -1.190149097323    -2.825663557165    -0.442224507417     1.007825032230
         H           -0.823794097323     3.424812442835    -0.176607507417     1.007825032230
         H           -0.532989097323     2.668862442835    -1.746065507417     1.007825032230
         H            0.803974902677     3.486466442835    -0.883045507417     1.007825032230
         H           -4.081026097323     0.184620442835     0.610710492583     1.007825032230
         H           -3.530062097323    -2.189749557165     0.069681492583     1.007825032230

  Basis Set: AUG-CC-PVTZ
    Blend: AUG-CC-PVTZ
  Basis Set: (AUG-CC-PVTZ AUX)
    Blend: AUG-CC-PVTZ-JKFIT
	 Reference Energy          =    -568.4442445824713559 [Eh]
	 Singles Energy            =      -0.0000000000000000 [Eh]
	 Same-Spin Energy          =      -0.6135439373269022 [Eh]
	 Opposite-Spin Energy      =      -1.8875286444275086 [Eh]
	 Correlation Energy        =      -2.5010725817544106 [Eh]
	 Total Energy              =    -570.9453171642257985 [Eh]

	 ================> DF-SCS-MP2 Energies <==================
	-----------------------------------------------------------
	 SCS Same-Spin Scale       =       0.3333333333333333 [-]
	 SCS Opposite-Spin Scale   =       1.2000000000000000 [-]
	 SCS Same-Spin Energy      =      -0.2045146457756341 [Eh]
	 SCS Opposite-Spin Energy  =      -2.2650343733130103 [Eh]
	 SCS Correlation Energy    =      -2.4695490190886442 [Eh]
	 SCS Total Energy          =    -570.9137936015599735 [Eh]
	-----------------------------------------------------------

  Dipole Moment: [D]
     X:    -5.6828      Y:    -0.0275      Z:     0.3090     Total:     5.6912

*** Psi4 exiting successfully. Buy a developer a beer!
