                               Psi4 1.4a3.dev225

  ==> Input File <==

--------------------------------------------------------------------------
#psi4
#
memory 32 gb

molecule  {
0 1
  O        3.1477550    -1.4485350    -0.2143050
  N        0.9062980    -1.2504610    -0.5893500
  N        1.5545360     1.4658350     0.3351760
  C       -0.6961080     0.5074870     0.0337420
  C       -0.3911060    -0.8453020    -0.2363150
  C        0.3345050     1.5654110    -0.0838510
  C        1.9201190     0.2388570     1.0398190
  C       -2.0282860     0.8425430     0.3372020
  C       -1.4126000    -1.8085370    -0.2310830
  C        2.0871850    -0.8915250     0.0446260
  C       -0.0584500     2.8482670    -0.7690020
  C       -3.0319510    -0.1194250     0.3623450
  C       -2.7230760    -1.4503270     0.0616580
  H        0.9929873    -2.0478920    -1.1296836
  H        1.1650960    -0.0456930     1.7889680
  H        2.8821530     0.3846540     1.5322680
  H       -2.2754030     1.8777800     0.5574090
  H       -1.1609050    -2.8458310    -0.4446670
  H       -0.7945500     3.4046450    -0.1790500
  H       -0.5037450     2.6486950    -1.7485080
  H        0.8332190     3.4662990    -0.8854880
  H       -4.0517820     0.1644530     0.6082680
  H       -3.5008180    -2.2099170     0.0672390
units angstrom
no_reorient  #important for SAPT in psi4, default
symmetry c1  #important for SAPT in psi4, default
}

set PROPERTIES_ORIGIN ["COM"]
properties('MP2/aug-cc-pvtz', properties = ['dipole'])
--------------------------------------------------------------------------

    Molecular point group: c1
  Charge       = 0
  Multiplicity = 1
  Basis Set: AUG-CC-PVTZ
    Blend: AUG-CC-PVTZ
  Basis Set: (AUG-CC-PVTZ AUX)
    Blend: AUG-CC-PVTZ-JKFIT

    Orbital Energies [Eh]
    ---------------------

    Doubly Occupied:

       1A    -20.532768     2A    -15.602573     3A    -15.567235
       4A    -11.362851     5A    -11.314524     6A    -11.302561
       7A    -11.267024     8A    -11.266988     9A    -11.265808
      10A    -11.265641    11A    -11.258539    12A    -11.253995
      13A    -11.234344    14A     -1.388671    15A     -1.279183
      16A     -1.234909    17A     -1.165528    18A     -1.065727
      19A     -1.035607    20A     -1.012828    21A     -0.952740
      22A     -0.886215    23A     -0.859464    24A     -0.800680
      25A     -0.769891    26A     -0.732719    27A     -0.691874
      28A     -0.678168    29A     -0.658005    30A     -0.649847
      31A     -0.626417    32A     -0.619119    33A     -0.606535
      34A     -0.586715    35A     -0.567795    36A     -0.559005
      37A     -0.543819    38A     -0.539161    39A     -0.528074
      40A     -0.516009    41A     -0.457933    42A     -0.445338
      43A     -0.417738    44A     -0.405603    45A     -0.355141
      46A     -0.332748

  @DF-RHF Final Energy:  -568.46534731769611

   => Energetics <=

    Nuclear Repulsion Energy =            761.0858975308489107
    One-Electron Energy =               -2282.1743798243619494
    Two-Electron Energy =                 952.6231349758170381
    Total Energy =                       -568.4653473176961143
  Basis Set: (AUG-CC-PVTZ AUX)
    Blend: AUG-CC-PVTZ-RI
    Molecular point group: c1

    Geometry (in Angstrom), charge = 0, multiplicity = 1:

       Center              X                  Y                   Z               Mass
    ------------   -----------------  -----------------  -----------------  -----------------
         O            3.111299424131    -1.421712878986    -0.213677382385    15.994914619570
         N            0.869842424131    -1.223638878986    -0.588722382385    14.003074004430
         N            1.518080424131     1.492657121014     0.335803617615    14.003074004430
         C           -0.732563575869     0.534309121014     0.034369617615    12.000000000000
         C           -0.427561575869    -0.818479878986    -0.235687382385    12.000000000000
         C            0.298049424131     1.592233121014    -0.083223382385    12.000000000000
         C            1.883663424131     0.265679121014     1.040446617615    12.000000000000
         C           -2.064741575869     0.869365121014     0.337829617615    12.000000000000
         C           -1.449055575869    -1.781714878986    -0.230455382385    12.000000000000
         C            2.050729424131    -0.864702878986     0.045253617615    12.000000000000
         C           -0.094905575869     2.875089121014    -0.768374382385    12.000000000000
         C           -3.068406575869    -0.092602878986     0.362972617615    12.000000000000
         C           -2.759531575869    -1.423504878986     0.062285617615    12.000000000000
         H            0.956531724131    -2.021069878986    -1.129055982385     1.007825032230
         H            1.128640424131    -0.018870878986     1.789595617615     1.007825032230
         H            2.845697424131     0.411476121014     1.532895617615     1.007825032230
         H           -2.311858575869     1.904602121014     0.558036617615     1.007825032230
         H           -1.197360575869    -2.819008878986    -0.444039382385     1.007825032230
         H           -0.831005575869     3.431467121014    -0.178422382385     1.007825032230
         H           -0.540200575869     2.675517121014    -1.747880382385     1.007825032230
         H            0.796763424131     3.493121121014    -0.884860382385     1.007825032230
         H           -4.088237575869     0.191275121014     0.608895617615     1.007825032230
         H           -3.537273575869    -2.183094878986     0.067866617615     1.007825032230

  Basis Set: AUG-CC-PVTZ
    Blend: AUG-CC-PVTZ
  Basis Set: (AUG-CC-PVTZ AUX)
    Blend: AUG-CC-PVTZ-JKFIT
	 Reference Energy          =    -568.4653473176961143 [Eh]
	 Singles Energy            =      -0.0000000000000000 [Eh]
	 Same-Spin Energy          =      -0.6140257818338757 [Eh]
	 Opposite-Spin Energy      =      -1.8862713556795752 [Eh]
	 Correlation Energy        =      -2.5002971375134511 [Eh]
	 Total Energy              =    -570.9656444552095991 [Eh]

	 ================> DF-SCS-MP2 Energies <==================
	-----------------------------------------------------------
	 SCS Same-Spin Scale       =       0.3333333333333333 [-]
	 SCS Opposite-Spin Scale   =       1.2000000000000000 [-]
	 SCS Same-Spin Energy      =      -0.2046752606112919 [Eh]
	 SCS Opposite-Spin Energy  =      -2.2635256268154902 [Eh]
	 SCS Correlation Energy    =      -2.4682008874267822 [Eh]
	 SCS Total Energy          =    -570.9335482051228610 [Eh]
	-----------------------------------------------------------

  Dipole Moment: [D]
     X:    -5.1225      Y:    -0.2049      Z:     0.2550     Total:     5.1329

*** Psi4 exiting successfully. Buy a developer a beer!
