                               Psi4 1.3.2 release

  ==> Input File <==

--------------------------------------------------------------------------
#psi4
#
memory 32 gb

molecule  {
0 1
  O        3.1477550    -1.4485350    -0.2143050
  N        0.9062980    -1.2504610    -0.5893500
  N        1.5545360     1.4658350     0.3351760
  C       -0.6961080     0.5074870     0.0337420
  C       -0.4245344    -0.8988902    -0.3112713
  C        0.3345050     1.5654110    -0.0838510
  C        1.9201190     0.2388570     1.0398190
  C       -2.0282860     0.8425430     0.3372020
  C       -1.4126000    -1.8085370    -0.2310830
  C        2.0871850    -0.8915250     0.0446260
  C       -0.0584500     2.8482670    -0.7690020
  C       -3.0319510    -0.1194250     0.3623450
  C       -2.7230760    -1.4503270     0.0616580
  H        0.9974690    -2.0891180    -1.1576180
  H        1.1650960    -0.0456930     1.7889680
  H        2.8821530     0.3846540     1.5322680
  H       -2.2754030     1.8777800     0.5574090
  H       -1.1609050    -2.8458310    -0.4446670
  H       -0.7945500     3.4046450    -0.1790500
  H       -0.5037450     2.6486950    -1.7485080
  H        0.8332190     3.4662990    -0.8854880
  H       -4.0517820     0.1644530     0.6082680
  H       -3.5008180    -2.2099170     0.0672390
units angstrom
no_reorient  #important for SAPT in psi4, default
symmetry c1  #important for SAPT in psi4, default
}

set PROPERTIES_ORIGIN ["COM"]
properties('MP2/aug-cc-pvtz', properties = ['dipole'])
--------------------------------------------------------------------------

    Molecular point group: c1
  Charge       = 0
  Multiplicity = 1
  Basis Set: AUG-CC-PVTZ
    Blend: AUG-CC-PVTZ
  Basis Set: (AUG-CC-PVTZ AUX)
    Blend: AUG-CC-PVTZ-JKFIT

    Orbital Energies [Eh]
    ---------------------

    Doubly Occupied:

       1A    -20.533094     2A    -15.605837     3A    -15.567175
       4A    -11.364815     5A    -11.313654     6A    -11.302866
       7A    -11.271017     8A    -11.267081     9A    -11.266332
      10A    -11.266280    11A    -11.253929    12A    -11.251889
      13A    -11.234264    14A     -1.387805    15A     -1.274365
      16A     -1.233474    17A     -1.164874    18A     -1.064499
      19A     -1.042869    20A     -1.006141    21A     -0.952176
      22A     -0.889278    23A     -0.853814    24A     -0.798197
      25A     -0.766001    26A     -0.729517    27A     -0.690835
      28A     -0.678055    29A     -0.659420    30A     -0.640777
      31A     -0.628050    32A     -0.618910    33A     -0.604957
      34A     -0.586299    35A     -0.568170    36A     -0.559051
      37A     -0.544964    38A     -0.537665    39A     -0.527650
      40A     -0.511295    41A     -0.458242    42A     -0.445008
      43A     -0.417206    44A     -0.406365    45A     -0.356211
      46A     -0.330827

  @DF-RHF Final Energy:  -568.45726938417147

   => Energetics <=

    Nuclear Repulsion Energy =            759.9918311960921073
    One-Electron Energy =               -2280.0357928643757077
    Two-Electron Energy =                 951.5866922841121323
    Total Energy =                       -568.4572693841714681
  Basis Set: (AUG-CC-PVTZ AUX)
    Blend: AUG-CC-PVTZ-RI
    Molecular point group: c1

    Geometry (in Angstrom), charge = 0, multiplicity = 1:

       Center              X                  Y                   Z               Mass
    ------------   -----------------  -----------------  -----------------  -----------------
         O            3.113577834034    -1.417780148651    -0.208348612574    15.994914619570
         N            0.872120834034    -1.219706148651    -0.583393612574    14.003074004430
         N            1.520358834034     1.496589851349     0.341132387426    14.003074004430
         C           -0.730285165966     0.538241851349     0.039698387426    12.000000000000
         C           -0.458711565966    -0.868135348651    -0.305314912574    12.000000000000
         C            0.300327834034     1.596165851349    -0.077894612574    12.000000000000
         C            1.885941834034     0.269611851349     1.045775387426    12.000000000000
         C           -2.062463165966     0.873297851349     0.343158387426    12.000000000000
         C           -1.446777165966    -1.777782148651    -0.225126612574    12.000000000000
         C            2.053007834034    -0.860770148651     0.050582387426    12.000000000000
         C           -0.092627165966     2.879021851349    -0.763045612574    12.000000000000
         C           -3.066128165966    -0.088670148651     0.368301387426    12.000000000000
         C           -2.757253165966    -1.419572148651     0.067614387426    12.000000000000
         H            0.963291834034    -2.058363148651    -1.151661612574     1.007825032230
         H            1.130918834034    -0.014938148651     1.794924387426     1.007825032230
         H            2.847975834034     0.415408851349     1.538224387426     1.007825032230
         H           -2.309580165966     1.908534851349     0.563365387426     1.007825032230
         H           -1.195082165966    -2.815076148651    -0.438710612574     1.007825032230
         H           -0.828727165966     3.435399851349    -0.173093612574     1.007825032230
         H           -0.537922165966     2.679449851349    -1.742551612574     1.007825032230
         H            0.799041834034     3.497053851349    -0.879531612574     1.007825032230
         H           -4.085959165966     0.195207851349     0.614224387426     1.007825032230
         H           -3.534995165966    -2.179162148651     0.073195387426     1.007825032230

  Basis Set: AUG-CC-PVTZ
    Blend: AUG-CC-PVTZ
  Basis Set: (AUG-CC-PVTZ AUX)
    Blend: AUG-CC-PVTZ-JKFIT
	 Reference Energy          =    -568.4572693841714681 [Eh]
	 Singles Energy            =      -0.0000000000000000 [Eh]
	 Same-Spin Energy          =      -0.6145718003461454 [Eh]
	 Opposite-Spin Energy      =      -1.8877463464218875 [Eh]
	 Correlation Energy        =      -2.5023181467680331 [Eh]
	 Total Energy              =    -570.9595875309395296 [Eh]

	 ================> DF-SCS-MP2 Energies <==================
	-----------------------------------------------------------
	 SCS Same-Spin Scale       =       0.3333333333333333 [-]
	 SCS Opposite-Spin Scale   =       1.2000000000000000 [-]
	 SCS Same-Spin Energy      =      -0.2048572667820485 [Eh]
	 SCS Opposite-Spin Energy  =      -2.2652956157062651 [Eh]
	 SCS Correlation Energy    =      -2.4701528824883137 [Eh]
	 SCS Total Energy          =    -570.9274222666597325 [Eh]
	-----------------------------------------------------------

  Dipole Moment: [D]
     X:    -5.1078      Y:    -0.2282      Z:     0.2400     Total:     5.1186

*** Psi4 exiting successfully. Buy a developer a beer!
