                               Psi4 1.3.2 release

  ==> Input File <==

--------------------------------------------------------------------------
#psi4
#
memory 32 gb

molecule  {
0 1
  O        3.1477550    -1.4485350    -0.2143050
  N        0.9062980    -1.2504610    -0.5893500
  N        1.5545360     1.4658350     0.3351760
  C       -0.6961080     0.5074870     0.0337420
  C       -0.2987891    -0.8169197    -0.2562228
  C        0.3345050     1.5654110    -0.0838510
  C        1.9201190     0.2388570     1.0398190
  C       -2.0282860     0.8425430     0.3372020
  C       -1.4126000    -1.8085370    -0.2310830
  C        2.0871850    -0.8915250     0.0446260
  C       -0.0584500     2.8482670    -0.7690020
  C       -3.0319510    -0.1194250     0.3623450
  C       -2.7230760    -1.4503270     0.0616580
  H        0.9974690    -2.0891180    -1.1576180
  H        1.1650960    -0.0456930     1.7889680
  H        2.8821530     0.3846540     1.5322680
  H       -2.2754030     1.8777800     0.5574090
  H       -1.1609050    -2.8458310    -0.4446670
  H       -0.7945500     3.4046450    -0.1790500
  H       -0.5037450     2.6486950    -1.7485080
  H        0.8332190     3.4662990    -0.8854880
  H       -4.0517820     0.1644530     0.6082680
  H       -3.5008180    -2.2099170     0.0672390
units angstrom
no_reorient  #important for SAPT in psi4, default
symmetry c1  #important for SAPT in psi4, default
}

set PROPERTIES_ORIGIN ["COM"]
properties('MP2/aug-cc-pvtz', properties = ['dipole'])
--------------------------------------------------------------------------

    Molecular point group: c1
  Charge       = 0
  Multiplicity = 1
  Basis Set: AUG-CC-PVTZ
    Blend: AUG-CC-PVTZ
  Basis Set: (AUG-CC-PVTZ AUX)
    Blend: AUG-CC-PVTZ-JKFIT

    Orbital Energies [Eh]
    ---------------------

    Doubly Occupied:

       1A    -20.538532     2A    -15.615460     3A    -15.565319
       4A    -11.367716     5A    -11.319428     6A    -11.299911
       7A    -11.268845     8A    -11.264670     9A    -11.263240
      10A    -11.262646    11A    -11.261983    12A    -11.250331
      13A    -11.232635    14A     -1.396057    15A     -1.297937
      16A     -1.237974    17A     -1.157243    18A     -1.063991
      19A     -1.025932    20A     -1.009830    21A     -0.953301
      22A     -0.887744    23A     -0.864038    24A     -0.798380
      25A     -0.768265    26A     -0.738786    27A     -0.696027
      28A     -0.681332    29A     -0.658094    30A     -0.646580
      31A     -0.622860    32A     -0.618601    33A     -0.607657
      34A     -0.586003    35A     -0.572438    36A     -0.557704
      37A     -0.541450    38A     -0.540322    39A     -0.524567
      40A     -0.507451    41A     -0.461746    42A     -0.452073
      43A     -0.414699    44A     -0.406010    45A     -0.353792
      46A     -0.320747

  @DF-RHF Final Energy:  -568.45251712736865

   => Energetics <=

    Nuclear Repulsion Energy =            761.2837525899353750
    One-Electron Energy =               -2282.5118369330252790
    Two-Electron Energy =                 952.7755672157212530
    Total Energy =                       -568.4525171273686510
  Basis Set: (AUG-CC-PVTZ AUX)
    Blend: AUG-CC-PVTZ-RI
    Molecular point group: c1

    Geometry (in Angstrom), charge = 0, multiplicity = 1:

       Center              X                  Y                   Z               Mass
    ------------   -----------------  -----------------  -----------------  -----------------
         O            3.104909695503    -1.423430710934    -0.212143331136    15.994914619570
         N            0.863452695503    -1.225356710934    -0.587188331136    14.003074004430
         N            1.511690695503     1.490939289066     0.337337668864    14.003074004430
         C           -0.738953304497     0.532591289066     0.035903668864    12.000000000000
         C           -0.341634404497    -0.791815410934    -0.254061131136    12.000000000000
         C            0.291659695503     1.590515289066    -0.081689331136    12.000000000000
         C            1.877273695503     0.263961289066     1.041980668864    12.000000000000
         C           -2.071131304497     0.867647289066     0.339363668864    12.000000000000
         C           -1.455445304497    -1.783432710934    -0.228921331136    12.000000000000
         C            2.044339695503    -0.866420710934     0.046787668864    12.000000000000
         C           -0.101295304497     2.873371289066    -0.766840331136    12.000000000000
         C           -3.074796304497    -0.094320710934     0.364506668864    12.000000000000
         C           -2.765921304497    -1.425222710934     0.063819668864    12.000000000000
         H            0.954623695503    -2.064013710934    -1.155456331136     1.007825032230
         H            1.122250695503    -0.020588710934     1.791129668864     1.007825032230
         H            2.839307695503     0.409758289066     1.534429668864     1.007825032230
         H           -2.318248304497     1.902884289066     0.559570668864     1.007825032230
         H           -1.203750304497    -2.820726710934    -0.442505331136     1.007825032230
         H           -0.837395304497     3.429749289066    -0.176888331136     1.007825032230
         H           -0.546590304497     2.673799289066    -1.746346331136     1.007825032230
         H            0.790373695503     3.491403289066    -0.883326331136     1.007825032230
         H           -4.094627304497     0.189557289066     0.610429668864     1.007825032230
         H           -3.543663304497    -2.184812710934     0.069400668864     1.007825032230

  Basis Set: AUG-CC-PVTZ
    Blend: AUG-CC-PVTZ
  Basis Set: (AUG-CC-PVTZ AUX)
    Blend: AUG-CC-PVTZ-JKFIT
	 Reference Energy          =    -568.4525171273686510 [Eh]
	 Singles Energy            =      -0.0000000000000000 [Eh]
	 Same-Spin Energy          =      -0.6154134831354823 [Eh]
	 Opposite-Spin Energy      =      -1.8884567924035385 [Eh]
	 Correlation Energy        =      -2.5038702755390210 [Eh]
	 Total Energy              =    -570.9563874029076942 [Eh]

	 ================> DF-SCS-MP2 Energies <==================
	-----------------------------------------------------------
	 SCS Same-Spin Scale       =       0.3333333333333333 [-]
	 SCS Opposite-Spin Scale   =       1.2000000000000000 [-]
	 SCS Same-Spin Energy      =      -0.2051378277118274 [Eh]
	 SCS Opposite-Spin Energy  =      -2.2661481508842463 [Eh]
	 SCS Correlation Energy    =      -2.4712859785960735 [Eh]
	 SCS Total Energy          =    -570.9238031059646801 [Eh]
	-----------------------------------------------------------

  Dipole Moment: [D]
     X:    -4.7002      Y:    -0.3624      Z:     0.1360     Total:     4.7161

*** Psi4 exiting successfully. Buy a developer a beer!
