                               Psi4 1.3.2 release

  ==> Input File <==

--------------------------------------------------------------------------
#psi4
#
memory 32 gb

molecule  {
0 1
  O        3.1477550    -1.4485350    -0.2143050
  N        0.8616669    -1.1817372    -0.5377287
  N        1.5545360     1.4658350     0.3351760
  C       -0.6961080     0.5074870     0.0337420
  C       -0.3911060    -0.8453020    -0.2363150
  C        0.3345050     1.5654110    -0.0838510
  C        1.9201190     0.2388570     1.0398190
  C       -2.0282860     0.8425430     0.3372020
  C       -1.4126000    -1.8085370    -0.2310830
  C        2.0871850    -0.8915250     0.0446260
  C       -0.0584500     2.8482670    -0.7690020
  C       -3.0319510    -0.1194250     0.3623450
  C       -2.7230760    -1.4503270     0.0616580
  H        0.9974690    -2.0891180    -1.1576180
  H        1.1650960    -0.0456930     1.7889680
  H        2.8821530     0.3846540     1.5322680
  H       -2.2754030     1.8777800     0.5574090
  H       -1.1609050    -2.8458310    -0.4446670
  H       -0.7945500     3.4046450    -0.1790500
  H       -0.5037450     2.6486950    -1.7485080
  H        0.8332190     3.4662990    -0.8854880
  H       -4.0517820     0.1644530     0.6082680
  H       -3.5008180    -2.2099170     0.0672390
units angstrom
no_reorient  #important for SAPT in psi4, default
symmetry c1  #important for SAPT in psi4, default
}

set PROPERTIES_ORIGIN ["COM"]
properties('MP2/aug-cc-pvtz', properties = ['dipole'])
--------------------------------------------------------------------------

    Molecular point group: c1
  Charge       = 0
  Multiplicity = 1
  Basis Set: AUG-CC-PVTZ
    Blend: AUG-CC-PVTZ
  Basis Set: (AUG-CC-PVTZ AUX)
    Blend: AUG-CC-PVTZ-JKFIT

    Orbital Energies [Eh]
    ---------------------

    Doubly Occupied:

       1A    -20.540431     2A    -15.615324     3A    -15.565971
       4A    -11.368767     5A    -11.310716     6A    -11.300985
       7A    -11.264641     8A    -11.264634     9A    -11.264595
      10A    -11.261203    11A    -11.256033    12A    -11.250569
      13A    -11.233295    14A     -1.392174    15A     -1.293009
      16A     -1.234269    17A     -1.162583    18A     -1.065067
      19A     -1.036660    20A     -1.007060    21A     -0.951303
      22A     -0.890295    23A     -0.864412    24A     -0.792544
      25A     -0.763208    26A     -0.729161    27A     -0.692246
      28A     -0.680420    29A     -0.658769    30A     -0.643970
      31A     -0.625882    32A     -0.619159    33A     -0.601492
      34A     -0.586107    35A     -0.568494    36A     -0.558066
      37A     -0.543111    38A     -0.537932    39A     -0.527871
      40A     -0.509831    41A     -0.462000    42A     -0.451152
      43A     -0.417008    44A     -0.405087    45A     -0.353740
      46A     -0.326140

  @DF-RHF Final Energy:  -568.44849613802739

   => Energetics <=

    Nuclear Repulsion Energy =            762.7228646398962155
    One-Electron Energy =               -2285.4479529446821289
    Two-Electron Energy =                 954.2765921667585189
    Total Energy =                       -568.4484961380273944
  Basis Set: (AUG-CC-PVTZ AUX)
    Blend: AUG-CC-PVTZ-RI
    Molecular point group: c1

    Geometry (in Angstrom), charge = 0, multiplicity = 1:

       Center              X                  Y                   Z               Mass
    ------------   -----------------  -----------------  -----------------  -----------------
         O            3.114863637571    -1.427002398153    -0.217668114453    15.994914619570
         N            0.828775537571    -1.160204598153    -0.541091814453    14.003074004430
         N            1.521644637571     1.487367601847     0.331812885547    14.003074004430
         C           -0.728999362429     0.529019601847     0.030378885547    12.000000000000
         C           -0.423997362429    -0.823769398153    -0.239678114453    12.000000000000
         C            0.301613637571     1.586943601847    -0.087214114453    12.000000000000
         C            1.887227637571     0.260389601847     1.036455885547    12.000000000000
         C           -2.061177362429     0.864075601847     0.333838885547    12.000000000000
         C           -1.445491362429    -1.787004398153    -0.234446114453    12.000000000000
         C            2.054293637571    -0.869992398153     0.041262885547    12.000000000000
         C           -0.091341362429     2.869799601847    -0.772365114453    12.000000000000
         C           -3.064842362429    -0.097892398153     0.358981885547    12.000000000000
         C           -2.755967362429    -1.428794398153     0.058294885547    12.000000000000
         H            0.964577637571    -2.067585398153    -1.160981114453     1.007825032230
         H            1.132204637571    -0.024160398153     1.785604885547     1.007825032230
         H            2.849261637571     0.406186601847     1.528904885547     1.007825032230
         H           -2.308294362429     1.899312601847     0.554045885547     1.007825032230
         H           -1.193796362429    -2.824298398153    -0.448030114453     1.007825032230
         H           -0.827441362429     3.426177601847    -0.182413114453     1.007825032230
         H           -0.536636362429     2.670227601847    -1.751871114453     1.007825032230
         H            0.800327637571     3.487831601847    -0.888851114453     1.007825032230
         H           -4.084673362429     0.185985601847     0.604904885547     1.007825032230
         H           -3.533709362429    -2.188384398153     0.063875885547     1.007825032230

  Basis Set: AUG-CC-PVTZ
    Blend: AUG-CC-PVTZ
  Basis Set: (AUG-CC-PVTZ AUX)
    Blend: AUG-CC-PVTZ-JKFIT
	 Reference Energy          =    -568.4484961380273944 [Eh]
	 Singles Energy            =      -0.0000000000000000 [Eh]
	 Same-Spin Energy          =      -0.6166812714179218 [Eh]
	 Opposite-Spin Energy      =      -1.8902512312918498 [Eh]
	 Correlation Energy        =      -2.5069325027097715 [Eh]
	 Total Energy              =    -570.9554286407371819 [Eh]

	 ================> DF-SCS-MP2 Energies <==================
	-----------------------------------------------------------
	 SCS Same-Spin Scale       =       0.3333333333333333 [-]
	 SCS Opposite-Spin Scale   =       1.2000000000000000 [-]
	 SCS Same-Spin Energy      =      -0.2055604238059739 [Eh]
	 SCS Opposite-Spin Energy  =      -2.2683014775502195 [Eh]
	 SCS Correlation Energy    =      -2.4738619013561935 [Eh]
	 SCS Total Energy          =    -570.9223580393835391 [Eh]
	-----------------------------------------------------------

  Dipole Moment: [D]
     X:    -4.8595      Y:    -0.3788      Z:     0.1386     Total:     4.8762

*** Psi4 exiting successfully. Buy a developer a beer!
