                               Psi4 1.3.2 release

  ==> Input File <==

--------------------------------------------------------------------------
#psi4
#
memory 32 gb

molecule  {
0 1
  O        3.1477550    -1.4485350    -0.2143050
  N        0.9062980    -1.2504610    -0.5893500
  N        1.5545360     1.4658350     0.3351760
  C       -0.6961080     0.5074870     0.0337420
  C       -0.3911060    -0.8453020    -0.2363150
  C        0.3345050     1.5654110    -0.0838510
  C        1.9201190     0.2388570     1.0398190
  C       -1.8388930     0.7949088     0.2940597
  C       -1.4126000    -1.8085370    -0.2310830
  C        2.0871850    -0.8915250     0.0446260
  C       -0.0584500     2.8482670    -0.7690020
  C       -3.0319510    -0.1194250     0.3623450
  C       -2.7230760    -1.4503270     0.0616580
  H        0.9974690    -2.0891180    -1.1576180
  H        1.1650960    -0.0456930     1.7889680
  H        2.8821530     0.3846540     1.5322680
  H       -2.2754030     1.8777800     0.5574090
  H       -1.1609050    -2.8458310    -0.4446670
  H       -0.7945500     3.4046450    -0.1790500
  H       -0.5037450     2.6486950    -1.7485080
  H        0.8332190     3.4662990    -0.8854880
  H       -4.0517820     0.1644530     0.6082680
  H       -3.5008180    -2.2099170     0.0672390
units angstrom
no_reorient  #important for SAPT in psi4, default
symmetry c1  #important for SAPT in psi4, default
}

set PROPERTIES_ORIGIN ["COM"]
properties('MP2/aug-cc-pvtz', properties = ['dipole'])
--------------------------------------------------------------------------

    Molecular point group: c1
  Charge       = 0
  Multiplicity = 1
  Basis Set: AUG-CC-PVTZ
    Blend: AUG-CC-PVTZ
  Basis Set: (AUG-CC-PVTZ AUX)
    Blend: AUG-CC-PVTZ-JKFIT

    Orbital Energies [Eh]
    ---------------------

    Doubly Occupied:

       1A    -20.533962     2A    -15.607325     3A    -15.569258
       4A    -11.363752     5A    -11.314742     6A    -11.304351
       7A    -11.269374     8A    -11.261958     9A    -11.261518
      10A    -11.260446    11A    -11.253372    12A    -11.245624
      13A    -11.234443    14A     -1.388830    15A     -1.280048
      16A     -1.235027    17A     -1.181596    18A     -1.081992
      19A     -1.031193    20A     -1.009606    21A     -0.951337
      22A     -0.877243    23A     -0.863304    24A     -0.798861
      25A     -0.773359    26A     -0.721179    27A     -0.694610
      28A     -0.680748    29A     -0.664863    30A     -0.646899
      31A     -0.627280    32A     -0.617883    33A     -0.594924
      34A     -0.587579    35A     -0.568541    36A     -0.559015
      37A     -0.552514    38A     -0.536655    39A     -0.532351
      40A     -0.490464    41A     -0.459475    42A     -0.443969
      43A     -0.419156    44A     -0.409025    45A     -0.376845
      46A     -0.318918

  @DF-RHF Final Energy:  -568.40517653505219

   => Energetics <=

    Nuclear Repulsion Energy =            764.4933349845508701
    One-Electron Energy =               -2288.8862034490748556
    Two-Electron Energy =                 955.9876919294716799
    Total Energy =                       -568.4051765350521919
  Basis Set: (AUG-CC-PVTZ AUX)
    Blend: AUG-CC-PVTZ-RI
    Molecular point group: c1

    Geometry (in Angstrom), charge = 0, multiplicity = 1:

       Center              X                  Y                   Z               Mass
    ------------   -----------------  -----------------  -----------------  -----------------
         O            3.098217842346    -1.418190582256    -0.210541681891    15.994914619570
         N            0.856760842346    -1.220116582256    -0.585586681891    14.003074004430
         N            1.504998842346     1.496179417744     0.338939318109    14.003074004430
         C           -0.745645157654     0.537831417744     0.037505318109    12.000000000000
         C           -0.440643157654    -0.814957582256    -0.232551681891    12.000000000000
         C            0.284967842346     1.595755417744    -0.080087681891    12.000000000000
         C            1.870581842346     0.269201417744     1.043582318109    12.000000000000
         C           -1.888430157654     0.825253217744     0.297823018109    12.000000000000
         C           -1.462137157654    -1.778192582256    -0.227319681891    12.000000000000
         C            2.037647842346    -0.861180582256     0.048389318109    12.000000000000
         C           -0.107987157654     2.878611417744    -0.765238681891    12.000000000000
         C           -3.081488157654    -0.089080582256     0.366108318109    12.000000000000
         C           -2.772613157654    -1.419982582256     0.065421318109    12.000000000000
         H            0.947931842346    -2.058773582256    -1.153854681891     1.007825032230
         H            1.115558842346    -0.015348582256     1.792731318109     1.007825032230
         H            2.832615842346     0.414998417744     1.536031318109     1.007825032230
         H           -2.324940157654     1.908124417744     0.561172318109     1.007825032230
         H           -1.210442157654    -2.815486582256    -0.440903681891     1.007825032230
         H           -0.844087157654     3.434989417744    -0.175286681891     1.007825032230
         H           -0.553282157654     2.679039417744    -1.744744681891     1.007825032230
         H            0.783681842346     3.496643417744    -0.881724681891     1.007825032230
         H           -4.101319157654     0.194797417744     0.612031318109     1.007825032230
         H           -3.550355157654    -2.179572582256     0.071002318109     1.007825032230

  Basis Set: AUG-CC-PVTZ
    Blend: AUG-CC-PVTZ
  Basis Set: (AUG-CC-PVTZ AUX)
    Blend: AUG-CC-PVTZ-JKFIT
	 Reference Energy          =    -568.4051765350521919 [Eh]
	 Singles Energy            =      -0.0000000000000000 [Eh]
	 Same-Spin Energy          =      -0.6140354336142861 [Eh]
	 Opposite-Spin Energy      =      -1.8890717192513171 [Eh]
	 Correlation Energy        =      -2.5031071528656033 [Eh]
	 Total Energy              =    -570.9082836879177876 [Eh]

	 ================> DF-SCS-MP2 Energies <==================
	-----------------------------------------------------------
	 SCS Same-Spin Scale       =       0.3333333333333333 [-]
	 SCS Opposite-Spin Scale   =       1.2000000000000000 [-]
	 SCS Same-Spin Energy      =      -0.2046784778714287 [Eh]
	 SCS Opposite-Spin Energy  =      -2.2668860631015804 [Eh]
	 SCS Correlation Energy    =      -2.4715645409730089 [Eh]
	 SCS Total Energy          =    -570.8767410760251551 [Eh]
	-----------------------------------------------------------

  Dipole Moment: [D]
     X:    -5.0036      Y:    -0.2108      Z:     0.2396     Total:     5.0138

*** Psi4 exiting successfully. Buy a developer a beer!
