                               Psi4 1.3.2 release

  ==> Input File <==

--------------------------------------------------------------------------
#psi4
#
memory 32 gb

molecule  {
0 1
  O        3.1477550    -1.4485350    -0.2143050
  N        0.9062980    -1.2504610    -0.5893500
  N        1.5545360     1.4658350     0.3351760
  C       -0.6961080     0.5074870     0.0337420
  C       -0.4002003    -0.8644625    -0.2485980
  C        0.3345050     1.5654110    -0.0838510
  C        1.9201190     0.2388570     1.0398190
  C       -2.0282860     0.8425430     0.3372020
  C       -1.4126000    -1.8085370    -0.2310830
  C        2.0871850    -0.8915250     0.0446260
  C       -0.0584500     2.8482670    -0.7690020
  C       -3.0319510    -0.1194250     0.3623450
  C       -2.7230760    -1.4503270     0.0616580
  H        0.9974690    -2.0891180    -1.1576180
  H        1.1650960    -0.0456930     1.7889680
  H        2.8821530     0.3846540     1.5322680
  H       -2.2754030     1.8777800     0.5574090
  H       -1.1609050    -2.8458310    -0.4446670
  H       -0.7945500     3.4046450    -0.1790500
  H       -0.5037450     2.6486950    -1.7485080
  H        0.8332190     3.4662990    -0.8854880
  H       -4.0517820     0.1644530     0.6082680
  H       -3.5008180    -2.2099170     0.0672390
units angstrom
no_reorient  #important for SAPT in psi4, default
symmetry c1  #important for SAPT in psi4, default
}

set PROPERTIES_ORIGIN ["COM"]
properties('MP2/aug-cc-pvtz', properties = ['dipole'])
--------------------------------------------------------------------------

    Molecular point group: c1
  Charge       = 0
  Multiplicity = 1
  Basis Set: AUG-CC-PVTZ
    Blend: AUG-CC-PVTZ
  Basis Set: (AUG-CC-PVTZ AUX)
    Blend: AUG-CC-PVTZ-JKFIT

    Orbital Energies [Eh]
    ---------------------

    Doubly Occupied:

       1A    -20.532548     2A    -15.606731     3A    -15.567024
       4A    -11.363161     5A    -11.314149     6A    -11.302544
       7A    -11.267899     8A    -11.267036     9A    -11.266214
      10A    -11.265798    11A    -11.256181    12A    -11.253708
      13A    -11.234220    14A     -1.387624    15A     -1.275557
      16A     -1.233059    17A     -1.164612    18A     -1.065005
      19A     -1.037715    20A     -1.009606    21A     -0.951795
      22A     -0.886854    23A     -0.856691    24A     -0.796173
      25A     -0.767423    26A     -0.729330    27A     -0.691089
      28A     -0.677842    29A     -0.658182    30A     -0.646181
      31A     -0.626771    32A     -0.618464    33A     -0.605067
      34A     -0.586474    35A     -0.567191    36A     -0.558876
      37A     -0.544097    38A     -0.538449    39A     -0.527724
      40A     -0.514637    41A     -0.457828    42A     -0.444793
      43A     -0.417627    44A     -0.405705    45A     -0.355053
      46A     -0.331967

  @DF-RHF Final Energy:  -568.46479762474723

   => Energetics <=

    Nuclear Repulsion Energy =            760.5358598869970592
    One-Electron Energy =               -2281.1359636151923951
    Two-Electron Energy =                 952.1353061034481016
    Total Energy =                       -568.4647976247472343
  Basis Set: (AUG-CC-PVTZ AUX)
    Blend: AUG-CC-PVTZ-RI
    Molecular point group: c1

    Geometry (in Angstrom), charge = 0, multiplicity = 1:

       Center              X                  Y                   Z               Mass
    ------------   -----------------  -----------------  -----------------  -----------------
         O            3.111900384859    -1.420153391014    -0.212668939828    15.994914619570
         N            0.870443384859    -1.222079391014    -0.587713939828    14.003074004430
         N            1.518681384859     1.494216608986     0.336812060172    14.003074004430
         C           -0.731962615141     0.535868608986     0.035378060172    12.000000000000
         C           -0.436054915141    -0.836080891014    -0.246961939828    12.000000000000
         C            0.298650384859     1.593792608986    -0.082214939828    12.000000000000
         C            1.884264384859     0.267238608986     1.041455060172    12.000000000000
         C           -2.064140615141     0.870924608986     0.338838060172    12.000000000000
         C           -1.448454615141    -1.780155391014    -0.229446939828    12.000000000000
         C            2.051330384859    -0.863143391014     0.046262060172    12.000000000000
         C           -0.094304615141     2.876648608986    -0.767365939828    12.000000000000
         C           -3.067805615141    -0.091043391014     0.363981060172    12.000000000000
         C           -2.758930615141    -1.421945391014     0.063294060172    12.000000000000
         H            0.961614384859    -2.060736391014    -1.155981939828     1.007825032230
         H            1.129241384859    -0.017311391014     1.790604060172     1.007825032230
         H            2.846298384859     0.413035608986     1.533904060172     1.007825032230
         H           -2.311257615141     1.906161608986     0.559045060172     1.007825032230
         H           -1.196759615141    -2.817449391014    -0.443030939828     1.007825032230
         H           -0.830404615141     3.433026608986    -0.177413939828     1.007825032230
         H           -0.539599615141     2.677076608986    -1.746871939828     1.007825032230
         H            0.797364384859     3.494680608986    -0.883851939828     1.007825032230
         H           -4.087636615141     0.192834608986     0.609904060172     1.007825032230
         H           -3.536672615141    -2.181535391014     0.068875060172     1.007825032230

  Basis Set: AUG-CC-PVTZ
    Blend: AUG-CC-PVTZ
  Basis Set: (AUG-CC-PVTZ AUX)
    Blend: AUG-CC-PVTZ-JKFIT
	 Reference Energy          =    -568.4647976247472343 [Eh]
	 Singles Energy            =      -0.0000000000000000 [Eh]
	 Same-Spin Energy          =      -0.6145033479872648 [Eh]
	 Opposite-Spin Energy      =      -1.8872349747774191 [Eh]
	 Correlation Energy        =      -2.5017383227646839 [Eh]
	 Total Energy              =    -570.9665359475119430 [Eh]

	 ================> DF-SCS-MP2 Energies <==================
	-----------------------------------------------------------
	 SCS Same-Spin Scale       =       0.3333333333333333 [-]
	 SCS Opposite-Spin Scale   =       1.2000000000000000 [-]
	 SCS Same-Spin Energy      =      -0.2048344493290883 [Eh]
	 SCS Opposite-Spin Energy  =      -2.2646819697329028 [Eh]
	 SCS Correlation Energy    =      -2.4695164190619909 [Eh]
	 SCS Total Energy          =    -570.9343140438091950 [Eh]
	-----------------------------------------------------------

  Dipole Moment: [D]
     X:    -5.1108      Y:    -0.2425      Z:     0.2320     Total:     5.1218

*** Psi4 exiting successfully. Buy a developer a beer!
