                               Psi4 1.3.2 release

  ==> Input File <==

--------------------------------------------------------------------------
#psi4
#
memory 32 gb

molecule  {
0 1
  O        3.1477550    -1.4485350    -0.2143050
  N        0.9062980    -1.2504610    -0.5893500
  N        1.5545360     1.4658350     0.3351760
  C       -0.6961080     0.5074870     0.0337420
  C       -0.3911060    -0.8453020    -0.2363150
  C        0.3345050     1.5654110    -0.0838510
  C        1.9201190     0.2388570     1.0398190
  C       -2.0282860     0.8425430     0.3372020
  C       -1.4126000    -1.8085370    -0.2310830
  C        2.0871850    -0.8915250     0.0446260
  C       -0.0584500     2.8482670    -0.7690020
  C       -3.0319510    -0.1194250     0.3623450
  C       -2.7230760    -1.4503270     0.0616580
  H        0.9974690    -2.0891180    -1.1576180
  H        1.1136536    -0.0488944     1.7319645
  H        2.8821530     0.3846540     1.5322680
  H       -2.2754030     1.8777800     0.5574090
  H       -1.1609050    -2.8458310    -0.4446670
  H       -0.7945500     3.4046450    -0.1790500
  H       -0.5037450     2.6486950    -1.7485080
  H        0.8332190     3.4662990    -0.8854880
  H       -4.0517820     0.1644530     0.6082680
  H       -3.5008180    -2.2099170     0.0672390
units angstrom
no_reorient  #important for SAPT in psi4, default
symmetry c1  #important for SAPT in psi4, default
}

set PROPERTIES_ORIGIN ["COM"]
properties('MP2/aug-cc-pvtz', properties = ['dipole'])
--------------------------------------------------------------------------

    Molecular point group: c1
  Charge       = 0
  Multiplicity = 1
  Basis Set: AUG-CC-PVTZ
    Blend: AUG-CC-PVTZ
  Basis Set: (AUG-CC-PVTZ AUX)
    Blend: AUG-CC-PVTZ-JKFIT

    Orbital Energies [Eh]
    ---------------------

    Doubly Occupied:

       1A    -20.532050     2A    -15.607163     3A    -15.566743
       4A    -11.362131     5A    -11.314640     6A    -11.301905
       7A    -11.267355     8A    -11.267035     9A    -11.265825
      10A    -11.265730    11A    -11.258495    12A    -11.254004
      13A    -11.234042    14A     -1.387433    15A     -1.276334
      16A     -1.233012    17A     -1.164804    18A     -1.065713
      19A     -1.035476    20A     -1.011454    21A     -0.951550
      22A     -0.885774    23A     -0.858330    24A     -0.794835
      25A     -0.768314    26A     -0.728532    27A     -0.691670
      28A     -0.678297    29A     -0.657803    30A     -0.647792
      31A     -0.626286    32A     -0.619375    33A     -0.604609
      34A     -0.586381    35A     -0.566694    36A     -0.558863
      37A     -0.543172    38A     -0.540767    39A     -0.528065
      40A     -0.516571    41A     -0.457602    42A     -0.444727
      43A     -0.416266    44A     -0.405167    45A     -0.355102
      46A     -0.332539

  @DF-RHF Final Energy:  -568.46479214220301

   => Energetics <=

    Nuclear Repulsion Energy =            760.9749764211032925
    One-Electron Energy =               -2282.0066870030332211
    Two-Electron Energy =                 952.5669184397269191
    Total Energy =                       -568.4647921422030095
  Basis Set: (AUG-CC-PVTZ AUX)
    Blend: AUG-CC-PVTZ-RI
    Molecular point group: c1

    Geometry (in Angstrom), charge = 0, multiplicity = 1:

       Center              X                  Y                   Z               Mass
    ------------   -----------------  -----------------  -----------------  -----------------
         O            3.111571301175    -1.421455668379    -0.213185637902    15.994914619570
         N            0.870114301175    -1.223381668379    -0.588230637902    14.003074004430
         N            1.518352301175     1.492914331621     0.336295362098    14.003074004430
         C           -0.732291698825     0.534566331621     0.034861362098    12.000000000000
         C           -0.427289698825    -0.818222668379    -0.235195637902    12.000000000000
         C            0.298321301175     1.592490331621    -0.082731637902    12.000000000000
         C            1.883935301175     0.265936331621     1.040938362098    12.000000000000
         C           -2.064469698825     0.869622331621     0.338321362098    12.000000000000
         C           -1.448783698825    -1.781457668379    -0.229963637902    12.000000000000
         C            2.051001301175    -0.864445668379     0.045745362098    12.000000000000
         C           -0.094633698825     2.875346331621    -0.767882637902    12.000000000000
         C           -3.068134698825    -0.092345668379     0.363464362098    12.000000000000
         C           -2.759259698825    -1.423247668379     0.062777362098    12.000000000000
         H            0.961285301175    -2.062038668379    -1.156498637902     1.007825032230
         H            1.077469901175    -0.021815068379     1.733083862098     1.007825032230
         H            2.845969301175     0.411733331621     1.533387362098     1.007825032230
         H           -2.311586698825     1.904859331621     0.558528362098     1.007825032230
         H           -1.197088698825    -2.818751668379    -0.443547637902     1.007825032230
         H           -0.830733698825     3.431724331621    -0.177930637902     1.007825032230
         H           -0.539928698825     2.675774331621    -1.747388637902     1.007825032230
         H            0.797035301175     3.493378331621    -0.884368637902     1.007825032230
         H           -4.087965698825     0.191532331621     0.609387362098     1.007825032230
         H           -3.537001698825    -2.182837668379     0.068358362098     1.007825032230

  Basis Set: AUG-CC-PVTZ
    Blend: AUG-CC-PVTZ
  Basis Set: (AUG-CC-PVTZ AUX)
    Blend: AUG-CC-PVTZ-JKFIT
	 Reference Energy          =    -568.4647921422030095 [Eh]
	 Singles Energy            =      -0.0000000000000000 [Eh]
	 Same-Spin Energy          =      -0.6146803303292732 [Eh]
	 Opposite-Spin Energy      =      -1.8874338703883500 [Eh]
	 Correlation Energy        =      -2.5021142007176231 [Eh]
	 Total Energy              =    -570.9669063429206517 [Eh]

	 ================> DF-SCS-MP2 Energies <==================
	-----------------------------------------------------------
	 SCS Same-Spin Scale       =       0.3333333333333333 [-]
	 SCS Opposite-Spin Scale   =       1.2000000000000000 [-]
	 SCS Same-Spin Energy      =      -0.2048934434430910 [Eh]
	 SCS Opposite-Spin Energy  =      -2.2649206444660197 [Eh]
	 SCS Correlation Energy    =      -2.4698140879091106 [Eh]
	 SCS Total Energy          =    -570.9346062301120810 [Eh]
	-----------------------------------------------------------

  Dipole Moment: [D]
     X:    -5.1317      Y:    -0.2529      Z:     0.2014     Total:     5.1419

*** Psi4 exiting successfully. Buy a developer a beer!
