                               Psi4 1.3.2 release

  ==> Input File <==

--------------------------------------------------------------------------
#psi4
#
memory 32 gb

molecule  {
0 1
  O        3.1477550    -1.4485350    -0.2143050
  N        0.9062980    -1.2504610    -0.5893500
  N        1.5975991     1.4620547     0.3080977
  C       -0.6961080     0.5074870     0.0337420
  C       -0.3911060    -0.8453020    -0.2363150
  C        0.3345050     1.5654110    -0.0838510
  C        1.9201190     0.2388570     1.0398190
  C       -2.0282860     0.8425430     0.3372020
  C       -1.4126000    -1.8085370    -0.2310830
  C        2.0871850    -0.8915250     0.0446260
  C       -0.0584500     2.8482670    -0.7690020
  C       -3.0319510    -0.1194250     0.3623450
  C       -2.7230760    -1.4503270     0.0616580
  H        0.9974690    -2.0891180    -1.1576180
  H        1.1650960    -0.0456930     1.7889680
  H        2.8821530     0.3846540     1.5322680
  H       -2.2754030     1.8777800     0.5574090
  H       -1.1609050    -2.8458310    -0.4446670
  H       -0.7945500     3.4046450    -0.1790500
  H       -0.5037450     2.6486950    -1.7485080
  H        0.8332190     3.4662990    -0.8854880
  H       -4.0517820     0.1644530     0.6082680
  H       -3.5008180    -2.2099170     0.0672390
units angstrom
no_reorient  #important for SAPT in psi4, default
symmetry c1  #important for SAPT in psi4, default
}

set PROPERTIES_ORIGIN ["COM"]
properties('MP2/aug-cc-pvtz', properties = ['dipole'])
--------------------------------------------------------------------------

    Molecular point group: c1
  Charge       = 0
  Multiplicity = 1
  Basis Set: AUG-CC-PVTZ
    Blend: AUG-CC-PVTZ
  Basis Set: (AUG-CC-PVTZ AUX)
    Blend: AUG-CC-PVTZ-JKFIT

    Orbital Energies [Eh]
    ---------------------

    Doubly Occupied:

       1A    -20.530990     2A    -15.607016     3A    -15.571455
       4A    -11.361314     5A    -11.315704     6A    -11.308066
       7A    -11.268427     8A    -11.267276     9A    -11.266670
      10A    -11.265189    11A    -11.258975    12A    -11.254554
      13A    -11.235459    14A     -1.386465    15A     -1.274248
      16A     -1.224677    17A     -1.165483    18A     -1.067010
      19A     -1.035495    20A     -1.010855    21A     -0.948020
      22A     -0.886683    23A     -0.858804    24A     -0.794642
      25A     -0.768803    26A     -0.729759    27A     -0.688649
      28A     -0.678376    29A     -0.657518    30A     -0.648375
      31A     -0.626814    32A     -0.615811    33A     -0.603583
      34A     -0.586525    35A     -0.567366    36A     -0.559778
      37A     -0.543338    38A     -0.537538    39A     -0.526735
      40A     -0.514126    41A     -0.454391    42A     -0.444391
      43A     -0.422875    44A     -0.402024    45A     -0.353955
      46A     -0.332911

  @DF-RHF Final Energy:  -568.46033353892085

   => Energetics <=

    Nuclear Repulsion Energy =            760.0076760940230542
    One-Electron Energy =               -2280.0817794966055772
    Two-Electron Energy =                 951.6137698636616733
    Total Energy =                       -568.4603335389208496
  Basis Set: (AUG-CC-PVTZ AUX)
    Blend: AUG-CC-PVTZ-RI
    Molecular point group: c1

    Geometry (in Angstrom), charge = 0, multiplicity = 1:

       Center              X                  Y                   Z               Mass
    ------------   -----------------  -----------------  -----------------  -----------------
         O            3.107809448583    -1.421170112509    -0.211337458017    15.994914619570
         N            0.866352448583    -1.223096112509    -0.586382458017    14.003074004430
         N            1.557653548583     1.489419587491     0.311065241983    14.003074004430
         C           -0.736053551417     0.534851887491     0.036709541983    12.000000000000
         C           -0.431051551417    -0.817937112509    -0.233347458017    12.000000000000
         C            0.294559448583     1.592775887491    -0.080883458017    12.000000000000
         C            1.880173448583     0.266221887491     1.042786541983    12.000000000000
         C           -2.068231551417     0.869907887491     0.340169541983    12.000000000000
         C           -1.452545551417    -1.781172112509    -0.228115458017    12.000000000000
         C            2.047239448583    -0.864160112509     0.047593541983    12.000000000000
         C           -0.098395551417     2.875631887491    -0.766034458017    12.000000000000
         C           -3.071896551417    -0.092060112509     0.365312541983    12.000000000000
         C           -2.763021551417    -1.422962112509     0.064625541983    12.000000000000
         H            0.957523448583    -2.061753112509    -1.154650458017     1.007825032230
         H            1.125150448583    -0.018328112509     1.791935541983     1.007825032230
         H            2.842207448583     0.412018887491     1.535235541983     1.007825032230
         H           -2.315348551417     1.905144887491     0.560376541983     1.007825032230
         H           -1.200850551417    -2.818466112509    -0.441699458017     1.007825032230
         H           -0.834495551417     3.432009887491    -0.176082458017     1.007825032230
         H           -0.543690551417     2.676059887491    -1.745540458017     1.007825032230
         H            0.793273448583     3.493663887491    -0.882520458017     1.007825032230
         H           -4.091727551417     0.191817887491     0.611235541983     1.007825032230
         H           -3.540763551417    -2.182552112509     0.070206541983     1.007825032230

  Basis Set: AUG-CC-PVTZ
    Blend: AUG-CC-PVTZ
  Basis Set: (AUG-CC-PVTZ AUX)
    Blend: AUG-CC-PVTZ-JKFIT
	 Reference Energy          =    -568.4603335389208496 [Eh]
	 Singles Energy            =      -0.0000000000000000 [Eh]
	 Same-Spin Energy          =      -0.6153910693991461 [Eh]
	 Opposite-Spin Energy      =      -1.8892473823312053 [Eh]
	 Correlation Energy        =      -2.5046384517303513 [Eh]
	 Total Energy              =    -570.9649719906511791 [Eh]

	 ================> DF-SCS-MP2 Energies <==================
	-----------------------------------------------------------
	 SCS Same-Spin Scale       =       0.3333333333333333 [-]
	 SCS Opposite-Spin Scale   =       1.2000000000000000 [-]
	 SCS Same-Spin Energy      =      -0.2051303564663820 [Eh]
	 SCS Opposite-Spin Energy  =      -2.2670968587974460 [Eh]
	 SCS Correlation Energy    =      -2.4722272152638283 [Eh]
	 SCS Total Energy          =    -570.9325607541846921 [Eh]
	-----------------------------------------------------------

  Dipole Moment: [D]
     X:    -5.2098      Y:    -0.2470      Z:     0.2614     Total:     5.2222

*** Psi4 exiting successfully. Buy a developer a beer!
