                               Psi4 1.3.2 release

  ==> Input File <==

--------------------------------------------------------------------------
#psi4
#
memory 32 gb

molecule  {
0 1
  O        3.1477550    -1.4485350    -0.2143050
  N        0.9062980    -1.2504610    -0.5893500
  N        1.5622465     1.5077561     0.3202546
  C       -0.6961080     0.5074870     0.0337420
  C       -0.3911060    -0.8453020    -0.2363150
  C        0.3345050     1.5654110    -0.0838510
  C        1.9201190     0.2388570     1.0398190
  C       -2.0282860     0.8425430     0.3372020
  C       -1.4126000    -1.8085370    -0.2310830
  C        2.0871850    -0.8915250     0.0446260
  C       -0.0584500     2.8482670    -0.7690020
  C       -3.0319510    -0.1194250     0.3623450
  C       -2.7230760    -1.4503270     0.0616580
  H        0.9974690    -2.0891180    -1.1576180
  H        1.1650960    -0.0456930     1.7889680
  H        2.8821530     0.3846540     1.5322680
  H       -2.2754030     1.8777800     0.5574090
  H       -1.1609050    -2.8458310    -0.4446670
  H       -0.7945500     3.4046450    -0.1790500
  H       -0.5037450     2.6486950    -1.7485080
  H        0.8332190     3.4662990    -0.8854880
  H       -4.0517820     0.1644530     0.6082680
  H       -3.5008180    -2.2099170     0.0672390
units angstrom
no_reorient  #important for SAPT in psi4, default
symmetry c1  #important for SAPT in psi4, default
}

set PROPERTIES_ORIGIN ["COM"]
properties('MP2/aug-cc-pvtz', properties = ['dipole'])
--------------------------------------------------------------------------

    Molecular point group: c1
  Charge       = 0
  Multiplicity = 1
  Basis Set: AUG-CC-PVTZ
    Blend: AUG-CC-PVTZ
  Basis Set: (AUG-CC-PVTZ AUX)
    Blend: AUG-CC-PVTZ-JKFIT

    Orbital Energies [Eh]
    ---------------------

    Doubly Occupied:

       1A    -20.532537     2A    -15.607425     3A    -15.571181
       4A    -11.363098     5A    -11.315165     6A    -11.301886
       7A    -11.268560     8A    -11.268022     9A    -11.266857
      10A    -11.266162    11A    -11.258787    12A    -11.254355
      13A    -11.232490    14A     -1.387621    15A     -1.275000
      16A     -1.229541    17A     -1.164823    18A     -1.063276
      19A     -1.035648    20A     -1.010556    21A     -0.951663
      22A     -0.885469    23A     -0.858700    24A     -0.795352
      25A     -0.766455    26A     -0.729151    27A     -0.689209
      28A     -0.676605    29A     -0.657693    30A     -0.647205
      31A     -0.626640    32A     -0.615789    33A     -0.603534
      34A     -0.585864    35A     -0.567215    36A     -0.558618
      37A     -0.542513    38A     -0.536699    39A     -0.527301
      40A     -0.514682    41A     -0.457017    42A     -0.444842
      43A     -0.421200    44A     -0.407758    45A     -0.356151
      46A     -0.332805

  @DF-RHF Final Energy:  -568.46309258923100

   => Energetics <=

    Nuclear Repulsion Energy =            759.8105498852215760
    One-Electron Energy =               -2279.6890519256080552
    Two-Electron Energy =                 951.4154094511555968
    Total Energy =                       -568.4630925892309961
  Basis Set: (AUG-CC-PVTZ AUX)
    Blend: AUG-CC-PVTZ-RI
    Molecular point group: c1

    Geometry (in Angstrom), charge = 0, multiplicity = 1:

       Center              X                  Y                   Z               Mass
    ------------   -----------------  -----------------  -----------------  -----------------
         O            3.110653238955    -1.424846368323    -0.212315368416    15.994914619570
         N            0.869196238955    -1.226772368323    -0.587360368416    14.003074004430
         N            1.525144738955     1.531444731677     0.322244231584    14.003074004430
         C           -0.733209761045     0.531175631677     0.035731631584    12.000000000000
         C           -0.428207761045    -0.821613368323    -0.234325368416    12.000000000000
         C            0.297403238955     1.589099631677    -0.081861368416    12.000000000000
         C            1.883017238955     0.262545631677     1.041808631584    12.000000000000
         C           -2.065387761045     0.866231631677     0.339191631584    12.000000000000
         C           -1.449701761045    -1.784848368323    -0.229093368416    12.000000000000
         C            2.050083238955    -0.867836368323     0.046615631584    12.000000000000
         C           -0.095551761045     2.871955631677    -0.767012368416    12.000000000000
         C           -3.069052761045    -0.095736368323     0.364334631584    12.000000000000
         C           -2.760177761045    -1.426638368323     0.063647631584    12.000000000000
         H            0.960367238955    -2.065429368323    -1.155628368416     1.007825032230
         H            1.127994238955    -0.022004368323     1.790957631584     1.007825032230
         H            2.845051238955     0.408342631677     1.534257631584     1.007825032230
         H           -2.312504761045     1.901468631677     0.559398631584     1.007825032230
         H           -1.198006761045    -2.822142368323    -0.442677368416     1.007825032230
         H           -0.831651761045     3.428333631677    -0.177060368416     1.007825032230
         H           -0.540846761045     2.672383631677    -1.746518368416     1.007825032230
         H            0.796117238955     3.489987631677    -0.883498368416     1.007825032230
         H           -4.088883761045     0.188141631677     0.610257631584     1.007825032230
         H           -3.537919761045    -2.186228368323     0.069228631584     1.007825032230

  Basis Set: AUG-CC-PVTZ
    Blend: AUG-CC-PVTZ
  Basis Set: (AUG-CC-PVTZ AUX)
    Blend: AUG-CC-PVTZ-JKFIT
	 Reference Energy          =    -568.4630925892309961 [Eh]
	 Singles Energy            =      -0.0000000000000000 [Eh]
	 Same-Spin Energy          =      -0.6144404722255372 [Eh]
	 Opposite-Spin Energy      =      -1.8879838801332809 [Eh]
	 Correlation Energy        =      -2.5024243523588181 [Eh]
	 Total Energy              =    -570.9655169415898399 [Eh]

	 ================> DF-SCS-MP2 Energies <==================
	-----------------------------------------------------------
	 SCS Same-Spin Scale       =       0.3333333333333333 [-]
	 SCS Opposite-Spin Scale   =       1.2000000000000000 [-]
	 SCS Same-Spin Energy      =      -0.2048134907418457 [Eh]
	 SCS Opposite-Spin Energy  =      -2.2655806561599370 [Eh]
	 SCS Correlation Energy    =      -2.4703941469017829 [Eh]
	 SCS Total Energy          =    -570.9334867361327497 [Eh]
	-----------------------------------------------------------

  Dipole Moment: [D]
     X:    -5.1542      Y:    -0.3143      Z:     0.2553     Total:     5.1701

*** Psi4 exiting successfully. Buy a developer a beer!
