                               Psi4 1.4a3.dev225

  ==> Input File <==

--------------------------------------------------------------------------
#psi4
#
memory 32 gb

molecule  {
0 1
  O        3.1477550    -1.4485350    -0.2143050
  N        0.9062980    -1.2504610    -0.5893500
  N        1.5545360     1.4658350     0.3351760
  C       -0.6961080     0.5074870     0.0337420
  C       -0.3911060    -0.8453020    -0.2363150
  C        0.3156457     1.5669503    -0.0903284
  C        1.9201190     0.2388570     1.0398190
  C       -2.0282860     0.8425430     0.3372020
  C       -1.4126000    -1.8085370    -0.2310830
  C        2.0871850    -0.8915250     0.0446260
  C       -0.0584500     2.8482670    -0.7690020
  C       -3.0319510    -0.1194250     0.3623450
  C       -2.7230760    -1.4503270     0.0616580
  H        0.9974690    -2.0891180    -1.1576180
  H        1.1650960    -0.0456930     1.7889680
  H        2.8821530     0.3846540     1.5322680
  H       -2.2754030     1.8777800     0.5574090
  H       -1.1609050    -2.8458310    -0.4446670
  H       -0.7945500     3.4046450    -0.1790500
  H       -0.5037450     2.6486950    -1.7485080
  H        0.8332190     3.4662990    -0.8854880
  H       -4.0517820     0.1644530     0.6082680
  H       -3.5008180    -2.2099170     0.0672390
units angstrom
no_reorient  #important for SAPT in psi4, default
symmetry c1  #important for SAPT in psi4, default
}

set PROPERTIES_ORIGIN ["COM"]
properties('MP2/aug-cc-pvtz', properties = ['dipole'])
--------------------------------------------------------------------------

    Molecular point group: c1
  Charge       = 0
  Multiplicity = 1
  Basis Set: AUG-CC-PVTZ
    Blend: AUG-CC-PVTZ
  Basis Set: (AUG-CC-PVTZ AUX)
    Blend: AUG-CC-PVTZ-JKFIT

    Orbital Energies [Eh]
    ---------------------

    Doubly Occupied:

       1A    -20.531851     2A    -15.607089     3A    -15.567968
       4A    -11.362145     5A    -11.315303     6A    -11.303838
       7A    -11.267150     8A    -11.266090     9A    -11.266046
      10A    -11.265721    11A    -11.258700    12A    -11.254091
      13A    -11.234617    14A     -1.387102    15A     -1.274991
      16A     -1.227373    17A     -1.165101    18A     -1.067498
      19A     -1.035409    20A     -1.011981    21A     -0.949713
      22A     -0.887250    23A     -0.858544    24A     -0.795469
      25A     -0.768904    26A     -0.729431    27A     -0.690584
      28A     -0.677124    29A     -0.657659    30A     -0.648771
      31A     -0.626504    32A     -0.617765    33A     -0.604001
      34A     -0.587462    35A     -0.566746    36A     -0.560362
      37A     -0.542565    38A     -0.539065    39A     -0.527719
      40A     -0.516669    41A     -0.455600    42A     -0.444502
      43A     -0.417638    44A     -0.403500    45A     -0.353853
      46A     -0.332433

  @DF-RHF Final Energy:  -568.46304403665533

   => Energetics <=

    Nuclear Repulsion Energy =            760.6633684192066767
    One-Electron Energy =               -2281.3930319331921055
    Two-Electron Energy =                 952.2666194773302095
    Total Energy =                       -568.4630440366553330
  Basis Set: (AUG-CC-PVTZ AUX)
    Blend: AUG-CC-PVTZ-RI
    Molecular point group: c1

    Geometry (in Angstrom), charge = 0, multiplicity = 1:

       Center              X                  Y                   Z               Mass
    ------------   -----------------  -----------------  -----------------  -----------------
         O            3.112573526302    -1.421580313006    -0.213069143613    15.994914619570
         N            0.871116526302    -1.223506313006    -0.588114143613    14.003074004430
         N            1.519354526302     1.492789686994     0.336411856387    14.003074004430
         C           -0.731289473698     0.534441686994     0.034977856387    12.000000000000
         C           -0.426287473698    -0.818347313006    -0.235079143613    12.000000000000
         C            0.280464226302     1.593904986994    -0.089092543613    12.000000000000
         C            1.884937526302     0.265811686994     1.041054856387    12.000000000000
         C           -2.063467473698     0.869497686994     0.338437856387    12.000000000000
         C           -1.447781473698    -1.781582313006    -0.229847143613    12.000000000000
         C            2.052003526302    -0.864570313006     0.045861856387    12.000000000000
         C           -0.093631473698     2.875221686994    -0.767766143613    12.000000000000
         C           -3.067132473698    -0.092470313006     0.363580856387    12.000000000000
         C           -2.758257473698    -1.423372313006     0.062893856387    12.000000000000
         H            0.962287526302    -2.062163313006    -1.156382143613     1.007825032230
         H            1.129914526302    -0.018738313006     1.790203856387     1.007825032230
         H            2.846971526302     0.411608686994     1.533503856387     1.007825032230
         H           -2.310584473698     1.904734686994     0.558644856387     1.007825032230
         H           -1.196086473698    -2.818876313006    -0.443431143613     1.007825032230
         H           -0.829731473698     3.431599686994    -0.177814143613     1.007825032230
         H           -0.538926473698     2.675649686994    -1.747272143613     1.007825032230
         H            0.798037526302     3.493253686994    -0.884252143613     1.007825032230
         H           -4.086963473698     0.191407686994     0.609503856387     1.007825032230
         H           -3.535999473698    -2.182962313006     0.068474856387     1.007825032230

  Basis Set: AUG-CC-PVTZ
    Blend: AUG-CC-PVTZ
  Basis Set: (AUG-CC-PVTZ AUX)
    Blend: AUG-CC-PVTZ-JKFIT
	 Reference Energy          =    -568.4630440366553330 [Eh]
	 Singles Energy            =      -0.0000000000000000 [Eh]
	 Same-Spin Energy          =      -0.6151083230496356 [Eh]
	 Opposite-Spin Energy      =      -1.8883096067129104 [Eh]
	 Correlation Energy        =      -2.5034179297625458 [Eh]
	 Total Energy              =    -570.9664619664179099 [Eh]

	 ================> DF-SCS-MP2 Energies <==================
	-----------------------------------------------------------
	 SCS Same-Spin Scale       =       0.3333333333333333 [-]
	 SCS Opposite-Spin Scale   =       1.2000000000000000 [-]
	 SCS Same-Spin Energy      =      -0.2050361076832118 [Eh]
	 SCS Opposite-Spin Energy  =      -2.2659715280554922 [Eh]
	 SCS Correlation Energy    =      -2.4710076357387041 [Eh]
	 SCS Total Energy          =    -570.9340516723940482 [Eh]
	-----------------------------------------------------------

  Dipole Moment: [D]
     X:    -5.1557      Y:    -0.2457      Z:     0.2089     Total:     5.1658

*** Psi4 exiting successfully. Buy a developer a beer!
