                               Psi4 1.3.2 release

  ==> Input File <==

--------------------------------------------------------------------------
#psi4
#
memory 32 gb

molecule  {
0 1
  O        3.1477550    -1.4485350    -0.2143050
  N        0.9141375    -1.2274717    -0.5860728
  N        1.5545360     1.4658350     0.3351760
  C       -0.6961080     0.5074870     0.0337420
  C       -0.3911060    -0.8453020    -0.2363150
  C        0.3345050     1.5654110    -0.0838510
  C        1.9201190     0.2388570     1.0398190
  C       -2.0282860     0.8425430     0.3372020
  C       -1.4126000    -1.8085370    -0.2310830
  C        2.0871850    -0.8915250     0.0446260
  C       -0.0584500     2.8482670    -0.7690020
  C       -3.0319510    -0.1194250     0.3623450
  C       -2.7230760    -1.4503270     0.0616580
  H        0.9974690    -2.0891180    -1.1576180
  H        1.1650960    -0.0456930     1.7889680
  H        2.8821530     0.3846540     1.5322680
  H       -2.2754030     1.8777800     0.5574090
  H       -1.1609050    -2.8458310    -0.4446670
  H       -0.7945500     3.4046450    -0.1790500
  H       -0.5037450     2.6486950    -1.7485080
  H        0.8332190     3.4662990    -0.8854880
  H       -4.0517820     0.1644530     0.6082680
  H       -3.5008180    -2.2099170     0.0672390
units angstrom
no_reorient  #important for SAPT in psi4, default
symmetry c1  #important for SAPT in psi4, default
}

set PROPERTIES_ORIGIN ["COM"]
properties('MP2/aug-cc-pvtz', properties = ['dipole'])
--------------------------------------------------------------------------

    Molecular point group: c1
  Charge       = 0
  Multiplicity = 1
  Basis Set: AUG-CC-PVTZ
    Blend: AUG-CC-PVTZ
  Basis Set: (AUG-CC-PVTZ AUX)
    Blend: AUG-CC-PVTZ-JKFIT

    Orbital Energies [Eh]
    ---------------------

    Doubly Occupied:

       1A    -20.530740     2A    -15.609112     3A    -15.566963
       4A    -11.360960     5A    -11.314965     6A    -11.302142
       7A    -11.266962     8A    -11.266104     9A    -11.265960
      10A    -11.265739    11A    -11.259459    12A    -11.254349
      13A    -11.234143    14A     -1.387478    15A     -1.277205
      16A     -1.232527    17A     -1.165427    18A     -1.065816
      19A     -1.036436    20A     -1.010928    21A     -0.951216
      22A     -0.886530    23A     -0.859335    24A     -0.795277
      25A     -0.767371    26A     -0.727740    27A     -0.691865
      28A     -0.677373    29A     -0.658328    30A     -0.647554
      31A     -0.626512    32A     -0.618235    33A     -0.602361
      34A     -0.586436    35A     -0.567676    36A     -0.559019
      37A     -0.543637    38A     -0.539044    39A     -0.528096
      40A     -0.515049    41A     -0.457435    42A     -0.444422
      43A     -0.417468    44A     -0.404858    45A     -0.355206
      46A     -0.333203

  @DF-RHF Final Energy:  -568.46438510338066

   => Energetics <=

    Nuclear Repulsion Energy =            761.1035336731536063
    One-Electron Energy =               -2282.2665128739918146
    Two-Electron Energy =                 952.6985940974575442
    Total Energy =                       -568.4643851033806641
  Basis Set: (AUG-CC-PVTZ AUX)
    Blend: AUG-CC-PVTZ-RI
    Molecular point group: c1

    Geometry (in Angstrom), charge = 0, multiplicity = 1:

       Center              X                  Y                   Z               Mass
    ------------   -----------------  -----------------  -----------------  -----------------
         O            3.110642862095    -1.423323479750    -0.213779277816    15.994914619570
         N            0.877025362095    -1.202260179750    -0.585547077816    14.003074004430
         N            1.517423862095     1.491046520250     0.335701722184    14.003074004430
         C           -0.733220137905     0.532698520250     0.034267722184    12.000000000000
         C           -0.428218137905    -0.820090479750    -0.235789277816    12.000000000000
         C            0.297392862095     1.590622520250    -0.083325277816    12.000000000000
         C            1.883006862095     0.264068520250     1.040344722184    12.000000000000
         C           -2.065398137905     0.867754520250     0.337727722184    12.000000000000
         C           -1.449712137905    -1.783325479750    -0.230557277816    12.000000000000
         C            2.050072862095    -0.866313479750     0.045151722184    12.000000000000
         C           -0.095562137905     2.873478520250    -0.768476277816    12.000000000000
         C           -3.069063137905    -0.094213479750     0.362870722184    12.000000000000
         C           -2.760188137905    -1.425115479750     0.062183722184    12.000000000000
         H            0.960356862095    -2.063906479750    -1.157092277816     1.007825032230
         H            1.127983862095    -0.020481479750     1.789493722184     1.007825032230
         H            2.845040862095     0.409865520250     1.532793722184     1.007825032230
         H           -2.312515137905     1.902991520250     0.557934722184     1.007825032230
         H           -1.198017137905    -2.820619479750    -0.444141277816     1.007825032230
         H           -0.831662137905     3.429856520250    -0.178524277816     1.007825032230
         H           -0.540857137905     2.673906520250    -1.747982277816     1.007825032230
         H            0.796106862095     3.491510520250    -0.884962277816     1.007825032230
         H           -4.088894137905     0.189664520250     0.608793722184     1.007825032230
         H           -3.537930137905    -2.184705479750     0.067764722184     1.007825032230

  Basis Set: AUG-CC-PVTZ
    Blend: AUG-CC-PVTZ
  Basis Set: (AUG-CC-PVTZ AUX)
    Blend: AUG-CC-PVTZ-JKFIT
	 Reference Energy          =    -568.4643851033806641 [Eh]
	 Singles Energy            =      -0.0000000000000000 [Eh]
	 Same-Spin Energy          =      -0.6147089882788261 [Eh]
	 Opposite-Spin Energy      =      -1.8875272326343284 [Eh]
	 Correlation Energy        =      -2.5022362209131543 [Eh]
	 Total Energy              =    -570.9666213242937829 [Eh]

	 ================> DF-SCS-MP2 Energies <==================
	-----------------------------------------------------------
	 SCS Same-Spin Scale       =       0.3333333333333333 [-]
	 SCS Opposite-Spin Scale   =       1.2000000000000000 [-]
	 SCS Same-Spin Energy      =      -0.2049029960929420 [Eh]
	 SCS Opposite-Spin Energy  =      -2.2650326791611941 [Eh]
	 SCS Correlation Energy    =      -2.4699356752541362 [Eh]
	 SCS Total Energy          =    -570.9343207786348557 [Eh]
	-----------------------------------------------------------

  Dipole Moment: [D]
     X:    -5.1948      Y:    -0.2615      Z:     0.2212     Total:     5.2061

*** Psi4 exiting successfully. Buy a developer a beer!
