                               Psi4 1.3.2 release

  ==> Input File <==

--------------------------------------------------------------------------
#psi4
#
memory 32 gb

molecule  {
0 1
  O        3.1477550    -1.4485350    -0.2143050
  N        0.9062980    -1.2504610    -0.5893500
  N        1.5545360     1.4658350     0.3351760
  C       -0.6256672     0.4493050     0.0821952
  C       -0.3911060    -0.8453020    -0.2363150
  C        0.3345050     1.5654110    -0.0838510
  C        1.9201190     0.2388570     1.0398190
  C       -2.0282860     0.8425430     0.3372020
  C       -1.4126000    -1.8085370    -0.2310830
  C        2.0871850    -0.8915250     0.0446260
  C       -0.0584500     2.8482670    -0.7690020
  C       -3.0319510    -0.1194250     0.3623450
  C       -2.7230760    -1.4503270     0.0616580
  H        0.9974690    -2.0891180    -1.1576180
  H        1.1650960    -0.0456930     1.7889680
  H        2.8821530     0.3846540     1.5322680
  H       -2.2754030     1.8777800     0.5574090
  H       -1.1609050    -2.8458310    -0.4446670
  H       -0.7945500     3.4046450    -0.1790500
  H       -0.5037450     2.6486950    -1.7485080
  H        0.8332190     3.4662990    -0.8854880
  H       -4.0517820     0.1644530     0.6082680
  H       -3.5008180    -2.2099170     0.0672390
units angstrom
no_reorient  #important for SAPT in psi4, default
symmetry c1  #important for SAPT in psi4, default
}

set PROPERTIES_ORIGIN ["COM"]
properties('MP2/aug-cc-pvtz', properties = ['dipole'])
--------------------------------------------------------------------------

    Molecular point group: c1
  Charge       = 0
  Multiplicity = 1
  Basis Set: AUG-CC-PVTZ
    Blend: AUG-CC-PVTZ
  Basis Set: (AUG-CC-PVTZ AUX)
    Blend: AUG-CC-PVTZ-JKFIT

    Orbital Energies [Eh]
    ---------------------

    Doubly Occupied:

       1A    -20.530930     2A    -15.604749     3A    -15.564885
       4A    -11.361742     5A    -11.308532     6A    -11.301968
       7A    -11.272318     8A    -11.266466     9A    -11.265949
      10A    -11.264571    11A    -11.259099    12A    -11.254092
      13A    -11.237215    14A     -1.386519    15A     -1.278111
      16A     -1.232738    17A     -1.161409    18A     -1.063197
      19A     -1.032578    20A     -1.015342    21A     -0.951469
      22A     -0.886967    23A     -0.857653    24A     -0.794784
      25A     -0.767166    26A     -0.728518    27A     -0.690023
      28A     -0.676965    29A     -0.657026    30A     -0.651417
      31A     -0.620340    32A     -0.619166    33A     -0.604067
      34A     -0.587248    35A     -0.566663    36A     -0.559227
      37A     -0.543192    38A     -0.533784    39A     -0.527489
      40A     -0.522844    41A     -0.455958    42A     -0.444028
      43A     -0.416758    44A     -0.402169    45A     -0.349294
      46A     -0.338025

  @DF-RHF Final Energy:  -568.45677691343849

   => Energetics <=

    Nuclear Repulsion Energy =            761.3629607777999126
    One-Electron Energy =               -2282.8101813336816122
    Two-Electron Energy =                 952.9904436424433243
    Total Energy =                       -568.4567769134384889
  Basis Set: (AUG-CC-PVTZ AUX)
    Blend: AUG-CC-PVTZ-RI
    Molecular point group: c1

    Geometry (in Angstrom), charge = 0, multiplicity = 1:

       Center              X                  Y                   Z               Mass
    ------------   -----------------  -----------------  -----------------  -----------------
         O            3.106417704672    -1.417463479202    -0.216855734845    15.994914619570
         N            0.864960704672    -1.219389479202    -0.591900734845    14.003074004430
         N            1.513198704672     1.496906520798     0.332625265155    14.003074004430
         C           -0.667004495328     0.480376520798     0.079644465155    12.000000000000
         C           -0.432443295328    -0.814230479202    -0.238865734845    12.000000000000
         C            0.293167704672     1.596482520798    -0.086401734845    12.000000000000
         C            1.878781704672     0.269928520798     1.037268265155    12.000000000000
         C           -2.069623295328     0.873614520798     0.334651265155    12.000000000000
         C           -1.453937295328    -1.777465479202    -0.233633734845    12.000000000000
         C            2.045847704672    -0.860453479202     0.042075265155    12.000000000000
         C           -0.099787295328     2.879338520798    -0.771552734845    12.000000000000
         C           -3.073288295328    -0.088353479202     0.359794265155    12.000000000000
         C           -2.764413295328    -1.419255479202     0.059107265155    12.000000000000
         H            0.956131704672    -2.058046479202    -1.160168734845     1.007825032230
         H            1.123758704672    -0.014621479202     1.786417265155     1.007825032230
         H            2.840815704672     0.415725520798     1.529717265155     1.007825032230
         H           -2.316740295328     1.908851520798     0.554858265155     1.007825032230
         H           -1.202242295328    -2.814759479202    -0.447217734845     1.007825032230
         H           -0.835887295328     3.435716520798    -0.181600734845     1.007825032230
         H           -0.545082295328     2.679766520798    -1.751058734845     1.007825032230
         H            0.791881704672     3.497370520798    -0.888038734845     1.007825032230
         H           -4.093119295328     0.195524520798     0.605717265155     1.007825032230
         H           -3.542155295328    -2.178845479202     0.064688265155     1.007825032230

  Basis Set: AUG-CC-PVTZ
    Blend: AUG-CC-PVTZ
  Basis Set: (AUG-CC-PVTZ AUX)
    Blend: AUG-CC-PVTZ-JKFIT
	 Reference Energy          =    -568.4567769134384889 [Eh]
	 Singles Energy            =      -0.0000000000000000 [Eh]
	 Same-Spin Energy          =      -0.6143440901478632 [Eh]
	 Opposite-Spin Energy      =      -1.8878475952263396 [Eh]
	 Correlation Energy        =      -2.5021916853742026 [Eh]
	 Total Energy              =    -570.9589685988127030 [Eh]

	 ================> DF-SCS-MP2 Energies <==================
	-----------------------------------------------------------
	 SCS Same-Spin Scale       =       0.3333333333333333 [-]
	 SCS Opposite-Spin Scale   =       1.2000000000000000 [-]
	 SCS Same-Spin Energy      =      -0.2047813633826210 [Eh]
	 SCS Opposite-Spin Energy  =      -2.2654171142716075 [Eh]
	 SCS Correlation Energy    =      -2.4701984776542285 [Eh]
	 SCS Total Energy          =    -570.9269753910926966 [Eh]
	-----------------------------------------------------------

  Dipole Moment: [D]
     X:    -5.1979      Y:    -0.1966      Z:     0.1889     Total:     5.2050

*** Psi4 exiting successfully. Buy a developer a beer!
