                               Psi4 1.3.2 release

  ==> Input File <==

--------------------------------------------------------------------------
#psi4
#
memory 32 gb

molecule  {
0 1
  O        3.1477550    -1.4485350    -0.2143050
  N        0.9453736    -1.1092845    -0.5771672
  N        1.5545360     1.4658350     0.3351760
  C       -0.6961080     0.5074870     0.0337420
  C       -0.3911060    -0.8453020    -0.2363150
  C        0.3345050     1.5654110    -0.0838510
  C        1.9201190     0.2388570     1.0398190
  C       -2.0282860     0.8425430     0.3372020
  C       -1.4126000    -1.8085370    -0.2310830
  C        2.0871850    -0.8915250     0.0446260
  C       -0.0584500     2.8482670    -0.7690020
  C       -3.0319510    -0.1194250     0.3623450
  C       -2.7230760    -1.4503270     0.0616580
  H        0.9974690    -2.0891180    -1.1576180
  H        1.1650960    -0.0456930     1.7889680
  H        2.8821530     0.3846540     1.5322680
  H       -2.2754030     1.8777800     0.5574090
  H       -1.1609050    -2.8458310    -0.4446670
  H       -0.7945500     3.4046450    -0.1790500
  H       -0.5037450     2.6486950    -1.7485080
  H        0.8332190     3.4662990    -0.8854880
  H       -4.0517820     0.1644530     0.6082680
  H       -3.5008180    -2.2099170     0.0672390
units angstrom
no_reorient  #important for SAPT in psi4, default
symmetry c1  #important for SAPT in psi4, default
}

set PROPERTIES_ORIGIN ["COM"]
properties('MP2/aug-cc-pvtz', properties = ['dipole'])
--------------------------------------------------------------------------

    Molecular point group: c1
  Charge       = 0
  Multiplicity = 1
  Basis Set: AUG-CC-PVTZ
    Blend: AUG-CC-PVTZ
  Basis Set: (AUG-CC-PVTZ AUX)
    Blend: AUG-CC-PVTZ-JKFIT

    Orbital Energies [Eh]
    ---------------------

    Doubly Occupied:

       1A    -20.525965     2A    -15.618138     3A    -15.566561
       4A    -11.354662     5A    -11.318065     6A    -11.301003
       7A    -11.268974     8A    -11.267466     9A    -11.266006
      10A    -11.265007    11A    -11.261320    12A    -11.257020
      13A    -11.233822    14A     -1.388626    15A     -1.283734
      16A     -1.230768    17A     -1.169718    18A     -1.067478
      19A     -1.042199    20A     -1.009916    21A     -0.949155
      22A     -0.889672    23A     -0.866572    24A     -0.793896
      25A     -0.764389    26A     -0.721857    27A     -0.693048
      28A     -0.675899    29A     -0.662428    30A     -0.644174
      31A     -0.628107    32A     -0.618862    33A     -0.591036
      34A     -0.585857    35A     -0.567756    36A     -0.559375
      37A     -0.543989    38A     -0.538641    39A     -0.529318
      40A     -0.510569    41A     -0.456655    42A     -0.444334
      43A     -0.416969    44A     -0.402451    45A     -0.356212
      46A     -0.337969

  @DF-RHF Final Energy:  -568.44116477569241

   => Energetics <=

    Nuclear Repulsion Energy =            762.8283643590932570
    One-Electron Energy =               -2285.6477827980797883
    Two-Electron Energy =                 954.3782536632941174
    Total Energy =                       -568.4411647756924140
  Basis Set: (AUG-CC-PVTZ AUX)
    Blend: AUG-CC-PVTZ-RI
    Molecular point group: c1

    Geometry (in Angstrom), charge = 0, multiplicity = 1:

       Center              X                  Y                   Z               Mass
    ------------   -----------------  -----------------  -----------------  -----------------
         O            3.108130206154    -1.432830549142    -0.214495651139    15.994914619570
         N            0.905748806154    -1.093580049142    -0.577357851139    14.003074004430
         N            1.514911206154     1.481539450858     0.334985348861    14.003074004430
         C           -0.735732793846     0.523191450858     0.033551348861    12.000000000000
         C           -0.430730793846    -0.829597549142    -0.236505651139    12.000000000000
         C            0.294880206154     1.581115450858    -0.084041651139    12.000000000000
         C            1.880494206154     0.254561450858     1.039628348861    12.000000000000
         C           -2.067910793846     0.858247450858     0.337011348861    12.000000000000
         C           -1.452224793846    -1.792832549142    -0.231273651139    12.000000000000
         C            2.047560206154    -0.875820549142     0.044435348861    12.000000000000
         C           -0.098074793846     2.863971450858    -0.769192651139    12.000000000000
         C           -3.071575793846    -0.103720549142     0.362154348861    12.000000000000
         C           -2.762700793846    -1.434622549142     0.061467348861    12.000000000000
         H            0.957844206154    -2.073413549142    -1.157808651139     1.007825032230
         H            1.125471206154    -0.029988549142     1.788777348861     1.007825032230
         H            2.842528206154     0.400358450858     1.532077348861     1.007825032230
         H           -2.315027793846     1.893484450858     0.557218348861     1.007825032230
         H           -1.200529793846    -2.830126549142    -0.444857651139     1.007825032230
         H           -0.834174793846     3.420349450858    -0.179240651139     1.007825032230
         H           -0.543369793846     2.664399450858    -1.748698651139     1.007825032230
         H            0.793594206154     3.482003450858    -0.885678651139     1.007825032230
         H           -4.091406793846     0.180157450858     0.608077348861     1.007825032230
         H           -3.540442793846    -2.194212549142     0.067048348861     1.007825032230

  Basis Set: AUG-CC-PVTZ
    Blend: AUG-CC-PVTZ
  Basis Set: (AUG-CC-PVTZ AUX)
    Blend: AUG-CC-PVTZ-JKFIT
	 Reference Energy          =    -568.4411647756924140 [Eh]
	 Singles Energy            =      -0.0000000000000000 [Eh]
	 Same-Spin Energy          =      -0.6164206328103217 [Eh]
	 Opposite-Spin Energy      =      -1.8906256451259720 [Eh]
	 Correlation Energy        =      -2.5070462779362934 [Eh]
	 Total Energy              =    -570.9482110536287109 [Eh]

	 ================> DF-SCS-MP2 Energies <==================
	-----------------------------------------------------------
	 SCS Same-Spin Scale       =       0.3333333333333333 [-]
	 SCS Opposite-Spin Scale   =       1.2000000000000000 [-]
	 SCS Same-Spin Energy      =      -0.2054735442701072 [Eh]
	 SCS Opposite-Spin Energy  =      -2.2687507741511661 [Eh]
	 SCS Correlation Energy    =      -2.4742243184212733 [Eh]
	 SCS Total Energy          =    -570.9153890941137206 [Eh]
	-----------------------------------------------------------

  Dipole Moment: [D]
     X:    -5.5165      Y:    -0.3378      Z:     0.2230     Total:     5.5313

*** Psi4 exiting successfully. Buy a developer a beer!
