                               Psi4 1.3.2 release

  ==> Input File <==

--------------------------------------------------------------------------
#psi4
#
memory 32 gb

molecule  {
0 1
  O        3.1477550    -1.4485350    -0.2143050
  N        0.9062980    -1.2504610    -0.5893500
  N        1.5545360     1.4658350     0.3351760
  C       -0.6961080     0.5074870     0.0337420
  C       -0.3911060    -0.8453020    -0.2363150
  C        0.3345050     1.5654110    -0.0838510
  C        1.9201190     0.2388570     1.0398190
  C       -2.0282860     0.8425430     0.3372020
  C       -1.4126000    -1.8085370    -0.2310830
  C        2.0871850    -0.8915250     0.0446260
  C       -0.0584500     2.8482670    -0.7690020
  C       -3.0319510    -0.1194250     0.3623450
  C       -2.7230760    -1.4503270     0.0616580
  H        0.9795422    -1.9242141    -1.0458803
  H        1.1650960    -0.0456930     1.7889680
  H        2.8821530     0.3846540     1.5322680
  H       -2.2754030     1.8777800     0.5574090
  H       -1.1609050    -2.8458310    -0.4446670
  H       -0.7945500     3.4046450    -0.1790500
  H       -0.5037450     2.6486950    -1.7485080
  H        0.8332190     3.4662990    -0.8854880
  H       -4.0517820     0.1644530     0.6082680
  H       -3.5008180    -2.2099170     0.0672390
units angstrom
no_reorient  #important for SAPT in psi4, default
symmetry c1  #important for SAPT in psi4, default
}

set PROPERTIES_ORIGIN ["COM"]
properties('MP2/aug-cc-pvtz', properties = ['dipole'])
--------------------------------------------------------------------------

    Molecular point group: c1
  Charge       = 0
  Multiplicity = 1
  Basis Set: AUG-CC-PVTZ
    Blend: AUG-CC-PVTZ
  Basis Set: (AUG-CC-PVTZ AUX)
    Blend: AUG-CC-PVTZ-JKFIT

    Orbital Energies [Eh]
    ---------------------

    Doubly Occupied:

       1A    -20.534330     2A    -15.587067     3A    -15.567787
       4A    -11.363703     5A    -11.314922     6A    -11.303097
       7A    -11.267483     8A    -11.267136     9A    -11.266330
      10A    -11.266161    11A    -11.259330    12A    -11.254690
      13A    -11.234747    14A     -1.393634    15A     -1.294519
      16A     -1.241083    17A     -1.168790    18A     -1.066280
      19A     -1.037158    20A     -1.019310    21A     -0.956828
      22A     -0.888284    23A     -0.866185    24A     -0.820734
      25A     -0.774049    26A     -0.740676    27A     -0.692973
      28A     -0.679301    29A     -0.659958    30A     -0.653158
      31A     -0.627065    32A     -0.621331    33A     -0.610275
      34A     -0.587354    35A     -0.570280    36A     -0.559498
      37A     -0.544463    38A     -0.539766    39A     -0.528713
      40A     -0.517322    41A     -0.458804    42A     -0.447772
      43A     -0.418234    44A     -0.406223    45A     -0.355665
      46A     -0.334376

  @DF-RHF Final Energy:  -568.42281083604814

   => Energetics <=

    Nuclear Repulsion Energy =            762.2701218452199328
    One-Electron Energy =               -2284.2521718361813328
    Two-Electron Energy =                 953.5592391549133708
    Total Energy =                       -568.4228108360481428
  Basis Set: (AUG-CC-PVTZ AUX)
    Blend: AUG-CC-PVTZ-RI
    Molecular point group: c1

    Geometry (in Angstrom), charge = 0, multiplicity = 1:

       Center              X                  Y                   Z               Mass
    ------------   -----------------  -----------------  -----------------  -----------------
         O            3.111377263985    -1.422428907108    -0.214162558148    15.994914619570
         N            0.869920263985    -1.224354907108    -0.589207558148    14.003074004430
         N            1.518158263985     1.491941092892     0.335318441852    14.003074004430
         C           -0.732485736015     0.533593092892     0.033884441852    12.000000000000
         C           -0.427483736015    -0.819195907108    -0.236172558148    12.000000000000
         C            0.298127263985     1.591517092892    -0.083708558148    12.000000000000
         C            1.883741263985     0.264963092892     1.039961441852    12.000000000000
         C           -2.064663736015     0.868649092892     0.337344441852    12.000000000000
         C           -1.448977736015    -1.782430907108    -0.230940558148    12.000000000000
         C            2.050807263985    -0.865418907108     0.044768441852    12.000000000000
         C           -0.094827736015     2.874373092892    -0.768859558148    12.000000000000
         C           -3.068328736015    -0.093318907108     0.362487441852    12.000000000000
         C           -2.759453736015    -1.424220907108     0.061800441852    12.000000000000
         H            0.943164463985    -1.898108007108    -1.045737858148     1.007825032230
         H            1.128718263985    -0.019586907108     1.789110441852     1.007825032230
         H            2.845775263985     0.410760092892     1.532410441852     1.007825032230
         H           -2.311780736015     1.903886092892     0.557551441852     1.007825032230
         H           -1.197282736015    -2.819724907108    -0.444524558148     1.007825032230
         H           -0.830927736015     3.430751092892    -0.178907558148     1.007825032230
         H           -0.540122736015     2.674801092892    -1.748365558148     1.007825032230
         H            0.796841263985     3.492405092892    -0.885345558148     1.007825032230
         H           -4.088159736015     0.190559092892     0.608410441852     1.007825032230
         H           -3.537195736015    -2.183810907108     0.067381441852     1.007825032230

  Basis Set: AUG-CC-PVTZ
    Blend: AUG-CC-PVTZ
  Basis Set: (AUG-CC-PVTZ AUX)
    Blend: AUG-CC-PVTZ-JKFIT
	 Reference Energy          =    -568.4228108360481428 [Eh]
	 Singles Energy            =      -0.0000000000000000 [Eh]
	 Same-Spin Energy          =      -0.6129007151957621 [Eh]
	 Opposite-Spin Energy      =      -1.8842578011157536 [Eh]
	 Correlation Energy        =      -2.4971585163115155 [Eh]
	 Total Energy              =    -570.9199693523596579 [Eh]

	 ================> DF-SCS-MP2 Energies <==================
	-----------------------------------------------------------
	 SCS Same-Spin Scale       =       0.3333333333333333 [-]
	 SCS Opposite-Spin Scale   =       1.2000000000000000 [-]
	 SCS Same-Spin Energy      =      -0.2043002383985874 [Eh]
	 SCS Opposite-Spin Energy  =      -2.2611093613389044 [Eh]
	 SCS Correlation Energy    =      -2.4654095997374919 [Eh]
	 SCS Total Energy          =    -570.8882204357856835 [Eh]
	-----------------------------------------------------------

  Dipole Moment: [D]
     X:    -5.1452      Y:    -0.0933      Z:     0.3401     Total:     5.1572

*** Psi4 exiting successfully. Buy a developer a beer!
