                               Psi4 1.3.2 release

  ==> Input File <==

--------------------------------------------------------------------------
#psi4
#
memory 32 gb

molecule  {
0 1
  O        3.1477550    -1.4485350    -0.2143050
  N        0.9062980    -1.2504610    -0.5893500
  N        1.5545360     1.4658350     0.3351760
  C       -0.6961080     0.5074870     0.0337420
  C       -0.4599248    -0.7773931    -0.2523254
  C        0.3345050     1.5654110    -0.0838510
  C        1.9201190     0.2388570     1.0398190
  C       -2.0282860     0.8425430     0.3372020
  C       -1.4126000    -1.8085370    -0.2310830
  C        2.0871850    -0.8915250     0.0446260
  C       -0.0584500     2.8482670    -0.7690020
  C       -3.0319510    -0.1194250     0.3623450
  C       -2.7230760    -1.4503270     0.0616580
  H        0.9974690    -2.0891180    -1.1576180
  H        1.1650960    -0.0456930     1.7889680
  H        2.8821530     0.3846540     1.5322680
  H       -2.2754030     1.8777800     0.5574090
  H       -1.1609050    -2.8458310    -0.4446670
  H       -0.7945500     3.4046450    -0.1790500
  H       -0.5037450     2.6486950    -1.7485080
  H        0.8332190     3.4662990    -0.8854880
  H       -4.0517820     0.1644530     0.6082680
  H       -3.5008180    -2.2099170     0.0672390
units angstrom
no_reorient  #important for SAPT in psi4, default
symmetry c1  #important for SAPT in psi4, default
}

set PROPERTIES_ORIGIN ["COM"]
properties('MP2/aug-cc-pvtz', properties = ['dipole'])
--------------------------------------------------------------------------

    Molecular point group: c1
  Charge       = 0
  Multiplicity = 1
  Basis Set: AUG-CC-PVTZ
    Blend: AUG-CC-PVTZ
  Basis Set: (AUG-CC-PVTZ AUX)
    Blend: AUG-CC-PVTZ-JKFIT

    Orbital Energies [Eh]
    ---------------------

    Doubly Occupied:

       1A    -20.525914     2A    -15.599746     3A    -15.568908
       4A    -11.356861     5A    -11.311386     6A    -11.304345
       7A    -11.268228     8A    -11.266583     9A    -11.265454
      10A    -11.261784    11A    -11.261757    12A    -11.256674
      13A    -11.235776    14A     -1.380329    15A     -1.266142
      16A     -1.223945    17A     -1.171057    18A     -1.071532
      19A     -1.035148    20A     -1.018098    21A     -0.950201
      22A     -0.883799    23A     -0.858217    24A     -0.790025
      25A     -0.772577    26A     -0.718247    27A     -0.688083
      28A     -0.674678    29A     -0.658870    30A     -0.654253
      31A     -0.627828    32A     -0.617505    33A     -0.596861
      34A     -0.586917    35A     -0.561953    36A     -0.560050
      37A     -0.545292    38A     -0.537062    39A     -0.531733
      40A     -0.522259    41A     -0.453574    42A     -0.434829
      43A     -0.418618    44A     -0.403603    45A     -0.359244
      46A     -0.341442

  @DF-RHF Final Energy:  -568.45660634665865

   => Energetics <=

    Nuclear Repulsion Energy =            761.0404832849523018
    One-Electron Energy =               -2282.1994086860577227
    Two-Electron Energy =                 952.7023190544468889
    Total Energy =                       -568.4566063466586456
  Basis Set: (AUG-CC-PVTZ AUX)
    Blend: AUG-CC-PVTZ-RI
    Molecular point group: c1

    Geometry (in Angstrom), charge = 0, multiplicity = 1:

       Center              X                  Y                   Z               Mass
    ------------   -----------------  -----------------  -----------------  -----------------
         O            3.116017439251    -1.426155441357    -0.212411994880    15.994914619570
         N            0.874560439251    -1.228081441357    -0.587456994880    14.003074004430
         N            1.522798439251     1.488214558643     0.337069005120    14.003074004430
         C           -0.727845560749     0.529866558643     0.035635005120    12.000000000000
         C           -0.491662360749    -0.755013541357    -0.250432394880    12.000000000000
         C            0.302767439251     1.587790558643    -0.081957994880    12.000000000000
         C            1.888381439251     0.261236558643     1.041712005120    12.000000000000
         C           -2.060023560749     0.864922558643     0.339095005120    12.000000000000
         C           -1.444337560749    -1.786157441357    -0.229189994880    12.000000000000
         C            2.055447439251    -0.869145441357     0.046519005120    12.000000000000
         C           -0.090187560749     2.870646558643    -0.767108994880    12.000000000000
         C           -3.063688560749    -0.097045441357     0.364238005120    12.000000000000
         C           -2.754813560749    -1.427947441357     0.063551005120    12.000000000000
         H            0.965731439251    -2.066738441357    -1.155724994880     1.007825032230
         H            1.133358439251    -0.023313441357     1.790861005120     1.007825032230
         H            2.850415439251     0.407033558643     1.534161005120     1.007825032230
         H           -2.307140560749     1.900159558643     0.559302005120     1.007825032230
         H           -1.192642560749    -2.823451441357    -0.442773994880     1.007825032230
         H           -0.826287560749     3.427024558643    -0.177156994880     1.007825032230
         H           -0.535482560749     2.671074558643    -1.746614994880     1.007825032230
         H            0.801481439251     3.488678558643    -0.883594994880     1.007825032230
         H           -4.083519560749     0.186832558643     0.610161005120     1.007825032230
         H           -3.532555560749    -2.187537441357     0.069132005120     1.007825032230

  Basis Set: AUG-CC-PVTZ
    Blend: AUG-CC-PVTZ
  Basis Set: (AUG-CC-PVTZ AUX)
    Blend: AUG-CC-PVTZ-JKFIT
	 Reference Energy          =    -568.4566063466586456 [Eh]
	 Singles Energy            =      -0.0000000000000000 [Eh]
	 Same-Spin Energy          =      -0.6137035970630054 [Eh]
	 Opposite-Spin Energy      =      -1.8870805634490297 [Eh]
	 Correlation Energy        =      -2.5007841605120351 [Eh]
	 Total Energy              =    -570.9573905071706577 [Eh]

	 ================> DF-SCS-MP2 Energies <==================
	-----------------------------------------------------------
	 SCS Same-Spin Scale       =       0.3333333333333333 [-]
	 SCS Opposite-Spin Scale   =       1.2000000000000000 [-]
	 SCS Same-Spin Energy      =      -0.2045678656876684 [Eh]
	 SCS Opposite-Spin Energy  =      -2.2644966761388354 [Eh]
	 SCS Correlation Energy    =      -2.4690645418265040 [Eh]
	 SCS Total Energy          =    -570.9256708884851150 [Eh]
	-----------------------------------------------------------

  Dipole Moment: [D]
     X:    -5.4957      Y:    -0.1028      Z:     0.2823     Total:     5.5039

*** Psi4 exiting successfully. Buy a developer a beer!
