                               Psi4 1.3.2 release

  ==> Input File <==

--------------------------------------------------------------------------
#psi4
#
memory 32 gb

molecule  {
0 1
  O        3.1477550    -1.4485350    -0.2143050
  N        0.9062980    -1.2504610    -0.5893500
  N        1.5545360     1.4658350     0.3351760
  C       -0.6961080     0.5074870     0.0337420
  C       -0.3911060    -0.8453020    -0.2363150
  C        0.3345050     1.5654110    -0.0838510
  C        1.9201190     0.2388570     1.0398190
  C       -2.0282860     0.8425430     0.3372020
  C       -1.4126000    -1.8085370    -0.2310830
  C        2.2602534    -0.9824203     0.0023725
  C       -0.0584500     2.8482670    -0.7690020
  C       -3.0319510    -0.1194250     0.3623450
  C       -2.7230760    -1.4503270     0.0616580
  H        0.9974690    -2.0891180    -1.1576180
  H        1.1650960    -0.0456930     1.7889680
  H        2.8821530     0.3846540     1.5322680
  H       -2.2754030     1.8777800     0.5574090
  H       -1.1609050    -2.8458310    -0.4446670
  H       -0.7945500     3.4046450    -0.1790500
  H       -0.5037450     2.6486950    -1.7485080
  H        0.8332190     3.4662990    -0.8854880
  H       -4.0517820     0.1644530     0.6082680
  H       -3.5008180    -2.2099170     0.0672390
units angstrom
no_reorient  #important for SAPT in psi4, default
symmetry c1  #important for SAPT in psi4, default
}

set PROPERTIES_ORIGIN ["COM"]
properties('MP2/aug-cc-pvtz', properties = ['dipole'])
--------------------------------------------------------------------------

    Molecular point group: c1
  Charge       = 0
  Multiplicity = 1
  Basis Set: AUG-CC-PVTZ
    Blend: AUG-CC-PVTZ
  Basis Set: (AUG-CC-PVTZ AUX)
    Blend: AUG-CC-PVTZ-JKFIT

    Orbital Energies [Eh]
    ---------------------

    Doubly Occupied:

       1A    -20.574850     2A    -15.577920     3A    -15.558258
       4A    -11.356821     5A    -11.303743     6A    -11.292417
       7A    -11.259778     8A    -11.256335     9A    -11.255337
      10A    -11.252794    11A    -11.245974    12A    -11.242363
      13A    -11.227179    14A     -1.555598    15A     -1.254926
      16A     -1.213820    17A     -1.148801    18A     -1.052616
      19A     -1.018383    20A     -0.996986    21A     -0.930223
      22A     -0.869315    23A     -0.845776    24A     -0.776227
      25A     -0.759149    26A     -0.719534    27A     -0.715172
      28A     -0.694730    29A     -0.676477    30A     -0.642632
      31A     -0.636637    32A     -0.628421    33A     -0.611999
      34A     -0.606855    35A     -0.579908    36A     -0.550275
      37A     -0.536666    38A     -0.533738    39A     -0.528026
      40A     -0.507367    41A     -0.459603    42A     -0.447070
      43A     -0.408139    44A     -0.384578    45A     -0.342023
      46A     -0.317451

  @DF-RHF Final Energy:  -568.38783883019471

   => Energetics <=

    Nuclear Repulsion Energy =            759.8961036825244264
    One-Electron Energy =               -2279.8621012714165772
    Two-Electron Energy =                 951.5781587586974410
    Total Energy =                       -568.3878388301947098
  Basis Set: (AUG-CC-PVTZ AUX)
    Blend: AUG-CC-PVTZ-RI
    Molecular point group: c1

    Geometry (in Angstrom), charge = 0, multiplicity = 1:

       Center              X                  Y                   Z               Mass
    ------------   -----------------  -----------------  -----------------  -----------------
         O            3.099343163883    -1.415208417453    -0.210602950516    15.994914619570
         N            0.857886163883    -1.217134417453    -0.585647950516    14.003074004430
         N            1.506124163883     1.499161582547     0.338878049484    14.003074004430
         C           -0.744519836117     0.540813582547     0.037444049484    12.000000000000
         C           -0.439517836117    -0.811975417453    -0.232612950516    12.000000000000
         C            0.286093163883     1.598737582547    -0.080148950516    12.000000000000
         C            1.871707163883     0.272183582547     1.043521049484    12.000000000000
         C           -2.076697836117     0.875869582547     0.340904049484    12.000000000000
         C           -1.461011836117    -1.775210417453    -0.227380950516    12.000000000000
         C            2.211841563883    -0.949093717453     0.006074549484    12.000000000000
         C           -0.106861836117     2.881593582547    -0.765299950516    12.000000000000
         C           -3.080362836117    -0.086098417453     0.366047049484    12.000000000000
         C           -2.771487836117    -1.417000417453     0.065360049484    12.000000000000
         H            0.949057163883    -2.055791417453    -1.153915950516     1.007825032230
         H            1.116684163883    -0.012366417453     1.792670049484     1.007825032230
         H            2.833741163883     0.417980582547     1.535970049484     1.007825032230
         H           -2.323814836117     1.911106582547     0.561111049484     1.007825032230
         H           -1.209316836117    -2.812504417453    -0.440964950516     1.007825032230
         H           -0.842961836117     3.437971582547    -0.175347950516     1.007825032230
         H           -0.552156836117     2.682021582547    -1.744805950516     1.007825032230
         H            0.784807163883     3.499625582547    -0.881785950516     1.007825032230
         H           -4.100193836117     0.197779582547     0.611970049484     1.007825032230
         H           -3.549229836117    -2.176590417453     0.070941049484     1.007825032230

  Basis Set: AUG-CC-PVTZ
    Blend: AUG-CC-PVTZ
  Basis Set: (AUG-CC-PVTZ AUX)
    Blend: AUG-CC-PVTZ-JKFIT
	 Reference Energy          =    -568.3878388301947098 [Eh]
	 Singles Energy            =      -0.0000000000000000 [Eh]
	 Same-Spin Energy          =      -0.6115360516371486 [Eh]
	 Opposite-Spin Energy      =      -1.8804917262199543 [Eh]
	 Correlation Energy        =      -2.4920277778571029 [Eh]
	 Total Energy              =    -570.8798666080517705 [Eh]

	 ================> DF-SCS-MP2 Energies <==================
	-----------------------------------------------------------
	 SCS Same-Spin Scale       =       0.3333333333333333 [-]
	 SCS Opposite-Spin Scale   =       1.2000000000000000 [-]
	 SCS Same-Spin Energy      =      -0.2038453505457162 [Eh]
	 SCS Opposite-Spin Energy  =      -2.2565900714639451 [Eh]
	 SCS Correlation Energy    =      -2.4604354220096614 [Eh]
	 SCS Total Energy          =    -570.8482742522044191 [Eh]
	-----------------------------------------------------------

  Dipole Moment: [D]
     X:    -2.9143      Y:    -1.0454      Z:     0.1023     Total:     3.0978

*** Psi4 exiting successfully. Buy a developer a beer!
