                               Psi4 1.3.2 release

  ==> Input File <==

--------------------------------------------------------------------------
#psi4
#
memory 32 gb

molecule  {
0 1
  O        3.1477550    -1.4485350    -0.2143050
  N        0.9062980    -1.2504610    -0.5893500
  N        1.5545360     1.4658350     0.3351760
  C       -0.6961080     0.5074870     0.0337420
  C       -0.3678698    -0.8388194    -0.2414192
  C        0.3345050     1.5654110    -0.0838510
  C        1.9201190     0.2388570     1.0398190
  C       -2.0282860     0.8425430     0.3372020
  C       -1.4126000    -1.8085370    -0.2310830
  C        2.0871850    -0.8915250     0.0446260
  C       -0.0584500     2.8482670    -0.7690020
  C       -3.0319510    -0.1194250     0.3623450
  C       -2.7230760    -1.4503270     0.0616580
  H        0.9974690    -2.0891180    -1.1576180
  H        1.1650960    -0.0456930     1.7889680
  H        2.8821530     0.3846540     1.5322680
  H       -2.2754030     1.8777800     0.5574090
  H       -1.1609050    -2.8458310    -0.4446670
  H       -0.7945500     3.4046450    -0.1790500
  H       -0.5037450     2.6486950    -1.7485080
  H        0.8332190     3.4662990    -0.8854880
  H       -4.0517820     0.1644530     0.6082680
  H       -3.5008180    -2.2099170     0.0672390
units angstrom
no_reorient  #important for SAPT in psi4, default
symmetry c1  #important for SAPT in psi4, default
}

set PROPERTIES_ORIGIN ["COM"]
properties('MP2/aug-cc-pvtz', properties = ['dipole'])
--------------------------------------------------------------------------

    Molecular point group: c1
  Charge       = 0
  Multiplicity = 1
  Basis Set: AUG-CC-PVTZ
    Blend: AUG-CC-PVTZ
  Basis Set: (AUG-CC-PVTZ AUX)
    Blend: AUG-CC-PVTZ-JKFIT

    Orbital Energies [Eh]
    ---------------------

    Doubly Occupied:

       1A    -20.533784     2A    -15.609159     3A    -15.566678
       4A    -11.363888     5A    -11.315623     6A    -11.301789
       7A    -11.267488     8A    -11.266234     9A    -11.264918
      10A    -11.264780    11A    -11.259469    12A    -11.252960
      13A    -11.233839    14A     -1.389471    15A     -1.280723
      16A     -1.234515    17A     -1.162713    18A     -1.065053
      19A     -1.032725    20A     -1.010949    21A     -0.952092
      22A     -0.885661    23A     -0.859717    24A     -0.796359
      25A     -0.767579    26A     -0.731535    27A     -0.692754
      28A     -0.678561    29A     -0.657465    30A     -0.647789
      31A     -0.624937    32A     -0.618561    33A     -0.606083
      34A     -0.586303    35A     -0.568308    36A     -0.558623
      37A     -0.542921    38A     -0.539490    39A     -0.527022
      40A     -0.513726    41A     -0.458714    42A     -0.446650
      43A     -0.416943    44A     -0.405558    45A     -0.354539
      46A     -0.329470

  @DF-RHF Final Energy:  -568.46455822110545

   => Energetics <=

    Nuclear Repulsion Energy =            760.8566652785561928
    One-Electron Energy =               -2281.7542099729007532
    Two-Electron Energy =                 952.4329864732391115
    Total Energy =                       -568.4645582211054489
  Basis Set: (AUG-CC-PVTZ AUX)
    Blend: AUG-CC-PVTZ-RI
    Molecular point group: c1

    Geometry (in Angstrom), charge = 0, multiplicity = 1:

       Center              X                  Y                   Z               Mass
    ------------   -----------------  -----------------  -----------------  -----------------
         O            3.109671711081    -1.421921074920    -0.213163803913    15.994914619570
         N            0.868214711081    -1.223847074920    -0.588208803913    14.003074004430
         N            1.516452711081     1.492448925080     0.336317196087    14.003074004430
         C           -0.734191288919     0.534100925080     0.034883196087    12.000000000000
         C           -0.405953088919    -0.812205474920    -0.240278003913    12.000000000000
         C            0.296421711081     1.592024925080    -0.082709803913    12.000000000000
         C            1.882035711081     0.265470925080     1.040960196087    12.000000000000
         C           -2.066369288919     0.869156925080     0.338343196087    12.000000000000
         C           -1.450683288919    -1.781923074920    -0.229941803913    12.000000000000
         C            2.049101711081    -0.864911074920     0.045767196087    12.000000000000
         C           -0.096533288919     2.874880925080    -0.767860803913    12.000000000000
         C           -3.070034288919    -0.092811074920     0.363486196087    12.000000000000
         C           -2.761159288919    -1.423713074920     0.062799196087    12.000000000000
         H            0.959385711081    -2.062504074920    -1.156476803913     1.007825032230
         H            1.127012711081    -0.019079074920     1.790109196087     1.007825032230
         H            2.844069711081     0.411267925080     1.533409196087     1.007825032230
         H           -2.313486288919     1.904393925080     0.558550196087     1.007825032230
         H           -1.198988288919    -2.819217074920    -0.443525803913     1.007825032230
         H           -0.832633288919     3.431258925080    -0.177908803913     1.007825032230
         H           -0.541828288919     2.675308925080    -1.747366803913     1.007825032230
         H            0.795135711081     3.492912925080    -0.884346803913     1.007825032230
         H           -4.089865288919     0.191066925080     0.609409196087     1.007825032230
         H           -3.538901288919    -2.183303074920     0.068380196087     1.007825032230

  Basis Set: AUG-CC-PVTZ
    Blend: AUG-CC-PVTZ
  Basis Set: (AUG-CC-PVTZ AUX)
    Blend: AUG-CC-PVTZ-JKFIT
	 Reference Energy          =    -568.4645582211054489 [Eh]
	 Singles Energy            =      -0.0000000000000000 [Eh]
	 Same-Spin Energy          =      -0.6146629738639301 [Eh]
	 Opposite-Spin Energy      =      -1.8873832104556119 [Eh]
	 Correlation Energy        =      -2.5020461843195418 [Eh]
	 Total Energy              =    -570.9666044054249596 [Eh]

	 ================> DF-SCS-MP2 Energies <==================
	-----------------------------------------------------------
	 SCS Same-Spin Scale       =       0.3333333333333333 [-]
	 SCS Opposite-Spin Scale   =       1.2000000000000000 [-]
	 SCS Same-Spin Energy      =      -0.2048876579546434 [Eh]
	 SCS Opposite-Spin Energy  =      -2.2648598525467341 [Eh]
	 SCS Correlation Energy    =      -2.4697475105013775 [Eh]
	 SCS Total Energy          =    -570.9343057316068553 [Eh]
	-----------------------------------------------------------

  Dipole Moment: [D]
     X:    -5.0112      Y:    -0.2709      Z:     0.2051     Total:     5.0227

*** Psi4 exiting successfully. Buy a developer a beer!
