                               Psi4 1.3.2 release

  ==> Input File <==

--------------------------------------------------------------------------
#psi4
#
memory 32 gb

molecule  {
0 1
  O        3.1477550    -1.4485350    -0.2143050
  N        0.9062980    -1.2504610    -0.5893500
  N        1.5582301     1.4127272     0.2481670
  C       -0.6961080     0.5074870     0.0337420
  C       -0.3911060    -0.8453020    -0.2363150
  C        0.3345050     1.5654110    -0.0838510
  C        1.9201190     0.2388570     1.0398190
  C       -2.0282860     0.8425430     0.3372020
  C       -1.4126000    -1.8085370    -0.2310830
  C        2.0871850    -0.8915250     0.0446260
  C       -0.0584500     2.8482670    -0.7690020
  C       -3.0319510    -0.1194250     0.3623450
  C       -2.7230760    -1.4503270     0.0616580
  H        0.9974690    -2.0891180    -1.1576180
  H        1.1650960    -0.0456930     1.7889680
  H        2.8821530     0.3846540     1.5322680
  H       -2.2754030     1.8777800     0.5574090
  H       -1.1609050    -2.8458310    -0.4446670
  H       -0.7945500     3.4046450    -0.1790500
  H       -0.5037450     2.6486950    -1.7485080
  H        0.8332190     3.4662990    -0.8854880
  H       -4.0517820     0.1644530     0.6082680
  H       -3.5008180    -2.2099170     0.0672390
units angstrom
no_reorient  #important for SAPT in psi4, default
symmetry c1  #important for SAPT in psi4, default
}

set PROPERTIES_ORIGIN ["COM"]
properties('MP2/aug-cc-pvtz', properties = ['dipole'])
--------------------------------------------------------------------------

    Molecular point group: c1
  Charge       = 0
  Multiplicity = 1
  Basis Set: AUG-CC-PVTZ
    Blend: AUG-CC-PVTZ
  Basis Set: (AUG-CC-PVTZ AUX)
    Blend: AUG-CC-PVTZ-JKFIT

    Orbital Energies [Eh]
    ---------------------

    Doubly Occupied:

       1A    -20.530463     2A    -15.606273     3A    -15.564215
       4A    -11.361050     5A    -11.313886     6A    -11.299707
       7A    -11.268672     8A    -11.265677     9A    -11.264953
      10A    -11.264283    11A    -11.257734    12A    -11.252970
      13A    -11.233913    14A     -1.386365    15A     -1.277503
      16A     -1.236341    17A     -1.163994    18A     -1.065109
      19A     -1.035042    20A     -1.011309    21A     -0.953377
      22A     -0.884365    23A     -0.857274    24A     -0.794823
      25A     -0.765981    26A     -0.729098    27A     -0.691104
      28A     -0.680240    29A     -0.656567    30A     -0.649621
      31A     -0.625557    32A     -0.618933    33A     -0.603244
      34A     -0.586028    35A     -0.566561    36A     -0.558536
      37A     -0.545636    38A     -0.539398    39A     -0.527227
      40A     -0.516283    41A     -0.457284    42A     -0.443840
      43A     -0.421855    44A     -0.399859    45A     -0.354123
      46A     -0.331777

  @DF-RHF Final Energy:  -568.46487548013272

   => Energetics <=

    Nuclear Repulsion Energy =            761.9208512697442757
    One-Electron Energy =               -2283.9353450059352326
    Two-Electron Energy =                 953.5496182560583520
    Total Energy =                       -568.4648754801327186
  Basis Set: (AUG-CC-PVTZ AUX)
    Blend: AUG-CC-PVTZ-RI
    Molecular point group: c1

    Geometry (in Angstrom), charge = 0, multiplicity = 1:

       Center              X                  Y                   Z               Mass
    ------------   -----------------  -----------------  -----------------  -----------------
         O            3.110976321264    -1.417202170418    -0.206516586352    15.994914619570
         N            0.869519321264    -1.219128170418    -0.581561586352    14.003074004430
         N            1.521451421264     1.444060029582     0.255955413648    14.003074004430
         C           -0.732886678736     0.538819829582     0.041530413648    12.000000000000
         C           -0.427884678736    -0.813969170418    -0.228526586352    12.000000000000
         C            0.297726321264     1.596743829582    -0.076062586352    12.000000000000
         C            1.883340321264     0.270189829582     1.047607413648    12.000000000000
         C           -2.065064678736     0.873875829582     0.344990413648    12.000000000000
         C           -1.449378678736    -1.777204170418    -0.223294586352    12.000000000000
         C            2.050406321264    -0.860192170418     0.052414413648    12.000000000000
         C           -0.095228678736     2.879599829582    -0.761213586352    12.000000000000
         C           -3.068729678736    -0.088092170418     0.370133413648    12.000000000000
         C           -2.759854678736    -1.418994170418     0.069446413648    12.000000000000
         H            0.960690321264    -2.057785170418    -1.149829586352     1.007825032230
         H            1.128317321264    -0.014360170418     1.796756413648     1.007825032230
         H            2.845374321264     0.415986829582     1.540056413648     1.007825032230
         H           -2.312181678736     1.909112829582     0.565197413648     1.007825032230
         H           -1.197683678736    -2.814498170418    -0.436878586352     1.007825032230
         H           -0.831328678736     3.435977829582    -0.171261586352     1.007825032230
         H           -0.540523678736     2.680027829582    -1.740719586352     1.007825032230
         H            0.796440321264     3.497631829582    -0.877699586352     1.007825032230
         H           -4.088560678736     0.195785829582     0.616056413648     1.007825032230
         H           -3.537596678736    -2.178584170418     0.075027413648     1.007825032230

  Basis Set: AUG-CC-PVTZ
    Blend: AUG-CC-PVTZ
  Basis Set: (AUG-CC-PVTZ AUX)
    Blend: AUG-CC-PVTZ-JKFIT
	 Reference Energy          =    -568.4648754801327186 [Eh]
	 Singles Energy            =      -0.0000000000000000 [Eh]
	 Same-Spin Energy          =      -0.6144328809683866 [Eh]
	 Opposite-Spin Energy      =      -1.8865508135204647 [Eh]
	 Correlation Energy        =      -2.5009836944888511 [Eh]
	 Total Energy              =    -570.9658591746215279 [Eh]

	 ================> DF-SCS-MP2 Energies <==================
	-----------------------------------------------------------
	 SCS Same-Spin Scale       =       0.3333333333333333 [-]
	 SCS Opposite-Spin Scale   =       1.2000000000000000 [-]
	 SCS Same-Spin Energy      =      -0.2048109603227955 [Eh]
	 SCS Opposite-Spin Energy  =      -2.2638609762245574 [Eh]
	 SCS Correlation Energy    =      -2.4686719365473531 [Eh]
	 SCS Total Energy          =    -570.9335474166800850 [Eh]
	-----------------------------------------------------------

  Dipole Moment: [D]
     X:    -5.0901      Y:    -0.1515      Z:     0.3827     Total:     5.1067

*** Psi4 exiting successfully. Buy a developer a beer!
