                               Psi4 1.3.2 release

  ==> Input File <==

--------------------------------------------------------------------------
#psi4
#
memory 32 gb

molecule  {
0 1
  O        3.1477550    -1.4485350    -0.2143050
  N        0.9062980    -1.2504610    -0.5893500
  N        1.5545360     1.4658350     0.3351760
  C       -0.6961080     0.5074870     0.0337420
  C       -0.3911060    -0.8453020    -0.2363150
  C        0.2402083     1.5731073    -0.1162378
  C        1.9201190     0.2388570     1.0398190
  C       -2.0282860     0.8425430     0.3372020
  C       -1.4126000    -1.8085370    -0.2310830
  C        2.0871850    -0.8915250     0.0446260
  C       -0.0584500     2.8482670    -0.7690020
  C       -3.0319510    -0.1194250     0.3623450
  C       -2.7230760    -1.4503270     0.0616580
  H        0.9974690    -2.0891180    -1.1576180
  H        1.1650960    -0.0456930     1.7889680
  H        2.8821530     0.3846540     1.5322680
  H       -2.2754030     1.8777800     0.5574090
  H       -1.1609050    -2.8458310    -0.4446670
  H       -0.7945500     3.4046450    -0.1790500
  H       -0.5037450     2.6486950    -1.7485080
  H        0.8332190     3.4662990    -0.8854880
  H       -4.0517820     0.1644530     0.6082680
  H       -3.5008180    -2.2099170     0.0672390
units angstrom
no_reorient  #important for SAPT in psi4, default
symmetry c1  #important for SAPT in psi4, default
}

set PROPERTIES_ORIGIN ["COM"]
properties('MP2/aug-cc-pvtz', properties = ['dipole'])
--------------------------------------------------------------------------

    Molecular point group: c1
  Charge       = 0
  Multiplicity = 1
  Basis Set: AUG-CC-PVTZ
    Blend: AUG-CC-PVTZ
  Basis Set: (AUG-CC-PVTZ AUX)
    Blend: AUG-CC-PVTZ-JKFIT

    Orbital Energies [Eh]
    ---------------------

    Doubly Occupied:

       1A    -20.530231     2A    -15.607304     3A    -15.570132
       4A    -11.360339     5A    -11.318951     6A    -11.309229
       7A    -11.268853     8A    -11.268676     9A    -11.265481
      10A    -11.262296    11A    -11.260479    12A    -11.255415
      13A    -11.236181    14A     -1.385575    15A     -1.273056
      16A     -1.208023    17A     -1.166587    18A     -1.074989
      19A     -1.036400    20A     -1.016254    21A     -0.940453
      22A     -0.893664    23A     -0.860544    24A     -0.796241
      25A     -0.771023    26A     -0.731529    27A     -0.687606
      28A     -0.674872    29A     -0.658565    30A     -0.649908
      31A     -0.628083    32A     -0.617322    33A     -0.601238
      34A     -0.591335    35A     -0.567257    36A     -0.566014
      37A     -0.543903    38A     -0.535860    39A     -0.527809
      40A     -0.517503    41A     -0.449553    42A     -0.443946
      43A     -0.417480    44A     -0.395409    45A     -0.347104
      46A     -0.332453

  @DF-RHF Final Energy:  -568.44260142028929

   => Energetics <=

    Nuclear Repulsion Energy =            760.4203707872201221
    One-Electron Energy =               -2280.8836953496124806
    Two-Electron Energy =                 952.0207231421029519
    Total Energy =                       -568.4426014202892929
  Basis Set: (AUG-CC-PVTZ AUX)
    Blend: AUG-CC-PVTZ-RI
    Molecular point group: c1

    Geometry (in Angstrom), charge = 0, multiplicity = 1:

       Center              X                  Y                   Z               Mass
    ------------   -----------------  -----------------  -----------------  -----------------
         O            3.117773735245    -1.422004740232    -0.211283102557    15.994914619570
         N            0.876316735245    -1.223930740232    -0.586328102557    14.003074004430
         N            1.524554735245     1.492365259768     0.338197897443    14.003074004430
         C           -0.726089264755     0.534017259768     0.036763897443    12.000000000000
         C           -0.421087264755    -0.818771740232    -0.233293102557    12.000000000000
         C            0.210227035245     1.599637559768    -0.113215902557    12.000000000000
         C            1.890137735245     0.265387259768     1.042840897443    12.000000000000
         C           -2.058267264755     0.869073259768     0.340223897443    12.000000000000
         C           -1.442581264755    -1.782006740232    -0.228061102557    12.000000000000
         C            2.057203735245    -0.864994740232     0.047647897443    12.000000000000
         C           -0.088431264755     2.874797259768    -0.765980102557    12.000000000000
         C           -3.061932264755    -0.092894740232     0.365366897443    12.000000000000
         C           -2.753057264755    -1.423796740232     0.064679897443    12.000000000000
         H            0.967487735245    -2.062587740232    -1.154596102557     1.007825032230
         H            1.135114735245    -0.019162740232     1.791989897443     1.007825032230
         H            2.852171735245     0.411184259768     1.535289897443     1.007825032230
         H           -2.305384264755     1.904310259768     0.560430897443     1.007825032230
         H           -1.190886264755    -2.819300740232    -0.441645102557     1.007825032230
         H           -0.824531264755     3.431175259768    -0.176028102557     1.007825032230
         H           -0.533726264755     2.675225259768    -1.745486102557     1.007825032230
         H            0.803237735245     3.492829259768    -0.882466102557     1.007825032230
         H           -4.081763264755     0.190983259768     0.611289897443     1.007825032230
         H           -3.530799264755    -2.183386740232     0.070260897443     1.007825032230

  Basis Set: AUG-CC-PVTZ
    Blend: AUG-CC-PVTZ
  Basis Set: (AUG-CC-PVTZ AUX)
    Blend: AUG-CC-PVTZ-JKFIT
	 Reference Energy          =    -568.4426014202892929 [Eh]
	 Singles Energy            =      -0.0000000000000000 [Eh]
	 Same-Spin Energy          =      -0.6181812071160473 [Eh]
	 Opposite-Spin Energy      =      -1.8936034132847603 [Eh]
	 Correlation Energy        =      -2.5117846204008076 [Eh]
	 Total Energy              =    -570.9543860406901103 [Eh]

	 ================> DF-SCS-MP2 Energies <==================
	-----------------------------------------------------------
	 SCS Same-Spin Scale       =       0.3333333333333333 [-]
	 SCS Opposite-Spin Scale   =       1.2000000000000000 [-]
	 SCS Same-Spin Energy      =      -0.2060604023720158 [Eh]
	 SCS Opposite-Spin Energy  =      -2.2723240959417121 [Eh]
	 SCS Correlation Energy    =      -2.4783844983137278 [Eh]
	 SCS Total Energy          =    -570.9209859186030371 [Eh]
	-----------------------------------------------------------

  Dipole Moment: [D]
     X:    -5.2688      Y:    -0.2615      Z:     0.1519     Total:     5.2774

*** Psi4 exiting successfully. Buy a developer a beer!
