                               Psi4 1.3.2 release

  ==> Input File <==

--------------------------------------------------------------------------
#psi4
#
memory 32 gb

molecule  {
0 1
  O        3.1477550    -1.4485350    -0.2143050
  N        0.9062980    -1.2504610    -0.5893500
  N        1.5545360     1.4658350     0.3351760
  C       -0.6961080     0.5074870     0.0337420
  C       -0.4946835    -0.7464903    -0.2030597
  C        0.3345050     1.5654110    -0.0838510
  C        1.9201190     0.2388570     1.0398190
  C       -2.0282860     0.8425430     0.3372020
  C       -1.4126000    -1.8085370    -0.2310830
  C        2.0871850    -0.8915250     0.0446260
  C       -0.0584500     2.8482670    -0.7690020
  C       -3.0319510    -0.1194250     0.3623450
  C       -2.7230760    -1.4503270     0.0616580
  H        0.9974690    -2.0891180    -1.1576180
  H        1.1650960    -0.0456930     1.7889680
  H        2.8821530     0.3846540     1.5322680
  H       -2.2754030     1.8777800     0.5574090
  H       -1.1609050    -2.8458310    -0.4446670
  H       -0.7945500     3.4046450    -0.1790500
  H       -0.5037450     2.6486950    -1.7485080
  H        0.8332190     3.4662990    -0.8854880
  H       -4.0517820     0.1644530     0.6082680
  H       -3.5008180    -2.2099170     0.0672390
units angstrom
no_reorient  #important for SAPT in psi4, default
symmetry c1  #important for SAPT in psi4, default
}

set PROPERTIES_ORIGIN ["COM"]
properties('MP2/aug-cc-pvtz', properties = ['dipole'])
--------------------------------------------------------------------------

    Molecular point group: c1
  Charge       = 0
  Multiplicity = 1
  Basis Set: AUG-CC-PVTZ
    Blend: AUG-CC-PVTZ
  Basis Set: (AUG-CC-PVTZ AUX)
    Blend: AUG-CC-PVTZ-JKFIT

    Orbital Energies [Eh]
    ---------------------

    Doubly Occupied:

       1A    -20.521955     2A    -15.594583     3A    -15.569949
       4A    -11.352521     5A    -11.309780     6A    -11.305725
       7A    -11.269653     8A    -11.267609     9A    -11.264473
      10A    -11.264106    11A    -11.258796    12A    -11.258315
      13A    -11.236766    14A     -1.376087    15A     -1.264132
      16A     -1.218374    17A     -1.173872    18A     -1.076166
      19A     -1.035134    20A     -1.022240    21A     -0.949316
      22A     -0.883786    23A     -0.858470    24A     -0.786352
      25A     -0.775083    26A     -0.715299    27A     -0.684653
      28A     -0.673119    29A     -0.665170    30A     -0.652660
      31A     -0.627935    32A     -0.616577    33A     -0.592790
      34A     -0.587012    35A     -0.560755    36A     -0.559324
      37A     -0.547681    38A     -0.535152    39A     -0.531748
      40A     -0.524978    41A     -0.450847    42A     -0.429168
      43A     -0.419445    44A     -0.402152    45A     -0.362975
      46A     -0.345812

  @DF-RHF Final Energy:  -568.44078690662491

   => Energetics <=

    Nuclear Repulsion Energy =            761.4146818094030778
    One-Electron Energy =               -2282.9539442971131393
    Two-Electron Energy =                 953.0984755810850402
    Total Energy =                       -568.4407869066249077
  Basis Set: (AUG-CC-PVTZ AUX)
    Blend: AUG-CC-PVTZ-RI
    Molecular point group: c1

    Geometry (in Angstrom), charge = 0, multiplicity = 1:

       Center              X                  Y                   Z               Mass
    ------------   -----------------  -----------------  -----------------  -----------------
         O            3.118413498800    -1.428285697926    -0.215808081353    15.994914619570
         N            0.876956498800    -1.230211697926    -0.590853081353    14.003074004430
         N            1.525194498800     1.486084302074     0.333672918647    14.003074004430
         C           -0.725449501200     0.527736302074     0.032238918647    12.000000000000
         C           -0.524025001200    -0.726240997926    -0.204562781353    12.000000000000
         C            0.305163498800     1.585660302074    -0.085354081353    12.000000000000
         C            1.890777498800     0.259106302074     1.038315918647    12.000000000000
         C           -2.057627501200     0.862792302074     0.335698918647    12.000000000000
         C           -1.441941501200    -1.788287697926    -0.232586081353    12.000000000000
         C            2.057843498800    -0.871275697926     0.043122918647    12.000000000000
         C           -0.087791501200     2.868516302074    -0.770505081353    12.000000000000
         C           -3.061292501200    -0.099175697926     0.360841918647    12.000000000000
         C           -2.752417501200    -1.430077697926     0.060154918647    12.000000000000
         H            0.968127498800    -2.068868697926    -1.159121081353     1.007825032230
         H            1.135754498800    -0.025443697926     1.787464918647     1.007825032230
         H            2.852811498800     0.404903302074     1.530764918647     1.007825032230
         H           -2.304744501200     1.898029302074     0.555905918647     1.007825032230
         H           -1.190246501200    -2.825581697926    -0.446170081353     1.007825032230
         H           -0.823891501200     3.424894302074    -0.180553081353     1.007825032230
         H           -0.533086501200     2.668944302074    -1.750011081353     1.007825032230
         H            0.803877498800     3.486548302074    -0.886991081353     1.007825032230
         H           -4.081123501200     0.184702302074     0.606764918647     1.007825032230
         H           -3.530159501200    -2.189667697926     0.065735918647     1.007825032230

  Basis Set: AUG-CC-PVTZ
    Blend: AUG-CC-PVTZ
  Basis Set: (AUG-CC-PVTZ AUX)
    Blend: AUG-CC-PVTZ-JKFIT
	 Reference Energy          =    -568.4407869066249077 [Eh]
	 Singles Energy            =      -0.0000000000000000 [Eh]
	 Same-Spin Energy          =      -0.6135466034762578 [Eh]
	 Opposite-Spin Energy      =      -1.8876072954046068 [Eh]
	 Correlation Energy        =      -2.5011538988808644 [Eh]
	 Total Energy              =    -570.9419408055057374 [Eh]

	 ================> DF-SCS-MP2 Energies <==================
	-----------------------------------------------------------
	 SCS Same-Spin Scale       =       0.3333333333333333 [-]
	 SCS Opposite-Spin Scale   =       1.2000000000000000 [-]
	 SCS Same-Spin Energy      =      -0.2045155344920859 [Eh]
	 SCS Opposite-Spin Energy  =      -2.2651287544855281 [Eh]
	 SCS Correlation Energy    =      -2.4696442889776140 [Eh]
	 SCS Total Energy          =    -570.9104311956025413 [Eh]
	-----------------------------------------------------------

  Dipole Moment: [D]
     X:    -5.7336      Y:    -0.0263      Z:     0.3257     Total:     5.7429

*** Psi4 exiting successfully. Buy a developer a beer!
