                               Psi4 1.4a3.dev225

  ==> Input File <==

--------------------------------------------------------------------------
#psi4
#
memory 32 gb

molecule  {
0 1
  O        3.1477550    -1.4485350    -0.2143050
  N        0.9062980    -1.2504610    -0.5893500
  N        1.5545360     1.4658350     0.3351760
  C       -0.6961080     0.5074870     0.0337420
  C       -0.3911060    -0.8453020    -0.2363150
  C        0.3345050     1.5654110    -0.0838510
  C        1.9201190     0.2388570     1.0398190
  C       -2.0282860     0.8425430     0.3372020
  C       -1.4126000    -1.8085370    -0.2310830
  C        2.1297384    -0.8785907     0.0674714
  C       -0.0584500     2.8482670    -0.7690020
  C       -3.0319510    -0.1194250     0.3623450
  C       -2.7230760    -1.4503270     0.0616580
  H        0.9974690    -2.0891180    -1.1576180
  H        1.1650960    -0.0456930     1.7889680
  H        2.8821530     0.3846540     1.5322680
  H       -2.2754030     1.8777800     0.5574090
  H       -1.1609050    -2.8458310    -0.4446670
  H       -0.7945500     3.4046450    -0.1790500
  H       -0.5037450     2.6486950    -1.7485080
  H        0.8332190     3.4662990    -0.8854880
  H       -4.0517820     0.1644530     0.6082680
  H       -3.5008180    -2.2099170     0.0672390
units angstrom
no_reorient  #important for SAPT in psi4, default
symmetry c1  #important for SAPT in psi4, default
}

set PROPERTIES_ORIGIN ["COM"]
properties('MP2/aug-cc-pvtz', properties = ['dipole'])
--------------------------------------------------------------------------

    Molecular point group: c1
  Charge       = 0
  Multiplicity = 1
  Basis Set: AUG-CC-PVTZ
    Blend: AUG-CC-PVTZ
  Basis Set: (AUG-CC-PVTZ AUX)
    Blend: AUG-CC-PVTZ-JKFIT

    Orbital Energies [Eh]
    ---------------------

    Doubly Occupied:

       1A    -20.542171     2A    -15.598765     3A    -15.566880
       4A    -11.365593     5A    -11.310798     6A    -11.302576
       7A    -11.268036     8A    -11.264435     9A    -11.263024
      10A    -11.262423    11A    -11.254393    12A    -11.250532
      13A    -11.233797    14A     -1.406032    15A     -1.270189
      16A     -1.228297    17A     -1.159872    18A     -1.065124
      19A     -1.031776    20A     -1.008446    21A     -0.955312
      22A     -0.880689    23A     -0.852741    24A     -0.788574
      25A     -0.766052    26A     -0.723943    27A     -0.692278
      28A     -0.682001    29A     -0.656007    30A     -0.646286
      31A     -0.627687    32A     -0.617268    33A     -0.610109
      34A     -0.586655    35A     -0.566263    36A     -0.557579
      37A     -0.542639    38A     -0.537440    39A     -0.529962
      40A     -0.513409    41A     -0.461115    42A     -0.446250
      43A     -0.418198    44A     -0.407964    45A     -0.353396
      46A     -0.327471

  @DF-RHF Final Energy:  -568.46387273335108

   => Energetics <=

    Nuclear Repulsion Energy =            760.3734850161401937
    One-Electron Energy =               -2280.8738253637538946
    Two-Electron Energy =                 952.0364676142626195
    Total Energy =                       -568.4638727333510815
  Basis Set: (AUG-CC-PVTZ AUX)
    Blend: AUG-CC-PVTZ-RI
    Molecular point group: c1

    Geometry (in Angstrom), charge = 0, multiplicity = 1:

       Center              X                  Y                   Z               Mass
    ------------   -----------------  -----------------  -----------------  -----------------
         O            3.108340097370    -1.422365817025    -0.215090484311    15.994914619570
         N            0.866883097370    -1.224291817025    -0.590135484311    14.003074004430
         N            1.515121097370     1.492004182975     0.334390515689    14.003074004430
         C           -0.735522902630     0.533656182975     0.032956515689    12.000000000000
         C           -0.430520902630    -0.819132817025    -0.237100484311    12.000000000000
         C            0.295090097370     1.591580182975    -0.084636484311    12.000000000000
         C            1.880704097370     0.265026182975     1.039033515689    12.000000000000
         C           -2.067700902630     0.868712182975     0.336416515689    12.000000000000
         C           -1.452014902630    -1.782367817025    -0.231868484311    12.000000000000
         C            2.090323497370    -0.852421517025     0.066685915689    12.000000000000
         C           -0.097864902630     2.874436182975    -0.769787484311    12.000000000000
         C           -3.071365902630    -0.093255817025     0.361559515689    12.000000000000
         C           -2.762490902630    -1.424157817025     0.060872515689    12.000000000000
         H            0.958054097370    -2.062948817025    -1.158403484311     1.007825032230
         H            1.125681097370    -0.019523817025     1.788182515689     1.007825032230
         H            2.842738097370     0.410823182975     1.531482515689     1.007825032230
         H           -2.314817902630     1.903949182975     0.556623515689     1.007825032230
         H           -1.200319902630    -2.819661817025    -0.445452484311     1.007825032230
         H           -0.833964902630     3.430814182975    -0.179835484311     1.007825032230
         H           -0.543159902630     2.674864182975    -1.749293484311     1.007825032230
         H            0.793804097370     3.492468182975    -0.886273484311     1.007825032230
         H           -4.091196902630     0.190622182975     0.607482515689     1.007825032230
         H           -3.540232902630    -2.183747817025     0.066453515689     1.007825032230

  Basis Set: AUG-CC-PVTZ
    Blend: AUG-CC-PVTZ
  Basis Set: (AUG-CC-PVTZ AUX)
    Blend: AUG-CC-PVTZ-JKFIT
	 Reference Energy          =    -568.4638727333510815 [Eh]
	 Singles Energy            =      -0.0000000000000000 [Eh]
	 Same-Spin Energy          =      -0.6142230549458705 [Eh]
	 Opposite-Spin Energy      =      -1.8866413477533974 [Eh]
	 Correlation Energy        =      -2.5008644026992677 [Eh]
	 Total Energy              =    -570.9647371360503030 [Eh]

	 ================> DF-SCS-MP2 Energies <==================
	-----------------------------------------------------------
	 SCS Same-Spin Scale       =       0.3333333333333333 [-]
	 SCS Opposite-Spin Scale   =       1.2000000000000000 [-]
	 SCS Same-Spin Energy      =      -0.2047410183152902 [Eh]
	 SCS Opposite-Spin Energy  =      -2.2639696173040766 [Eh]
	 SCS Correlation Energy    =      -2.4687106356193667 [Eh]
	 SCS Total Energy          =    -570.9325833689704268 [Eh]
	-----------------------------------------------------------

  Dipole Moment: [D]
     X:    -4.6222      Y:    -0.2565      Z:     0.3146     Total:     4.6400

*** Psi4 exiting successfully. Buy a developer a beer!
