                               Psi4 1.3.2 release

  ==> Input File <==

--------------------------------------------------------------------------
#psi4
#
memory 32 gb

molecule  {
0 1
  O        3.1477550    -1.4485350    -0.2143050
  N        0.9062980    -1.2504610    -0.5893500
  N        1.5545360     1.4658350     0.3351760
  C       -0.6961080     0.5074870     0.0337420
  C       -0.3447335    -0.8319268    -0.2464396
  C        0.3345050     1.5654110    -0.0838510
  C        1.9201190     0.2388570     1.0398190
  C       -2.0282860     0.8425430     0.3372020
  C       -1.4126000    -1.8085370    -0.2310830
  C        2.0871850    -0.8915250     0.0446260
  C       -0.0584500     2.8482670    -0.7690020
  C       -3.0319510    -0.1194250     0.3623450
  C       -2.7230760    -1.4503270     0.0616580
  H        0.9974690    -2.0891180    -1.1576180
  H        1.1650960    -0.0456930     1.7889680
  H        2.8821530     0.3846540     1.5322680
  H       -2.2754030     1.8777800     0.5574090
  H       -1.1609050    -2.8458310    -0.4446670
  H       -0.7945500     3.4046450    -0.1790500
  H       -0.5037450     2.6486950    -1.7485080
  H        0.8332190     3.4662990    -0.8854880
  H       -4.0517820     0.1644530     0.6082680
  H       -3.5008180    -2.2099170     0.0672390
units angstrom
no_reorient  #important for SAPT in psi4, default
symmetry c1  #important for SAPT in psi4, default
}

set PROPERTIES_ORIGIN ["COM"]
properties('MP2/aug-cc-pvtz', properties = ['dipole'])
--------------------------------------------------------------------------

    Molecular point group: c1
  Charge       = 0
  Multiplicity = 1
  Basis Set: AUG-CC-PVTZ
    Blend: AUG-CC-PVTZ
  Basis Set: (AUG-CC-PVTZ AUX)
    Blend: AUG-CC-PVTZ-JKFIT

    Orbital Energies [Eh]
    ---------------------

    Doubly Occupied:

       1A    -20.535333     2A    -15.611254     3A    -15.566262
       4A    -11.365166     5A    -11.316868     6A    -11.301173
       7A    -11.267940     8A    -11.265682     9A    -11.264172
      10A    -11.264119    11A    -11.260561    12A    -11.252119
      13A    -11.233451    14A     -1.391542    15A     -1.285983
      16A     -1.235892    17A     -1.160871    18A     -1.064641
      19A     -1.030310    20A     -1.010644    21A     -0.952495
      22A     -0.885955    23A     -0.861284    24A     -0.797168
      25A     -0.767377    26A     -0.734172    27A     -0.693923
      28A     -0.679418    29A     -0.657595    30A     -0.647281
      31A     -0.623847    32A     -0.618659    33A     -0.607140
      34A     -0.586144    35A     -0.569734    36A     -0.558366
      37A     -0.542349    38A     -0.539887    39A     -0.526179
      40A     -0.511792    41A     -0.459750    42A     -0.448618
      43A     -0.416254    44A     -0.405717    45A     -0.354222
      46A     -0.326606

  @DF-RHF Final Energy:  -568.46204412973111

   => Energetics <=

    Nuclear Repulsion Energy =            760.9857222404452841
    One-Electron Energy =               -2281.9837021801095034
    Two-Electron Energy =                 952.5359358099331075
    Total Energy =                       -568.4620441297311118
  Basis Set: (AUG-CC-PVTZ AUX)
    Blend: AUG-CC-PVTZ-RI
    Molecular point group: c1

    Geometry (in Angstrom), charge = 0, multiplicity = 1:

       Center              X                  Y                   Z               Mass
    ------------   -----------------  -----------------  -----------------  -----------------
         O            3.108076831165    -1.422396210068    -0.212817727180    15.994914619570
         N            0.866619831165    -1.224322210068    -0.587862727180    14.003074004430
         N            1.514857831165     1.491973789932     0.336663272820    14.003074004430
         C           -0.735786168835     0.533625789932     0.035229272820    12.000000000000
         C           -0.384411668835    -0.805788010068    -0.244952327180    12.000000000000
         C            0.294826831165     1.591549789932    -0.082363727180    12.000000000000
         C            1.880440831165     0.264995789932     1.041306272820    12.000000000000
         C           -2.067964168835     0.868681789932     0.338689272820    12.000000000000
         C           -1.452278168835    -1.782398210068    -0.229595727180    12.000000000000
         C            2.047506831165    -0.865386210068     0.046113272820    12.000000000000
         C           -0.098128168835     2.874405789932    -0.767514727180    12.000000000000
         C           -3.071629168835    -0.093286210068     0.363832272820    12.000000000000
         C           -2.762754168835    -1.424188210068     0.063145272820    12.000000000000
         H            0.957790831165    -2.062979210068    -1.156130727180     1.007825032230
         H            1.125417831165    -0.019554210068     1.790455272820     1.007825032230
         H            2.842474831165     0.410792789932     1.533755272820     1.007825032230
         H           -2.315081168835     1.903918789932     0.558896272820     1.007825032230
         H           -1.200583168835    -2.819692210068    -0.443179727180     1.007825032230
         H           -0.834228168835     3.430783789932    -0.177562727180     1.007825032230
         H           -0.543423168835     2.674833789932    -1.747020727180     1.007825032230
         H            0.793540831165     3.492437789932    -0.884000727180     1.007825032230
         H           -4.091460168835     0.190591789932     0.609755272820     1.007825032230
         H           -3.540496168835    -2.183778210068     0.068726272820     1.007825032230

  Basis Set: AUG-CC-PVTZ
    Blend: AUG-CC-PVTZ
  Basis Set: (AUG-CC-PVTZ AUX)
    Blend: AUG-CC-PVTZ-JKFIT
	 Reference Energy          =    -568.4620441297311118 [Eh]
	 Singles Energy            =      -0.0000000000000000 [Eh]
	 Same-Spin Energy          =      -0.6148874007472273 [Eh]
	 Opposite-Spin Energy      =      -1.8876635408538689 [Eh]
	 Correlation Energy        =      -2.5025509416010960 [Eh]
	 Total Energy              =    -570.9645950713321554 [Eh]

	 ================> DF-SCS-MP2 Energies <==================
	-----------------------------------------------------------
	 SCS Same-Spin Scale       =       0.3333333333333333 [-]
	 SCS Opposite-Spin Scale   =       1.2000000000000000 [-]
	 SCS Same-Spin Energy      =      -0.2049624669157424 [Eh]
	 SCS Opposite-Spin Energy  =      -2.2651962490246427 [Eh]
	 SCS Correlation Energy    =      -2.4701587159403853 [Eh]
	 SCS Total Energy          =    -570.9322028456714406 [Eh]
	-----------------------------------------------------------

  Dipole Moment: [D]
     X:    -4.9079      Y:    -0.3005      Z:     0.1825     Total:     4.9204

*** Psi4 exiting successfully. Buy a developer a beer!
