                               Psi4 1.3.2 release

  ==> Input File <==

--------------------------------------------------------------------------
#psi4
#
memory 32 gb

molecule  {
0 1
  O        3.1477550    -1.4485350    -0.2143050
  N        0.9062980    -1.2504610    -0.5893500
  N        1.5545360     1.4658350     0.3351760
  C       -0.6961080     0.5074870     0.0337420
  C       -0.3911060    -0.8453020    -0.2363150
  C        0.3519207     1.5936224    -0.0430352
  C        1.9201190     0.2388570     1.0398190
  C       -2.0282860     0.8425430     0.3372020
  C       -1.4126000    -1.8085370    -0.2310830
  C        2.0871850    -0.8915250     0.0446260
  C       -0.0584500     2.8482670    -0.7690020
  C       -3.0319510    -0.1194250     0.3623450
  C       -2.7230760    -1.4503270     0.0616580
  H        0.9974690    -2.0891180    -1.1576180
  H        1.1650960    -0.0456930     1.7889680
  H        2.8821530     0.3846540     1.5322680
  H       -2.2754030     1.8777800     0.5574090
  H       -1.1609050    -2.8458310    -0.4446670
  H       -0.7945500     3.4046450    -0.1790500
  H       -0.5037450     2.6486950    -1.7485080
  H        0.8332190     3.4662990    -0.8854880
  H       -4.0517820     0.1644530     0.6082680
  H       -3.5008180    -2.2099170     0.0672390
units angstrom
no_reorient  #important for SAPT in psi4, default
symmetry c1  #important for SAPT in psi4, default
}

set PROPERTIES_ORIGIN ["COM"]
properties('MP2/aug-cc-pvtz', properties = ['dipole'])
--------------------------------------------------------------------------

    Molecular point group: c1
  Charge       = 0
  Multiplicity = 1
  Basis Set: AUG-CC-PVTZ
    Blend: AUG-CC-PVTZ
  Basis Set: (AUG-CC-PVTZ AUX)
    Blend: AUG-CC-PVTZ-JKFIT

    Orbital Energies [Eh]
    ---------------------

    Doubly Occupied:

       1A    -20.532765     2A    -15.606751     3A    -15.565499
       4A    -11.363158     5A    -11.313189     6A    -11.301065
       7A    -11.268865     8A    -11.266673     9A    -11.264521
      10A    -11.264053    11A    -11.257525    12A    -11.252700
      13A    -11.233931    14A     -1.387922    15A     -1.277341
      16A     -1.240175    17A     -1.163143    18A     -1.062494
      19A     -1.034839    20A     -1.011501    21A     -0.955473
      22A     -0.881754    23A     -0.856910    24A     -0.794876
      25A     -0.766219    26A     -0.727582    27A     -0.692315
      28A     -0.678835    29A     -0.655989    30A     -0.648152
      31A     -0.625553    32A     -0.620422    33A     -0.605307
      34A     -0.586251    35A     -0.566941    36A     -0.557939
      37A     -0.546611    38A     -0.537523    39A     -0.527937
      40A     -0.514382    41A     -0.460059    42A     -0.444379
      43A     -0.417448    44A     -0.406107    45A     -0.355880
      46A     -0.331560

  @DF-RHF Final Energy:  -568.46629042244217

   => Energetics <=

    Nuclear Repulsion Energy =            760.5121437079739053
    One-Electron Energy =               -2281.0958396414748677
    Two-Electron Energy =                 952.1174055110589052
    Total Energy =                       -568.4662904224421709
  Basis Set: (AUG-CC-PVTZ AUX)
    Blend: AUG-CC-PVTZ-RI
    Molecular point group: c1

    Geometry (in Angstrom), charge = 0, multiplicity = 1:

       Center              X                  Y                   Z               Mass
    ------------   -----------------  -----------------  -----------------  -----------------
         O            3.110072941984    -1.423418930097    -0.216329257583    15.994914619570
         N            0.868615941984    -1.225344930097    -0.591374257583    14.003074004430
         N            1.516853941984     1.490951069903     0.333151742417    14.003074004430
         C           -0.733790058016     0.532603069903     0.031717742417    12.000000000000
         C           -0.428788058016    -0.820185930097    -0.238339257583    12.000000000000
         C            0.314238641984     1.618738469903    -0.045059457583    12.000000000000
         C            1.882436941984     0.263973069903     1.037794742417    12.000000000000
         C           -2.065968058016     0.867659069903     0.335177742417    12.000000000000
         C           -1.450282058016    -1.783420930097    -0.233107257583    12.000000000000
         C            2.049502941984    -0.866408930097     0.042601742417    12.000000000000
         C           -0.096132058016     2.873383069903    -0.771026257583    12.000000000000
         C           -3.069633058016    -0.094308930097     0.360320742417    12.000000000000
         C           -2.760758058016    -1.425210930097     0.059633742417    12.000000000000
         H            0.959786941984    -2.064001930097    -1.159642257583     1.007825032230
         H            1.127413941984    -0.020576930097     1.786943742417     1.007825032230
         H            2.844470941984     0.409770069903     1.530243742417     1.007825032230
         H           -2.313085058016     1.902896069903     0.555384742417     1.007825032230
         H           -1.198587058016    -2.820714930097    -0.446691257583     1.007825032230
         H           -0.832232058016     3.429761069903    -0.181074257583     1.007825032230
         H           -0.541427058016     2.673811069903    -1.750532257583     1.007825032230
         H            0.795536941984     3.491415069903    -0.887512257583     1.007825032230
         H           -4.089464058016     0.189569069903     0.606243742417     1.007825032230
         H           -3.538500058016    -2.184800930097     0.065214742417     1.007825032230

  Basis Set: AUG-CC-PVTZ
    Blend: AUG-CC-PVTZ
  Basis Set: (AUG-CC-PVTZ AUX)
    Blend: AUG-CC-PVTZ-JKFIT
	 Reference Energy          =    -568.4662904224421709 [Eh]
	 Singles Energy            =      -0.0000000000000000 [Eh]
	 Same-Spin Energy          =      -0.6136312797949890 [Eh]
	 Opposite-Spin Energy      =      -1.8857836155847676 [Eh]
	 Correlation Energy        =      -2.4994148953797568 [Eh]
	 Total Energy              =    -570.9657053178219712 [Eh]

	 ================> DF-SCS-MP2 Energies <==================
	-----------------------------------------------------------
	 SCS Same-Spin Scale       =       0.3333333333333333 [-]
	 SCS Opposite-Spin Scale   =       1.2000000000000000 [-]
	 SCS Same-Spin Energy      =      -0.2045437599316630 [Eh]
	 SCS Opposite-Spin Energy  =      -2.2629403387017208 [Eh]
	 SCS Correlation Energy    =      -2.4674840986333839 [Eh]
	 SCS Total Energy          =    -570.9337745210755202 [Eh]
	-----------------------------------------------------------

  Dipole Moment: [D]
     X:    -5.0339      Y:    -0.1929      Z:     0.2410     Total:     5.0434

*** Psi4 exiting successfully. Buy a developer a beer!
