                               Psi4 1.3.2 release

  ==> Input File <==

--------------------------------------------------------------------------
#psi4
#
memory 32 gb

molecule  {
0 1
  O        3.1477550    -1.4485350    -0.2143050
  N        0.9062980    -1.2504610    -0.5893500
  N        1.5545360     1.4658350     0.3351760
  C       -0.7425386     0.3685194     0.0190765
  C       -0.3911060    -0.8453020    -0.2363150
  C        0.3345050     1.5654110    -0.0838510
  C        1.9201190     0.2388570     1.0398190
  C       -2.0282860     0.8425430     0.3372020
  C       -1.4126000    -1.8085370    -0.2310830
  C        2.0871850    -0.8915250     0.0446260
  C       -0.0584500     2.8482670    -0.7690020
  C       -3.0319510    -0.1194250     0.3623450
  C       -2.7230760    -1.4503270     0.0616580
  H        0.9974690    -2.0891180    -1.1576180
  H        1.1650960    -0.0456930     1.7889680
  H        2.8821530     0.3846540     1.5322680
  H       -2.2754030     1.8777800     0.5574090
  H       -1.1609050    -2.8458310    -0.4446670
  H       -0.7945500     3.4046450    -0.1790500
  H       -0.5037450     2.6486950    -1.7485080
  H        0.8332190     3.4662990    -0.8854880
  H       -4.0517820     0.1644530     0.6082680
  H       -3.5008180    -2.2099170     0.0672390
units angstrom
no_reorient  #important for SAPT in psi4, default
symmetry c1  #important for SAPT in psi4, default
}

set PROPERTIES_ORIGIN ["COM"]
properties('MP2/aug-cc-pvtz', properties = ['dipole'])
--------------------------------------------------------------------------

    Molecular point group: c1
  Charge       = 0
  Multiplicity = 1
  Basis Set: AUG-CC-PVTZ
    Blend: AUG-CC-PVTZ
  Basis Set: (AUG-CC-PVTZ AUX)
    Blend: AUG-CC-PVTZ-JKFIT

    Orbital Energies [Eh]
    ---------------------

    Doubly Occupied:

       1A    -20.531321     2A    -15.604961     3A    -15.566010
       4A    -11.361633     5A    -11.307711     6A    -11.296379
       7A    -11.266646     8A    -11.264438     9A    -11.261381
      10A    -11.260441    11A    -11.258808    12A    -11.254444
      13A    -11.236133    14A     -1.386591    15A     -1.277465
      16A     -1.229012    17A     -1.173119    18A     -1.059079
      19A     -1.038646    20A     -1.019809    21A     -0.950937
      22A     -0.877233    23A     -0.862501    24A     -0.791551
      25A     -0.768321    26A     -0.723310    27A     -0.690035
      28A     -0.676631    29A     -0.657053    30A     -0.651380
      31A     -0.627722    32A     -0.616041    33A     -0.604652
      34A     -0.585812    35A     -0.568615    36A     -0.558898
      37A     -0.542571    38A     -0.539308    39A     -0.531705
      40A     -0.512609    41A     -0.455932    42A     -0.443900
      43A     -0.410814    44A     -0.397820    45A     -0.358524
      46A     -0.341075

  @DF-RHF Final Energy:  -568.44316251427995

   => Energetics <=

    Nuclear Repulsion Energy =            761.4879293812438164
    One-Electron Energy =               -2283.0642339855085083
    Two-Electron Energy =                 953.1331420899848581
    Total Energy =                       -568.4431625142799476
  Basis Set: (AUG-CC-PVTZ AUX)
    Blend: AUG-CC-PVTZ-RI
    Molecular point group: c1

    Geometry (in Angstrom), charge = 0, multiplicity = 1:

       Center              X                  Y                   Z               Mass
    ------------   -----------------  -----------------  -----------------  -----------------
         O            3.114474128932    -1.411894596929    -0.212504704345    15.994914619570
         N            0.873017128932    -1.213820596929    -0.587549704345    14.003074004430
         N            1.521255128932     1.502475403071     0.336976295655    14.003074004430
         C           -0.775819471068     0.405159803071     0.020876795655    12.000000000000
         C           -0.424386871068    -0.808661596929    -0.234514704345    12.000000000000
         C            0.301224128932     1.602051403071    -0.082050704345    12.000000000000
         C            1.886838128932     0.275497403071     1.041619295655    12.000000000000
         C           -2.061566871068     0.879183403071     0.339002295655    12.000000000000
         C           -1.445880871068    -1.771896596929    -0.229282704345    12.000000000000
         C            2.053904128932    -0.854884596929     0.046426295655    12.000000000000
         C           -0.091730871068     2.884907403071    -0.767201704345    12.000000000000
         C           -3.065231871068    -0.082784596929     0.364145295655    12.000000000000
         C           -2.756356871068    -1.413686596929     0.063458295655    12.000000000000
         H            0.964188128932    -2.052477596929    -1.155817704345     1.007825032230
         H            1.131815128932    -0.009052596929     1.790768295655     1.007825032230
         H            2.848872128932     0.421294403071     1.534068295655     1.007825032230
         H           -2.308683871068     1.914420403071     0.559209295655     1.007825032230
         H           -1.194185871068    -2.809190596929    -0.442866704345     1.007825032230
         H           -0.827830871068     3.441285403071    -0.177249704345     1.007825032230
         H           -0.537025871068     2.685335403071    -1.746707704345     1.007825032230
         H            0.799938128932     3.502939403071    -0.883687704345     1.007825032230
         H           -4.085062871068     0.201093403071     0.610068295655     1.007825032230
         H           -3.534098871068    -2.173276596929     0.069039295655     1.007825032230

  Basis Set: AUG-CC-PVTZ
    Blend: AUG-CC-PVTZ
  Basis Set: (AUG-CC-PVTZ AUX)
    Blend: AUG-CC-PVTZ-JKFIT
	 Reference Energy          =    -568.4431625142799476 [Eh]
	 Singles Energy            =      -0.0000000000000000 [Eh]
	 Same-Spin Energy          =      -0.6132433521964453 [Eh]
	 Opposite-Spin Energy      =      -1.8865192197938652 [Eh]
	 Correlation Energy        =      -2.4997625719903107 [Eh]
	 Total Energy              =    -570.9429250862702929 [Eh]

	 ================> DF-SCS-MP2 Energies <==================
	-----------------------------------------------------------
	 SCS Same-Spin Scale       =       0.3333333333333333 [-]
	 SCS Opposite-Spin Scale   =       1.2000000000000000 [-]
	 SCS Same-Spin Energy      =      -0.2044144507321484 [Eh]
	 SCS Opposite-Spin Energy  =      -2.2638230637526382 [Eh]
	 SCS Correlation Energy    =      -2.4682375144847866 [Eh]
	 SCS Total Energy          =    -570.9114000287647741 [Eh]
	-----------------------------------------------------------

  Dipole Moment: [D]
     X:    -5.1147      Y:    -0.0802      Z:     0.2336     Total:     5.1207

*** Psi4 exiting successfully. Buy a developer a beer!
