                               Psi4 1.3.2 release

  ==> Input File <==

--------------------------------------------------------------------------
#psi4
#
memory 32 gb

molecule  {
0 1
  O        3.1477550    -1.4485350    -0.2143050
  N        0.9062980    -1.2504610    -0.5893500
  N        1.5545360     1.4658350     0.3351760
  C       -0.6961080     0.5074870     0.0337420
  C       -0.4849089    -0.8670936    -0.2150915
  C        0.3345050     1.5654110    -0.0838510
  C        1.9201190     0.2388570     1.0398190
  C       -2.0282860     0.8425430     0.3372020
  C       -1.4126000    -1.8085370    -0.2310830
  C        2.0871850    -0.8915250     0.0446260
  C       -0.0584500     2.8482670    -0.7690020
  C       -3.0319510    -0.1194250     0.3623450
  C       -2.7230760    -1.4503270     0.0616580
  H        0.9974690    -2.0891180    -1.1576180
  H        1.1650960    -0.0456930     1.7889680
  H        2.8821530     0.3846540     1.5322680
  H       -2.2754030     1.8777800     0.5574090
  H       -1.1609050    -2.8458310    -0.4446670
  H       -0.7945500     3.4046450    -0.1790500
  H       -0.5037450     2.6486950    -1.7485080
  H        0.8332190     3.4662990    -0.8854880
  H       -4.0517820     0.1644530     0.6082680
  H       -3.5008180    -2.2099170     0.0672390
units angstrom
no_reorient  #important for SAPT in psi4, default
symmetry c1  #important for SAPT in psi4, default
}

set PROPERTIES_ORIGIN ["COM"]
properties('MP2/aug-cc-pvtz', properties = ['dipole'])
--------------------------------------------------------------------------

    Molecular point group: c1
  Charge       = 0
  Multiplicity = 1
  Basis Set: AUG-CC-PVTZ
    Blend: AUG-CC-PVTZ
  Basis Set: (AUG-CC-PVTZ AUX)
    Blend: AUG-CC-PVTZ-JKFIT

    Orbital Energies [Eh]
    ---------------------

    Doubly Occupied:

       1A    -20.526375     2A    -15.598281     3A    -15.568225
       4A    -11.357308     5A    -11.310176     6A    -11.304689
       7A    -11.269831     8A    -11.268346     9A    -11.268234
      10A    -11.265157    11A    -11.256654    12A    -11.252795
      13A    -11.235580    14A     -1.380325    15A     -1.263378
      16A     -1.224751    17A     -1.171179    18A     -1.069133
      19A     -1.045022    20A     -1.011926    21A     -0.950039
      22A     -0.888153    23A     -0.851583    24A     -0.790601
      25A     -0.772335    26A     -0.719916    27A     -0.685907
      28A     -0.675387    29A     -0.660292    30A     -0.649269
      31A     -0.629905    32A     -0.616813    33A     -0.597707
      34A     -0.586980    35A     -0.562480    36A     -0.559068
      37A     -0.547252    38A     -0.536019    39A     -0.530386
      40A     -0.519782    41A     -0.452907    42A     -0.435744
      43A     -0.419676    44A     -0.404843    45A     -0.358483
      46A     -0.341173

  @DF-RHF Final Energy:  -568.45421069545171

   => Energetics <=

    Nuclear Repulsion Energy =            760.4194609335648920
    One-Electron Energy =               -2280.9672126321888754
    Two-Electron Energy =                 952.0935410031721631
    Total Energy =                       -568.4542106954517067
  Basis Set: (AUG-CC-PVTZ AUX)
    Blend: AUG-CC-PVTZ-RI
    Molecular point group: c1

    Geometry (in Angstrom), charge = 0, multiplicity = 1:

       Center              X                  Y                   Z               Mass
    ------------   -----------------  -----------------  -----------------  -----------------
         O            3.117739695589    -1.419972018515    -0.214978680102    15.994914619570
         N            0.876282695589    -1.221898018515    -0.590023680102    14.003074004430
         N            1.524520695589     1.494397981485     0.334502319898    14.003074004430
         C           -0.726123304411     0.536049981485     0.033068319898    12.000000000000
         C           -0.514924204411    -0.838530618515    -0.215765180102    12.000000000000
         C            0.304489695589     1.593973981485    -0.084524680102    12.000000000000
         C            1.890103695589     0.267419981485     1.039145319898    12.000000000000
         C           -2.058301304411     0.871105981485     0.336528319898    12.000000000000
         C           -1.442615304411    -1.779974018515    -0.231756680102    12.000000000000
         C            2.057169695589    -0.862962018515     0.043952319898    12.000000000000
         C           -0.088465304411     2.876829981485    -0.769675680102    12.000000000000
         C           -3.061966304411    -0.090862018515     0.361671319898    12.000000000000
         C           -2.753091304411    -1.421764018515     0.060984319898    12.000000000000
         H            0.967453695589    -2.060555018515    -1.158291680102     1.007825032230
         H            1.135080695589    -0.017130018515     1.788294319898     1.007825032230
         H            2.852137695589     0.413216981485     1.531594319898     1.007825032230
         H           -2.305418304411     1.906342981485     0.556735319898     1.007825032230
         H           -1.190920304411    -2.817268018515    -0.445340680102     1.007825032230
         H           -0.824565304411     3.433207981485    -0.179723680102     1.007825032230
         H           -0.533760304411     2.677257981485    -1.749181680102     1.007825032230
         H            0.803203695589     3.494861981485    -0.886161680102     1.007825032230
         H           -4.081797304411     0.193015981485     0.607594319898     1.007825032230
         H           -3.530833304411    -2.181354018515     0.066565319898     1.007825032230

  Basis Set: AUG-CC-PVTZ
    Blend: AUG-CC-PVTZ
  Basis Set: (AUG-CC-PVTZ AUX)
    Blend: AUG-CC-PVTZ-JKFIT
	 Reference Energy          =    -568.4542106954517067 [Eh]
	 Singles Energy            =      -0.0000000000000000 [Eh]
	 Same-Spin Energy          =      -0.6139947847221636 [Eh]
	 Opposite-Spin Energy      =      -1.8872351542551988 [Eh]
	 Correlation Energy        =      -2.5012299389773625 [Eh]
	 Total Energy              =    -570.9554406344291237 [Eh]

	 ================> DF-SCS-MP2 Energies <==================
	-----------------------------------------------------------
	 SCS Same-Spin Scale       =       0.3333333333333333 [-]
	 SCS Opposite-Spin Scale   =       1.2000000000000000 [-]
	 SCS Same-Spin Energy      =      -0.2046649282407212 [Eh]
	 SCS Opposite-Spin Energy  =      -2.2646821851062384 [Eh]
	 SCS Correlation Energy    =      -2.4693471133469598 [Eh]
	 SCS Total Energy          =    -570.9235578087987051 [Eh]
	-----------------------------------------------------------

  Dipole Moment: [D]
     X:    -5.5225      Y:    -0.1399      Z:     0.3115     Total:     5.5330

*** Psi4 exiting successfully. Buy a developer a beer!
