                               Psi4 1.3.2 release

  ==> Input File <==

--------------------------------------------------------------------------
#psi4
#
memory 32 gb

molecule  {
0 1
  O        3.1477550    -1.4485350    -0.2143050
  N        0.9062980    -1.2504610    -0.5893500
  N        1.5545360     1.4658350     0.3351760
  C       -0.6961080     0.5074870     0.0337420
  C       -0.3911060    -0.8453020    -0.2363150
  C        0.2794730     1.4902826    -0.2111029
  C        1.9201190     0.2388570     1.0398190
  C       -2.0282860     0.8425430     0.3372020
  C       -1.4126000    -1.8085370    -0.2310830
  C        2.0871850    -0.8915250     0.0446260
  C       -0.0584500     2.8482670    -0.7690020
  C       -3.0319510    -0.1194250     0.3623450
  C       -2.7230760    -1.4503270     0.0616580
  H        0.9974690    -2.0891180    -1.1576180
  H        1.1650960    -0.0456930     1.7889680
  H        2.8821530     0.3846540     1.5322680
  H       -2.2754030     1.8777800     0.5574090
  H       -1.1609050    -2.8458310    -0.4446670
  H       -0.7945500     3.4046450    -0.1790500
  H       -0.5037450     2.6486950    -1.7485080
  H        0.8332190     3.4662990    -0.8854880
  H       -4.0517820     0.1644530     0.6082680
  H       -3.5008180    -2.2099170     0.0672390
units angstrom
no_reorient  #important for SAPT in psi4, default
symmetry c1  #important for SAPT in psi4, default
}

set PROPERTIES_ORIGIN ["COM"]
properties('MP2/aug-cc-pvtz', properties = ['dipole'])
--------------------------------------------------------------------------

    Molecular point group: c1
  Charge       = 0
  Multiplicity = 1
  Basis Set: AUG-CC-PVTZ
    Blend: AUG-CC-PVTZ
  Basis Set: (AUG-CC-PVTZ AUX)
    Blend: AUG-CC-PVTZ-JKFIT

    Orbital Energies [Eh]
    ---------------------

    Doubly Occupied:

       1A    -20.531017     2A    -15.607973     3A    -15.573380
       4A    -11.361431     5A    -11.317853     6A    -11.307930
       7A    -11.270589     8A    -11.269291     9A    -11.263837
      10A    -11.262546    11A    -11.260266    12A    -11.256561
      13A    -11.235790    14A     -1.386481    15A     -1.275093
      16A     -1.210052    17A     -1.167538    18A     -1.074645
      19A     -1.036592    20A     -1.010134    21A     -0.939069
      22A     -0.897188    23A     -0.861006    24A     -0.796450
      25A     -0.772270    26A     -0.732417    27A     -0.688426
      28A     -0.675049    29A     -0.661373    30A     -0.647589
      31A     -0.627965    32A     -0.616028    33A     -0.602328
      34A     -0.585993    35A     -0.566668    36A     -0.560434
      37A     -0.546716    38A     -0.535149    39A     -0.529469
      40A     -0.509018    41A     -0.452783    42A     -0.444803
      43A     -0.420348    44A     -0.399139    45A     -0.347800
      46A     -0.331992

  @DF-RHF Final Energy:  -568.43734967934870

   => Energetics <=

    Nuclear Repulsion Energy =            761.1024363297716491
    One-Electron Energy =               -2282.2266385733578318
    Two-Electron Energy =                 952.6868525642375971
    Total Energy =                       -568.4373496793486993
  Basis Set: (AUG-CC-PVTZ AUX)
    Blend: AUG-CC-PVTZ-RI
    Molecular point group: c1

    Geometry (in Angstrom), charge = 0, multiplicity = 1:

       Center              X                  Y                   Z               Mass
    ------------   -----------------  -----------------  -----------------  -----------------
         O            3.115067058662    -1.416295294445    -0.204743662685    15.994914619570
         N            0.873610058662    -1.218221294445    -0.579788662685    14.003074004430
         N            1.521848058662     1.498074705555     0.344737337315    14.003074004430
         C           -0.728795941338     0.539726705555     0.043303337315    12.000000000000
         C           -0.423793941338    -0.813062294445    -0.226753662685    12.000000000000
         C            0.246785058662     1.522522305555    -0.201541562685    12.000000000000
         C            1.887431058662     0.271096705555     1.049380337315    12.000000000000
         C           -2.060973941338     0.874782705555     0.346763337315    12.000000000000
         C           -1.445287941338    -1.776297294445    -0.221521662685    12.000000000000
         C            2.054497058662    -0.859285294445     0.054187337315    12.000000000000
         C           -0.091137941338     2.880506705555    -0.759440662685    12.000000000000
         C           -3.064638941338    -0.087185294445     0.371906337315    12.000000000000
         C           -2.755763941338    -1.418087294445     0.071219337315    12.000000000000
         H            0.964781058662    -2.056878294445    -1.148056662685     1.007825032230
         H            1.132408058662    -0.013453294445     1.798529337315     1.007825032230
         H            2.849465058662     0.416893705555     1.541829337315     1.007825032230
         H           -2.308090941338     1.910019705555     0.566970337315     1.007825032230
         H           -1.193592941338    -2.813591294445    -0.435105662685     1.007825032230
         H           -0.827237941338     3.436884705555    -0.169488662685     1.007825032230
         H           -0.536432941338     2.680934705555    -1.738946662685     1.007825032230
         H            0.800531058662     3.498538705555    -0.875926662685     1.007825032230
         H           -4.084469941338     0.196692705555     0.617829337315     1.007825032230
         H           -3.533505941338    -2.177677294445     0.076800337315     1.007825032230

  Basis Set: AUG-CC-PVTZ
    Blend: AUG-CC-PVTZ
  Basis Set: (AUG-CC-PVTZ AUX)
    Blend: AUG-CC-PVTZ-JKFIT
	 Reference Energy          =    -568.4373496793486993 [Eh]
	 Singles Energy            =      -0.0000000000000000 [Eh]
	 Same-Spin Energy          =      -0.6184558122722907 [Eh]
	 Opposite-Spin Energy      =      -1.8945339492135678 [Eh]
	 Correlation Energy        =      -2.5129897614858585 [Eh]
	 Total Energy              =    -570.9503394408345684 [Eh]

	 ================> DF-SCS-MP2 Energies <==================
	-----------------------------------------------------------
	 SCS Same-Spin Scale       =       0.3333333333333333 [-]
	 SCS Opposite-Spin Scale   =       1.2000000000000000 [-]
	 SCS Same-Spin Energy      =      -0.2061519374240969 [Eh]
	 SCS Opposite-Spin Energy  =      -2.2734407390562814 [Eh]
	 SCS Correlation Energy    =      -2.4795926764803782 [Eh]
	 SCS Total Energy          =    -570.9169423558290646 [Eh]
	-----------------------------------------------------------

  Dipole Moment: [D]
     X:    -5.2188      Y:    -0.3546      Z:     0.2314     Total:     5.2359

*** Psi4 exiting successfully. Buy a developer a beer!
