                               Psi4 1.3.2 release

  ==> Input File <==

--------------------------------------------------------------------------
#psi4
#
memory 32 gb

molecule  {
0 1
  O        3.1477550    -1.4485350    -0.2143050
  N        0.9062980    -1.2504610    -0.5893500
  N        1.5545360     1.4658350     0.3351760
  C       -0.6961080     0.5074870     0.0337420
  C       -0.3911060    -0.8453020    -0.2363150
  C        0.3345050     1.5654110    -0.0838510
  C        1.9201190     0.2388570     1.0398190
  C       -2.0282860     0.8425430     0.3372020
  C       -1.4126000    -1.8085370    -0.2310830
  C        2.2573986    -0.8397878     0.1360076
  C       -0.0584500     2.8482670    -0.7690020
  C       -3.0319510    -0.1194250     0.3623450
  C       -2.7230760    -1.4503270     0.0616580
  H        0.9974690    -2.0891180    -1.1576180
  H        1.1650960    -0.0456930     1.7889680
  H        2.8821530     0.3846540     1.5322680
  H       -2.2754030     1.8777800     0.5574090
  H       -1.1609050    -2.8458310    -0.4446670
  H       -0.7945500     3.4046450    -0.1790500
  H       -0.5037450     2.6486950    -1.7485080
  H        0.8332190     3.4662990    -0.8854880
  H       -4.0517820     0.1644530     0.6082680
  H       -3.5008180    -2.2099170     0.0672390
units angstrom
no_reorient  #important for SAPT in psi4, default
symmetry c1  #important for SAPT in psi4, default
}

set PROPERTIES_ORIGIN ["COM"]
properties('MP2/aug-cc-pvtz', properties = ['dipole'])
--------------------------------------------------------------------------

    Molecular point group: c1
  Charge       = 0
  Multiplicity = 1
  Basis Set: AUG-CC-PVTZ
    Blend: AUG-CC-PVTZ
  Basis Set: (AUG-CC-PVTZ AUX)
    Blend: AUG-CC-PVTZ-JKFIT

    Orbital Energies [Eh]
    ---------------------

    Doubly Occupied:

       1A    -20.572632     2A    -15.569739     3A    -15.566892
       4A    -11.376724     5A    -11.303383     6A    -11.298890
       7A    -11.275106     8A    -11.257757     9A    -11.255419
      10A    -11.252050    11A    -11.242503    12A    -11.240672
      13A    -11.232714    14A     -1.469454    15A     -1.259251
      16A     -1.209048    17A     -1.144884    18A     -1.066932
      19A     -1.026816    20A     -0.996127    21A     -0.965590
      22A     -0.868494    23A     -0.837596    24A     -0.776550
      25A     -0.760556    26A     -0.709484    27A     -0.702644
      28A     -0.691994    29A     -0.670561    30A     -0.640458
      31A     -0.632307    32A     -0.614371    33A     -0.605714
      34A     -0.588052    35A     -0.581944    36A     -0.553578
      37A     -0.538265    38A     -0.536202    39A     -0.532183
      40A     -0.508400    41A     -0.457526    42A     -0.437677
      43A     -0.420155    44A     -0.410935    45A     -0.348034
      46A     -0.311361

  @DF-RHF Final Energy:  -568.43132326478144

   => Energetics <=

    Nuclear Repulsion Energy =            759.3645786001329725
    One-Electron Energy =               -2278.9565522585353392
    Two-Electron Energy =                 951.1606503936209265
    Total Energy =                       -568.4313232647814402
  Basis Set: (AUG-CC-PVTZ AUX)
    Blend: AUG-CC-PVTZ-RI
    Molecular point group: c1

    Geometry (in Angstrom), charge = 0, multiplicity = 1:

       Center              X                  Y                   Z               Mass
    ------------   -----------------  -----------------  -----------------  -----------------
         O            3.099539956939    -1.425040659843    -0.219814965274    15.994914619570
         N            0.858082956939    -1.226966659843    -0.594859965274    14.003074004430
         N            1.506320956939     1.489329340157     0.329666034726    14.003074004430
         C           -0.744323043061     0.530981340157     0.028232034726    12.000000000000
         C           -0.439321043061    -0.821807659843    -0.241824965274    12.000000000000
         C            0.286289956939     1.588905340157    -0.089360965274    12.000000000000
         C            1.871903956939     0.262351340157     1.034309034726    12.000000000000
         C           -2.076501043061     0.866037340157     0.331692034726    12.000000000000
         C           -1.460815043061    -1.785042659843    -0.236592965274    12.000000000000
         C            2.209183556939    -0.816293459843     0.130497634726    12.000000000000
         C           -0.106665043061     2.871761340157    -0.774511965274    12.000000000000
         C           -3.080166043061    -0.095930659843     0.356835034726    12.000000000000
         C           -2.771291043061    -1.426832659843     0.056148034726    12.000000000000
         H            0.949253956939    -2.065623659843    -1.163127965274     1.007825032230
         H            1.116880956939    -0.022198659843     1.783458034726     1.007825032230
         H            2.833937956939     0.408148340157     1.526758034726     1.007825032230
         H           -2.323618043061     1.901274340157     0.551899034726     1.007825032230
         H           -1.209120043061    -2.822336659843    -0.450176965274     1.007825032230
         H           -0.842765043061     3.428139340157    -0.184559965274     1.007825032230
         H           -0.551960043061     2.672189340157    -1.754017965274     1.007825032230
         H            0.785003956939     3.489793340157    -0.890997965274     1.007825032230
         H           -4.099997043061     0.187947340157     0.602758034726     1.007825032230
         H           -3.549033043061    -2.186422659843     0.061729034726     1.007825032230

  Basis Set: AUG-CC-PVTZ
    Blend: AUG-CC-PVTZ
  Basis Set: (AUG-CC-PVTZ AUX)
    Blend: AUG-CC-PVTZ-JKFIT
	 Reference Energy          =    -568.4313232647814402 [Eh]
	 Singles Energy            =      -0.0000000000000000 [Eh]
	 Same-Spin Energy          =      -0.6144721101519105 [Eh]
	 Opposite-Spin Energy      =      -1.8866230317436896 [Eh]
	 Correlation Energy        =      -2.5010951418956000 [Eh]
	 Total Energy              =    -570.9324184066770158 [Eh]

	 ================> DF-SCS-MP2 Energies <==================
	-----------------------------------------------------------
	 SCS Same-Spin Scale       =       0.3333333333333333 [-]
	 SCS Opposite-Spin Scale   =       1.2000000000000000 [-]
	 SCS Same-Spin Energy      =      -0.2048240367173035 [Eh]
	 SCS Opposite-Spin Energy  =      -2.2639476380924273 [Eh]
	 SCS Correlation Energy    =      -2.4687716748097306 [Eh]
	 SCS Total Energy          =    -570.9000949395912130 [Eh]
	-----------------------------------------------------------

  Dipole Moment: [D]
     X:    -3.0562      Y:    -0.2664      Z:     0.6218     Total:     3.1301

*** Psi4 exiting successfully. Buy a developer a beer!
