                               Psi4 1.3.2 release

  ==> Input File <==

--------------------------------------------------------------------------
#psi4
#
memory 32 gb

molecule  {
0 1
  O        3.1477550    -1.4485350    -0.2143050
  N        0.9062980    -1.2504610    -0.5893500
  N        1.5545360     1.4658350     0.3351760
  C       -0.7922542     0.6043284    -0.0399374
  C       -0.3911060    -0.8453020    -0.2363150
  C        0.3345050     1.5654110    -0.0838510
  C        1.9201190     0.2388570     1.0398190
  C       -2.0282860     0.8425430     0.3372020
  C       -1.4126000    -1.8085370    -0.2310830
  C        2.0871850    -0.8915250     0.0446260
  C       -0.0584500     2.8482670    -0.7690020
  C       -3.0319510    -0.1194250     0.3623450
  C       -2.7230760    -1.4503270     0.0616580
  H        0.9974690    -2.0891180    -1.1576180
  H        1.1650960    -0.0456930     1.7889680
  H        2.8821530     0.3846540     1.5322680
  H       -2.2754030     1.8777800     0.5574090
  H       -1.1609050    -2.8458310    -0.4446670
  H       -0.7945500     3.4046450    -0.1790500
  H       -0.5037450     2.6486950    -1.7485080
  H        0.8332190     3.4662990    -0.8854880
  H       -4.0517820     0.1644530     0.6082680
  H       -3.5008180    -2.2099170     0.0672390
units angstrom
no_reorient  #important for SAPT in psi4, default
symmetry c1  #important for SAPT in psi4, default
}

set PROPERTIES_ORIGIN ["COM"]
properties('MP2/aug-cc-pvtz', properties = ['dipole'])
--------------------------------------------------------------------------

    Molecular point group: c1
  Charge       = 0
  Multiplicity = 1
  Basis Set: AUG-CC-PVTZ
    Blend: AUG-CC-PVTZ
  Basis Set: (AUG-CC-PVTZ AUX)
    Blend: AUG-CC-PVTZ-JKFIT

    Orbital Energies [Eh]
    ---------------------

    Doubly Occupied:

       1A    -20.534047     2A    -15.609716     3A    -15.570449
       4A    -11.363710     5A    -11.321853     6A    -11.304325
       7A    -11.268528     8A    -11.268292     9A    -11.265178
      10A    -11.257155    11A    -11.256548    12A    -11.252976
      13A    -11.230279    14A     -1.388798    15A     -1.273562
      16A     -1.233605    17A     -1.169880    18A     -1.072643
      19A     -1.038975    20A     -1.003593    21A     -0.952685
      22A     -0.884344    23A     -0.857112    24A     -0.796351
      25A     -0.767683    26A     -0.731628    27A     -0.693591
      28A     -0.679235    29A     -0.661244    30A     -0.640075
      31A     -0.632037    32A     -0.615641    33A     -0.604879
      34A     -0.585922    35A     -0.567475    36A     -0.559567
      37A     -0.548116    38A     -0.538477    39A     -0.527296
      40A     -0.500374    41A     -0.459779    42A     -0.445543
      43A     -0.416243    44A     -0.409786    45A     -0.364875
      46A     -0.323999

  @DF-RHF Final Energy:  -568.44452511056738

   => Energetics <=

    Nuclear Repulsion Energy =            759.7389472960621788
    One-Electron Energy =               -2279.4708055599285217
    Two-Electron Energy =                 951.2873331532989596
    Total Energy =                       -568.4445251105673833
  Basis Set: (AUG-CC-PVTZ AUX)
    Blend: AUG-CC-PVTZ-RI
    Molecular point group: c1

    Geometry (in Angstrom), charge = 0, multiplicity = 1:

       Center              X                  Y                   Z               Mass
    ------------   -----------------  -----------------  -----------------  -----------------
         O            3.117901228855    -1.428149877077    -0.208436634521    15.994914619570
         N            0.876444228855    -1.230075877077    -0.583481634521    14.003074004430
         N            1.524682228855     1.486220122923     0.341044365479    14.003074004430
         C           -0.822107971145     0.624713522923    -0.034069034521    12.000000000000
         C           -0.420959771145    -0.824916877077    -0.230446634521    12.000000000000
         C            0.304651228855     1.585796122923    -0.077982634521    12.000000000000
         C            1.890265228855     0.259242122923     1.045687365479    12.000000000000
         C           -2.058139771145     0.862928122923     0.343070365479    12.000000000000
         C           -1.442453771145    -1.788151877077    -0.225214634521    12.000000000000
         C            2.057331228855    -0.871139877077     0.050494365479    12.000000000000
         C           -0.088303771145     2.868652122923    -0.763133634521    12.000000000000
         C           -3.061804771145    -0.099039877077     0.368213365479    12.000000000000
         C           -2.752929771145    -1.429941877077     0.067526365479    12.000000000000
         H            0.967615228855    -2.068732877077    -1.151749634521     1.007825032230
         H            1.135242228855    -0.025307877077     1.794836365479     1.007825032230
         H            2.852299228855     0.405039122923     1.538136365479     1.007825032230
         H           -2.305256771145     1.898165122923     0.563277365479     1.007825032230
         H           -1.190758771145    -2.825445877077    -0.438798634521     1.007825032230
         H           -0.824403771145     3.425030122923    -0.173181634521     1.007825032230
         H           -0.533598771145     2.669080122923    -1.742639634521     1.007825032230
         H            0.803365228855     3.486684122923    -0.879619634521     1.007825032230
         H           -4.081635771145     0.184838122923     0.614136365479     1.007825032230
         H           -3.530671771145    -2.189531877077     0.073107365479     1.007825032230

  Basis Set: AUG-CC-PVTZ
    Blend: AUG-CC-PVTZ
  Basis Set: (AUG-CC-PVTZ AUX)
    Blend: AUG-CC-PVTZ-JKFIT
	 Reference Energy          =    -568.4445251105673833 [Eh]
	 Singles Energy            =      -0.0000000000000000 [Eh]
	 Same-Spin Energy          =      -0.6146988199087282 [Eh]
	 Opposite-Spin Energy      =      -1.8884057825412996 [Eh]
	 Correlation Energy        =      -2.5031046024500281 [Eh]
	 Total Energy              =    -570.9476297130173634 [Eh]

	 ================> DF-SCS-MP2 Energies <==================
	-----------------------------------------------------------
	 SCS Same-Spin Scale       =       0.3333333333333333 [-]
	 SCS Opposite-Spin Scale   =       1.2000000000000000 [-]
	 SCS Same-Spin Energy      =      -0.2048996066362427 [Eh]
	 SCS Opposite-Spin Energy  =      -2.2660869390495595 [Eh]
	 SCS Correlation Energy    =      -2.4709865456858022 [Eh]
	 SCS Total Energy          =    -570.9155116562532157 [Eh]
	-----------------------------------------------------------

  Dipole Moment: [D]
     X:    -5.0221      Y:    -0.3075      Z:     0.2813     Total:     5.0393

*** Psi4 exiting successfully. Buy a developer a beer!
