                               Psi4 1.3.2 release

  ==> Input File <==

--------------------------------------------------------------------------
#psi4
#
memory 32 gb

molecule  {
0 1
  O        3.1477550    -1.4485350    -0.2143050
  N        0.9062980    -1.2504610    -0.5893500
  N        1.5545360     1.4658350     0.3351760
  C       -0.6961080     0.5074870     0.0337420
  C       -0.3911060    -0.8453020    -0.2363150
  C        0.3345050     1.5654110    -0.0838510
  C        1.9201190     0.2388570     1.0398190
  C       -2.0282860     0.8425430     0.3372020
  C       -1.4126000    -1.8085370    -0.2310830
  C        2.0871850    -0.8915250     0.0446260
  C       -0.0584500     2.8482670    -0.7690020
  C       -3.0319510    -0.1194250     0.3623450
  C       -2.7230760    -1.4503270     0.0616580
  H        1.0064324    -2.1715700    -1.2134869
  H        1.1650960    -0.0456930     1.7889680
  H        2.8821530     0.3846540     1.5322680
  H       -2.2754030     1.8777800     0.5574090
  H       -1.1609050    -2.8458310    -0.4446670
  H       -0.7945500     3.4046450    -0.1790500
  H       -0.5037450     2.6486950    -1.7485080
  H        0.8332190     3.4662990    -0.8854880
  H       -4.0517820     0.1644530     0.6082680
  H       -3.5008180    -2.2099170     0.0672390
units angstrom
no_reorient  #important for SAPT in psi4, default
symmetry c1  #important for SAPT in psi4, default
}

set PROPERTIES_ORIGIN ["COM"]
properties('MP2/aug-cc-pvtz', properties = ['dipole'])
--------------------------------------------------------------------------

    Molecular point group: c1
  Charge       = 0
  Multiplicity = 1
  Basis Set: AUG-CC-PVTZ
    Blend: AUG-CC-PVTZ
  Basis Set: (AUG-CC-PVTZ AUX)
    Blend: AUG-CC-PVTZ-JKFIT

    Orbital Energies [Eh]
    ---------------------

    Doubly Occupied:

       1A    -20.531303     2A    -15.614769     3A    -15.566719
       4A    -11.362161     5A    -11.314216     6A    -11.302086
       7A    -11.267122     8A    -11.266537     9A    -11.265349
      10A    -11.265068    11A    -11.257715    12A    -11.253312
      13A    -11.233962    14A     -1.385562    15A     -1.271596
      16A     -1.229246    17A     -1.162821    18A     -1.065217
      19A     -1.034582    20A     -1.008616    21A     -0.949971
      22A     -0.884822    23A     -0.856019    24A     -0.788222
      25A     -0.764494    26A     -0.719953    27A     -0.690758
      28A     -0.676954    29A     -0.656604    30A     -0.644958
      31A     -0.625699    32A     -0.616812    33A     -0.599760
      34A     -0.585906    35A     -0.564978    36A     -0.558431
      37A     -0.543066    38A     -0.538591    39A     -0.527393
      40A     -0.514168    41A     -0.457076    42A     -0.443108
      43A     -0.417285    44A     -0.404993    45A     -0.354612
      46A     -0.331254

  @DF-RHF Final Energy:  -568.45488676977880

   => Energetics <=

    Nuclear Repulsion Energy =            760.1089498942410501
    One-Electron Energy =               -2280.3799819374294202
    Two-Electron Energy =                 951.8161452734095747
    Total Energy =                       -568.4548867697787955
  Basis Set: (AUG-CC-PVTZ AUX)
    Blend: AUG-CC-PVTZ-RI
    Molecular point group: c1

    Geometry (in Angstrom), charge = 0, multiplicity = 1:

       Center              X                  Y                   Z               Mass
    ------------   -----------------  -----------------  -----------------  -----------------
         O            3.111221584277    -1.420996850285    -0.213192206622    15.994914619570
         N            0.869764584277    -1.222922850285    -0.588237206622    14.003074004430
         N            1.518002584277     1.493373149715     0.336288793378    14.003074004430
         C           -0.732641415723     0.535025149715     0.034854793378    12.000000000000
         C           -0.427639415723    -0.817763850285    -0.235202206622    12.000000000000
         C            0.297971584277     1.592949149715    -0.082738206622    12.000000000000
         C            1.883585584277     0.266395149715     1.040931793378    12.000000000000
         C           -2.064819415723     0.870081149715     0.338314793378    12.000000000000
         C           -1.449133415723    -1.780998850285    -0.229970206622    12.000000000000
         C            2.050651584277    -0.863986850285     0.045738793378    12.000000000000
         C           -0.094983415723     2.875805149715    -0.767889206622    12.000000000000
         C           -3.068484415723    -0.091886850285     0.363457793378    12.000000000000
         C           -2.759609415723    -1.422788850285     0.062770793378    12.000000000000
         H            0.969898984277    -2.144031850285    -1.212374106622     1.007825032230
         H            1.128562584277    -0.018154850285     1.790080793378     1.007825032230
         H            2.845619584277     0.412192149715     1.533380793378     1.007825032230
         H           -2.311936415723     1.905318149715     0.558521793378     1.007825032230
         H           -1.197438415723    -2.818292850285    -0.443554206622     1.007825032230
         H           -0.831083415723     3.432183149715    -0.177937206622     1.007825032230
         H           -0.540278415723     2.676233149715    -1.747395206622     1.007825032230
         H            0.796685584277     3.493837149715    -0.884375206622     1.007825032230
         H           -4.088315415723     0.191991149715     0.609380793378     1.007825032230
         H           -3.537351415723    -2.182378850285     0.068351793378     1.007825032230

  Basis Set: AUG-CC-PVTZ
    Blend: AUG-CC-PVTZ
  Basis Set: (AUG-CC-PVTZ AUX)
    Blend: AUG-CC-PVTZ-JKFIT
	 Reference Energy          =    -568.4548867697787955 [Eh]
	 Singles Energy            =      -0.0000000000000000 [Eh]
	 Same-Spin Energy          =      -0.6154010422319096 [Eh]
	 Opposite-Spin Energy      =      -1.8892897218121771 [Eh]
	 Correlation Energy        =      -2.5046907640440867 [Eh]
	 Total Energy              =    -570.9595775338228805 [Eh]

	 ================> DF-SCS-MP2 Energies <==================
	-----------------------------------------------------------
	 SCS Same-Spin Scale       =       0.3333333333333333 [-]
	 SCS Opposite-Spin Scale   =       1.2000000000000000 [-]
	 SCS Same-Spin Energy      =      -0.2051336807439699 [Eh]
	 SCS Opposite-Spin Energy  =      -2.2671476661746124 [Eh]
	 SCS Correlation Energy    =      -2.4722813469185825 [Eh]
	 SCS Total Energy          =    -570.9271681166974304 [Eh]
	-----------------------------------------------------------

  Dipole Moment: [D]
     X:    -5.0969      Y:    -0.3157      Z:     0.1743     Total:     5.1096

*** Psi4 exiting successfully. Buy a developer a beer!
