                               Psi4 1.3.2 release

  ==> Input File <==

--------------------------------------------------------------------------
#psi4
#
memory 32 gb

molecule  {
0 1
  O        3.1477550    -1.4485350    -0.2143050
  N        0.9062980    -1.2504610    -0.5893500
  N        1.5585777     1.4867836     0.3277780
  C       -0.6961080     0.5074870     0.0337420
  C       -0.3911060    -0.8453020    -0.2363150
  C        0.3345050     1.5654110    -0.0838510
  C        1.9201190     0.2388570     1.0398190
  C       -2.0282860     0.8425430     0.3372020
  C       -1.4126000    -1.8085370    -0.2310830
  C        2.0871850    -0.8915250     0.0446260
  C       -0.0584500     2.8482670    -0.7690020
  C       -3.0319510    -0.1194250     0.3623450
  C       -2.7230760    -1.4503270     0.0616580
  H        0.9974690    -2.0891180    -1.1576180
  H        1.1650960    -0.0456930     1.7889680
  H        2.8821530     0.3846540     1.5322680
  H       -2.2754030     1.8777800     0.5574090
  H       -1.1609050    -2.8458310    -0.4446670
  H       -0.7945500     3.4046450    -0.1790500
  H       -0.5037450     2.6486950    -1.7485080
  H        0.8332190     3.4662990    -0.8854880
  H       -4.0517820     0.1644530     0.6082680
  H       -3.5008180    -2.2099170     0.0672390
units angstrom
no_reorient  #important for SAPT in psi4, default
symmetry c1  #important for SAPT in psi4, default
}

set PROPERTIES_ORIGIN ["COM"]
properties('MP2/aug-cc-pvtz', properties = ['dipole'])
--------------------------------------------------------------------------

    Molecular point group: c1
  Charge       = 0
  Multiplicity = 1
  Basis Set: AUG-CC-PVTZ
    Blend: AUG-CC-PVTZ
  Basis Set: (AUG-CC-PVTZ AUX)
    Blend: AUG-CC-PVTZ-JKFIT

    Orbital Energies [Eh]
    ---------------------

    Doubly Occupied:

       1A    -20.532405     2A    -15.607243     3A    -15.569107
       4A    -11.362853     5A    -11.314792     6A    -11.302110
       7A    -11.267815     8A    -11.267415     9A    -11.266269
      10A    -11.265812    11A    -11.258528    12A    -11.254062
      13A    -11.233342    14A     -1.387562    15A     -1.275462
      16A     -1.231162    17A     -1.164688    18A     -1.064363
      19A     -1.035450    20A     -1.010907    21A     -0.951664
      22A     -0.885578    23A     -0.858391    24A     -0.795355
      25A     -0.767275    26A     -0.728997    27A     -0.690343
      28A     -0.677165    29A     -0.657587    30A     -0.647801
      31A     -0.626410    32A     -0.617014    33A     -0.604144
      34A     -0.586160    35A     -0.567064    36A     -0.558713
      37A     -0.542796    38A     -0.537902    39A     -0.527646
      40A     -0.515130    41A     -0.457311    42A     -0.444711
      43A     -0.419517    44A     -0.406660    45A     -0.355568
      46A     -0.332524

  @DF-RHF Final Energy:  -568.46465575967227

   => Energetics <=

    Nuclear Repulsion Energy =            760.2712927147548498
    One-Electron Energy =               -2280.6103471154433464
    Two-Electron Energy =                 951.8743986410161142
    Total Energy =                       -568.4646557596722687
  Basis Set: (AUG-CC-PVTZ AUX)
    Blend: AUG-CC-PVTZ-RI
    Molecular point group: c1

    Geometry (in Angstrom), charge = 0, multiplicity = 1:

       Center              X                  Y                   Z               Mass
    ------------   -----------------  -----------------  -----------------  -----------------
         O            3.110948360052    -1.423159324270    -0.212920556506    15.994914619570
         N            0.869491360052    -1.225085324270    -0.587965556506    14.003074004430
         N            1.521771060052     1.512159275730     0.329162443494    14.003074004430
         C           -0.732914639948     0.532862675730     0.035126443494    12.000000000000
         C           -0.427912639948    -0.819926324270    -0.234930556506    12.000000000000
         C            0.297698360052     1.590786675730    -0.082466556506    12.000000000000
         C            1.883312360052     0.264232675730     1.041203443494    12.000000000000
         C           -2.065092639948     0.867918675730     0.338586443494    12.000000000000
         C           -1.449406639948    -1.783161324270    -0.229698556506    12.000000000000
         C            2.050378360052    -0.866149324270     0.046010443494    12.000000000000
         C           -0.095256639948     2.873642675730    -0.767617556506    12.000000000000
         C           -3.068757639948    -0.094049324270     0.363729443494    12.000000000000
         C           -2.759882639948    -1.424951324270     0.063042443494    12.000000000000
         H            0.960662360052    -2.063742324270    -1.156233556506     1.007825032230
         H            1.128289360052    -0.020317324270     1.790352443494     1.007825032230
         H            2.845346360052     0.410029675730     1.533652443494     1.007825032230
         H           -2.312209639948     1.903155675730     0.558793443494     1.007825032230
         H           -1.197711639948    -2.820455324270    -0.443282556506     1.007825032230
         H           -0.831356639948     3.430020675730    -0.177665556506     1.007825032230
         H           -0.540551639948     2.674070675730    -1.747123556506     1.007825032230
         H            0.796412360052     3.491674675730    -0.884103556506     1.007825032230
         H           -4.088588639948     0.189828675730     0.609652443494     1.007825032230
         H           -3.537624639948    -2.184541324270     0.068623443494     1.007825032230

  Basis Set: AUG-CC-PVTZ
    Blend: AUG-CC-PVTZ
  Basis Set: (AUG-CC-PVTZ AUX)
    Blend: AUG-CC-PVTZ-JKFIT
	 Reference Energy          =    -568.4646557596722687 [Eh]
	 Singles Energy            =      -0.0000000000000000 [Eh]
	 Same-Spin Energy          =      -0.6144326828136042 [Eh]
	 Opposite-Spin Energy      =      -1.8875485315123943 [Eh]
	 Correlation Energy        =      -2.5019812143259985 [Eh]
	 Total Energy              =    -570.9666369739982201 [Eh]

	 ================> DF-SCS-MP2 Energies <==================
	-----------------------------------------------------------
	 SCS Same-Spin Scale       =       0.3333333333333333 [-]
	 SCS Opposite-Spin Scale   =       1.2000000000000000 [-]
	 SCS Same-Spin Energy      =      -0.2048108942712014 [Eh]
	 SCS Opposite-Spin Energy  =      -2.2650582378148729 [Eh]
	 SCS Correlation Energy    =      -2.4698691320860742 [Eh]
	 SCS Total Energy          =    -570.9345248917583149 [Eh]
	-----------------------------------------------------------

  Dipole Moment: [D]
     X:    -5.1348      Y:    -0.2794      Z:     0.2419     Total:     5.1481

*** Psi4 exiting successfully. Buy a developer a beer!
