                               Psi4 1.3.2 release

  ==> Input File <==

--------------------------------------------------------------------------
#psi4
#
memory 32 gb

molecule  {
0 1
  O        3.1477550    -1.4485350    -0.2143050
  N        0.9062980    -1.2504610    -0.5893500
  N        1.5538902     1.4781874     0.3574816
  C       -0.6961080     0.5074870     0.0337420
  C       -0.3911060    -0.8453020    -0.2363150
  C        0.3345050     1.5654110    -0.0838510
  C        1.9201190     0.2388570     1.0398190
  C       -2.0282860     0.8425430     0.3372020
  C       -1.4126000    -1.8085370    -0.2310830
  C        2.0871850    -0.8915250     0.0446260
  C       -0.0584500     2.8482670    -0.7690020
  C       -3.0319510    -0.1194250     0.3623450
  C       -2.7230760    -1.4503270     0.0616580
  H        0.9974690    -2.0891180    -1.1576180
  H        1.1650960    -0.0456930     1.7889680
  H        2.8821530     0.3846540     1.5322680
  H       -2.2754030     1.8777800     0.5574090
  H       -1.1609050    -2.8458310    -0.4446670
  H       -0.7945500     3.4046450    -0.1790500
  H       -0.5037450     2.6486950    -1.7485080
  H        0.8332190     3.4662990    -0.8854880
  H       -4.0517820     0.1644530     0.6082680
  H       -3.5008180    -2.2099170     0.0672390
units angstrom
no_reorient  #important for SAPT in psi4, default
symmetry c1  #important for SAPT in psi4, default
}

set PROPERTIES_ORIGIN ["COM"]
properties('MP2/aug-cc-pvtz', properties = ['dipole'])
--------------------------------------------------------------------------

    Molecular point group: c1
  Charge       = 0
  Multiplicity = 1
  Basis Set: AUG-CC-PVTZ
    Blend: AUG-CC-PVTZ
  Basis Set: (AUG-CC-PVTZ AUX)
    Blend: AUG-CC-PVTZ-JKFIT

    Orbital Energies [Eh]
    ---------------------

    Doubly Occupied:

       1A    -20.532652     2A    -15.607240     3A    -15.567954
       4A    -11.362957     5A    -11.314568     6A    -11.303415
       7A    -11.267181     8A    -11.266576     9A    -11.266025
      10A    -11.265606    11A    -11.258411    12A    -11.253980
      13A    -11.234402    14A     -1.387744    15A     -1.275669
      16A     -1.231545    17A     -1.164712    18A     -1.065740
      19A     -1.035277    20A     -1.011146    21A     -0.951142
      22A     -0.886063    23A     -0.858290    24A     -0.795494
      25A     -0.768654    26A     -0.728873    27A     -0.691550
      28A     -0.677107    29A     -0.657692    30A     -0.647922
      31A     -0.626348    32A     -0.618092    33A     -0.605005
      34A     -0.586607    35A     -0.566977    36A     -0.558964
      37A     -0.543340    38A     -0.538582    39A     -0.527914
      40A     -0.515188    41A     -0.457827    42A     -0.444753
      43A     -0.416642    44A     -0.406382    45A     -0.355005
      46A     -0.332345

  @DF-RHF Final Energy:  -568.46480350627598

   => Energetics <=

    Nuclear Repulsion Energy =            760.4235611635607484
    One-Electron Energy =               -2280.9056132593832444
    Two-Electron Energy =                 952.0172485895463979
    Total Energy =                       -568.4648035062759845
  Basis Set: (AUG-CC-PVTZ AUX)
    Blend: AUG-CC-PVTZ-RI
    Molecular point group: c1

    Geometry (in Angstrom), charge = 0, multiplicity = 1:

       Center              X                  Y                   Z               Mass
    ------------   -----------------  -----------------  -----------------  -----------------
         O            3.111325426162    -1.422467839322    -0.215309936967    15.994914619570
         N            0.869868426162    -1.224393839322    -0.590354936967    14.003074004430
         N            1.517460626162     1.504254560678     0.356476663033    14.003074004430
         C           -0.732537573838     0.533554160678     0.032737063033    12.000000000000
         C           -0.427535573838    -0.819234839322    -0.237319936967    12.000000000000
         C            0.298075426162     1.591478160678    -0.084855936967    12.000000000000
         C            1.883689426162     0.264924160678     1.038814063033    12.000000000000
         C           -2.064715573838     0.868610160678     0.336197063033    12.000000000000
         C           -1.449029573838    -1.782469839322    -0.232087936967    12.000000000000
         C            2.050755426162    -0.865457839322     0.043621063033    12.000000000000
         C           -0.094879573838     2.874334160678    -0.770006936967    12.000000000000
         C           -3.068380573838    -0.093357839322     0.361340063033    12.000000000000
         C           -2.759505573838    -1.424259839322     0.060653063033    12.000000000000
         H            0.961039426162    -2.063050839322    -1.158622936967     1.007825032230
         H            1.128666426162    -0.019625839322     1.787963063033     1.007825032230
         H            2.845723426162     0.410721160678     1.531263063033     1.007825032230
         H           -2.311832573838     1.903847160678     0.556404063033     1.007825032230
         H           -1.197334573838    -2.819763839322    -0.445671936967     1.007825032230
         H           -0.830979573838     3.430712160678    -0.180054936967     1.007825032230
         H           -0.540174573838     2.674762160678    -1.749512936967     1.007825032230
         H            0.796789426162     3.492366160678    -0.886492936967     1.007825032230
         H           -4.088211573838     0.190520160678     0.607263063033     1.007825032230
         H           -3.537247573838    -2.183849839322     0.066234063033     1.007825032230

  Basis Set: AUG-CC-PVTZ
    Blend: AUG-CC-PVTZ
  Basis Set: (AUG-CC-PVTZ AUX)
    Blend: AUG-CC-PVTZ-JKFIT
	 Reference Energy          =    -568.4648035062759845 [Eh]
	 Singles Energy            =      -0.0000000000000000 [Eh]
	 Same-Spin Energy          =      -0.6145558818804641 [Eh]
	 Opposite-Spin Energy      =      -1.8875143335950453 [Eh]
	 Correlation Energy        =      -2.5020702154755092 [Eh]
	 Total Energy              =    -570.9668737217515400 [Eh]

	 ================> DF-SCS-MP2 Energies <==================
	-----------------------------------------------------------
	 SCS Same-Spin Scale       =       0.3333333333333333 [-]
	 SCS Opposite-Spin Scale   =       1.2000000000000000 [-]
	 SCS Same-Spin Energy      =      -0.2048519606268213 [Eh]
	 SCS Opposite-Spin Energy  =      -2.2650172003140541 [Eh]
	 SCS Correlation Energy    =      -2.4698691609408754 [Eh]
	 SCS Total Energy          =    -570.9346726672168870 [Eh]
	-----------------------------------------------------------

  Dipole Moment: [D]
     X:    -5.1209      Y:    -0.2617      Z:     0.1871     Total:     5.1310

*** Psi4 exiting successfully. Buy a developer a beer!
