                               Psi4 1.3.2 release

  ==> Input File <==

--------------------------------------------------------------------------
#psi4
#
memory 32 gb

molecule  {
0 1
  O        3.1477550    -1.4485350    -0.2143050
  N        0.9062980    -1.2504610    -0.5893500
  N        1.5545360     1.4658350     0.3351760
  C       -0.7028446     0.4840291     0.0310621
  C       -0.3911060    -0.8453020    -0.2363150
  C        0.3345050     1.5654110    -0.0838510
  C        1.9201190     0.2388570     1.0398190
  C       -2.0282860     0.8425430     0.3372020
  C       -1.4126000    -1.8085370    -0.2310830
  C        2.0871850    -0.8915250     0.0446260
  C       -0.0584500     2.8482670    -0.7690020
  C       -3.0319510    -0.1194250     0.3623450
  C       -2.7230760    -1.4503270     0.0616580
  H        0.9974690    -2.0891180    -1.1576180
  H        1.1650960    -0.0456930     1.7889680
  H        2.8821530     0.3846540     1.5322680
  H       -2.2754030     1.8777800     0.5574090
  H       -1.1609050    -2.8458310    -0.4446670
  H       -0.7945500     3.4046450    -0.1790500
  H       -0.5037450     2.6486950    -1.7485080
  H        0.8332190     3.4662990    -0.8854880
  H       -4.0517820     0.1644530     0.6082680
  H       -3.5008180    -2.2099170     0.0672390
units angstrom
no_reorient  #important for SAPT in psi4, default
symmetry c1  #important for SAPT in psi4, default
}

set PROPERTIES_ORIGIN ["COM"]
properties('MP2/aug-cc-pvtz', properties = ['dipole'])
--------------------------------------------------------------------------

    Molecular point group: c1
  Charge       = 0
  Multiplicity = 1
  Basis Set: AUG-CC-PVTZ
    Blend: AUG-CC-PVTZ
  Basis Set: (AUG-CC-PVTZ AUX)
    Blend: AUG-CC-PVTZ-JKFIT

    Orbital Energies [Eh]
    ---------------------

    Doubly Occupied:

       1A    -20.532086     2A    -15.606636     3A    -15.566962
       4A    -11.362430     5A    -11.311494     6A    -11.303597
       7A    -11.267006     8A    -11.266196     9A    -11.264866
      10A    -11.264685    11A    -11.258289    12A    -11.253796
      13A    -11.234605    14A     -1.387335    15A     -1.276131
      16A     -1.232216    17A     -1.165690    18A     -1.063999
      19A     -1.035494    20A     -1.012932    21A     -0.951568
      22A     -0.883577    23A     -0.859146    24A     -0.794831
      25A     -0.767970    26A     -0.727838    27A     -0.691099
      28A     -0.677564    29A     -0.656457    30A     -0.649655
      31A     -0.626588    32A     -0.618184    33A     -0.604667
      34A     -0.586383    35A     -0.567035    36A     -0.558867
      37A     -0.542546    38A     -0.538924    39A     -0.528569
      40A     -0.516542    41A     -0.457413    42A     -0.444419
      43A     -0.416799    44A     -0.404322    45A     -0.355276
      46A     -0.333875

  @DF-RHF Final Energy:  -568.46564863670085

   => Energetics <=

    Nuclear Repulsion Energy =            760.8527895508455003
    One-Electron Energy =               -2281.7837597998659476
    Two-Electron Energy =                 952.4653216123195989
    Total Energy =                       -568.4656486367008483
  Basis Set: (AUG-CC-PVTZ AUX)
    Blend: AUG-CC-PVTZ-RI
    Molecular point group: c1

    Geometry (in Angstrom), charge = 0, multiplicity = 1:

       Center              X                  Y                   Z               Mass
    ------------   -----------------  -----------------  -----------------  -----------------
         O            3.111737858941    -1.419857153631    -0.213330920841    15.994914619570
         N            0.870280858941    -1.221783153631    -0.588375920841    14.003074004430
         N            1.518518858941     1.494512846369     0.336150079159    14.003074004430
         C           -0.738861741059     0.512706946369     0.032036179159    12.000000000000
         C           -0.427123141059    -0.816624153631    -0.235340920841    12.000000000000
         C            0.298487858941     1.594088846369    -0.082876920841    12.000000000000
         C            1.884101858941     0.267534846369     1.040793079159    12.000000000000
         C           -2.064303141059     0.871220846369     0.338176079159    12.000000000000
         C           -1.448617141059    -1.779859153631    -0.230108920841    12.000000000000
         C            2.051167858941    -0.862847153631     0.045600079159    12.000000000000
         C           -0.094467141059     2.876944846369    -0.768027920841    12.000000000000
         C           -3.067968141059    -0.090747153631     0.363319079159    12.000000000000
         C           -2.759093141059    -1.421649153631     0.062632079159    12.000000000000
         H            0.961451858941    -2.060440153631    -1.156643920841     1.007825032230
         H            1.129078858941    -0.017015153631     1.789942079159     1.007825032230
         H            2.846135858941     0.413331846369     1.533242079159     1.007825032230
         H           -2.311420141059     1.906457846369     0.558383079159     1.007825032230
         H           -1.196922141059    -2.817153153631    -0.443692920841     1.007825032230
         H           -0.830567141059     3.433322846369    -0.178075920841     1.007825032230
         H           -0.539762141059     2.677372846369    -1.747533920841     1.007825032230
         H            0.797201858941     3.494976846369    -0.884513920841     1.007825032230
         H           -4.087799141059     0.193130846369     0.609242079159     1.007825032230
         H           -3.536835141059    -2.181239153631     0.068213079159     1.007825032230

  Basis Set: AUG-CC-PVTZ
    Blend: AUG-CC-PVTZ
  Basis Set: (AUG-CC-PVTZ AUX)
    Blend: AUG-CC-PVTZ-JKFIT
	 Reference Energy          =    -568.4656486367008483 [Eh]
	 Singles Energy            =      -0.0000000000000000 [Eh]
	 Same-Spin Energy          =      -0.6141442196389837 [Eh]
	 Opposite-Spin Energy      =      -1.8868203830997019 [Eh]
	 Correlation Energy        =      -2.5009646027386854 [Eh]
	 Total Energy              =    -570.9666132394395390 [Eh]

	 ================> DF-SCS-MP2 Energies <==================
	-----------------------------------------------------------
	 SCS Same-Spin Scale       =       0.3333333333333333 [-]
	 SCS Opposite-Spin Scale   =       1.2000000000000000 [-]
	 SCS Same-Spin Energy      =      -0.2047147398796612 [Eh]
	 SCS Opposite-Spin Energy  =      -2.2641844597196421 [Eh]
	 SCS Correlation Energy    =      -2.4688991995993033 [Eh]
	 SCS Total Energy          =    -570.9345478363001121 [Eh]
	-----------------------------------------------------------

  Dipole Moment: [D]
     X:    -5.1144      Y:    -0.2149      Z:     0.2277     Total:     5.1240

*** Psi4 exiting successfully. Buy a developer a beer!
