                               Psi4 1.3.2 release

  ==> Input File <==

--------------------------------------------------------------------------
#psi4
#
memory 32 gb

molecule  {
0 1
  O        3.1477550    -1.4485350    -0.2143050
  N        0.9209270    -1.2038198    -0.5857131
  N        1.5545360     1.4658350     0.3351760
  C       -0.6961080     0.5074870     0.0337420
  C       -0.3911060    -0.8453020    -0.2363150
  C        0.3345050     1.5654110    -0.0838510
  C        1.9201190     0.2388570     1.0398190
  C       -2.0282860     0.8425430     0.3372020
  C       -1.4126000    -1.8085370    -0.2310830
  C        2.0871850    -0.8915250     0.0446260
  C       -0.0584500     2.8482670    -0.7690020
  C       -3.0319510    -0.1194250     0.3623450
  C       -2.7230760    -1.4503270     0.0616580
  H        0.9974690    -2.0891180    -1.1576180
  H        1.1650960    -0.0456930     1.7889680
  H        2.8821530     0.3846540     1.5322680
  H       -2.2754030     1.8777800     0.5574090
  H       -1.1609050    -2.8458310    -0.4446670
  H       -0.7945500     3.4046450    -0.1790500
  H       -0.5037450     2.6486950    -1.7485080
  H        0.8332190     3.4662990    -0.8854880
  H       -4.0517820     0.1644530     0.6082680
  H       -3.5008180    -2.2099170     0.0672390
units angstrom
no_reorient  #important for SAPT in psi4, default
symmetry c1  #important for SAPT in psi4, default
}

set PROPERTIES_ORIGIN ["COM"]
properties('MP2/aug-cc-pvtz', properties = ['dipole'])
--------------------------------------------------------------------------

    Molecular point group: c1
  Charge       = 0
  Multiplicity = 1
  Basis Set: AUG-CC-PVTZ
    Blend: AUG-CC-PVTZ
  Basis Set: (AUG-CC-PVTZ AUX)
    Blend: AUG-CC-PVTZ-JKFIT

    Orbital Energies [Eh]
    ---------------------

    Doubly Occupied:

       1A    -20.529656     2A    -15.610961     3A    -15.566873
       4A    -11.359632     5A    -11.315460     6A    -11.301902
       7A    -11.267049     8A    -11.266683     9A    -11.265777
      10A    -11.265022    11A    -11.260561    12A    -11.254868
      13A    -11.234065    14A     -1.387578    15A     -1.278316
      16A     -1.232142    17A     -1.166209    18A     -1.066079
      19A     -1.037513    20A     -1.010665    21A     -0.950784
      22A     -0.887154    23A     -0.860607    24A     -0.794975
      25A     -0.766655    26A     -0.726602    27A     -0.692149
      28A     -0.677019    29A     -0.659127    30A     -0.646773
      31A     -0.626812    32A     -0.618233    33A     -0.600008
      34A     -0.586375    35A     -0.568187    36A     -0.559172
      37A     -0.543712    38A     -0.539047    39A     -0.528328
      40A     -0.514504    41A     -0.457290    42A     -0.444392
      43A     -0.417365    44A     -0.404388    45A     -0.355411
      46A     -0.334120

  @DF-RHF Final Energy:  -568.46202739568366

   => Energetics <=

    Nuclear Repulsion Energy =            761.4343870525774491
    One-Electron Energy =               -2282.9204349324368195
    Two-Electron Energy =                 953.0240204841757077
    Total Energy =                       -568.4620273956836627
  Basis Set: (AUG-CC-PVTZ AUX)
    Blend: AUG-CC-PVTZ-RI
    Molecular point group: c1

    Geometry (in Angstrom), charge = 0, multiplicity = 1:

       Center              X                  Y                   Z               Mass
    ------------   -----------------  -----------------  -----------------  -----------------
         O            3.110096709486    -1.425226056802    -0.213808212361    15.994914619570
         N            0.883268709486    -1.180510856802    -0.585216312361    14.003074004430
         N            1.516877709486     1.489143943198     0.335672787639    14.003074004430
         C           -0.733766290514     0.530795943198     0.034238787639    12.000000000000
         C           -0.428764290514    -0.821993056802    -0.235818212361    12.000000000000
         C            0.296846709486     1.588719943198    -0.083354212361    12.000000000000
         C            1.882460709486     0.262165943198     1.040315787639    12.000000000000
         C           -2.065944290514     0.865851943198     0.337698787639    12.000000000000
         C           -1.450258290514    -1.785228056802    -0.230586212361    12.000000000000
         C            2.049526709486    -0.868216056802     0.045122787639    12.000000000000
         C           -0.096108290514     2.871575943198    -0.768505212361    12.000000000000
         C           -3.069609290514    -0.096116056802     0.362841787639    12.000000000000
         C           -2.760734290514    -1.427018056802     0.062154787639    12.000000000000
         H            0.959810709486    -2.065809056802    -1.157121212361     1.007825032230
         H            1.127437709486    -0.022384056802     1.789464787639     1.007825032230
         H            2.844494709486     0.407962943198     1.532764787639     1.007825032230
         H           -2.313061290514     1.901088943198     0.557905787639     1.007825032230
         H           -1.198563290514    -2.822522056802    -0.444170212361     1.007825032230
         H           -0.832208290514     3.427953943198    -0.178553212361     1.007825032230
         H           -0.541403290514     2.672003943198    -1.748011212361     1.007825032230
         H            0.795560709486     3.489607943198    -0.884991212361     1.007825032230
         H           -4.089440290514     0.187761943198     0.608764787639     1.007825032230
         H           -3.538476290514    -2.186608056802     0.067735787639     1.007825032230

  Basis Set: AUG-CC-PVTZ
    Blend: AUG-CC-PVTZ
  Basis Set: (AUG-CC-PVTZ AUX)
    Blend: AUG-CC-PVTZ-JKFIT
	 Reference Energy          =    -568.4620273956836627 [Eh]
	 Singles Energy            =      -0.0000000000000000 [Eh]
	 Same-Spin Energy          =      -0.6149780853608261 [Eh]
	 Opposite-Spin Energy      =      -1.8879677239589494 [Eh]
	 Correlation Energy        =      -2.5029458093197756 [Eh]
	 Total Energy              =    -570.9649732050033890 [Eh]

	 ================> DF-SCS-MP2 Energies <==================
	-----------------------------------------------------------
	 SCS Same-Spin Scale       =       0.3333333333333333 [-]
	 SCS Opposite-Spin Scale   =       1.2000000000000000 [-]
	 SCS Same-Spin Energy      =      -0.2049926951202753 [Eh]
	 SCS Opposite-Spin Energy  =      -2.2655612687507394 [Eh]
	 SCS Correlation Energy    =      -2.4705539638710148 [Eh]
	 SCS Total Energy          =    -570.9325813595546606 [Eh]
	-----------------------------------------------------------

  Dipole Moment: [D]
     X:    -5.2610      Y:    -0.2807      Z:     0.2212     Total:     5.2732

*** Psi4 exiting successfully. Buy a developer a beer!
