                               Psi4 1.3.2 release

  ==> Input File <==

--------------------------------------------------------------------------
#psi4
#
memory 32 gb

molecule  {
0 1
  O        3.1477550    -1.4485350    -0.2143050
  N        0.9062980    -1.2504610    -0.5893500
  N        1.5545360     1.4658350     0.3351760
  C       -0.6961080     0.5074870     0.0337420
  C       -0.3911060    -0.8453020    -0.2363150
  C        0.3392713     1.5858141    -0.0922715
  C        1.9201190     0.2388570     1.0398190
  C       -2.0282860     0.8425430     0.3372020
  C       -1.4126000    -1.8085370    -0.2310830
  C        2.0871850    -0.8915250     0.0446260
  C       -0.0584500     2.8482670    -0.7690020
  C       -3.0319510    -0.1194250     0.3623450
  C       -2.7230760    -1.4503270     0.0616580
  H        0.9974690    -2.0891180    -1.1576180
  H        1.1650960    -0.0456930     1.7889680
  H        2.8821530     0.3846540     1.5322680
  H       -2.2754030     1.8777800     0.5574090
  H       -1.1609050    -2.8458310    -0.4446670
  H       -0.7945500     3.4046450    -0.1790500
  H       -0.5037450     2.6486950    -1.7485080
  H        0.8332190     3.4662990    -0.8854880
  H       -4.0517820     0.1644530     0.6082680
  H       -3.5008180    -2.2099170     0.0672390
units angstrom
no_reorient  #important for SAPT in psi4, default
symmetry c1  #important for SAPT in psi4, default
}

set PROPERTIES_ORIGIN ["COM"]
properties('MP2/aug-cc-pvtz', properties = ['dipole'])
--------------------------------------------------------------------------

    Molecular point group: c1
  Charge       = 0
  Multiplicity = 1
  Basis Set: AUG-CC-PVTZ
    Blend: AUG-CC-PVTZ
  Basis Set: (AUG-CC-PVTZ AUX)
    Blend: AUG-CC-PVTZ-JKFIT

    Orbital Energies [Eh]
    ---------------------

    Doubly Occupied:

       1A    -20.532196     2A    -15.606577     3A    -15.566780
       4A    -11.362565     5A    -11.313676     6A    -11.303239
       7A    -11.267704     8A    -11.266721     9A    -11.265177
      10A    -11.264628    11A    -11.257797    12A    -11.253190
      13A    -11.234318    14A     -1.387367    15A     -1.275183
      16A     -1.232536    17A     -1.163634    18A     -1.065108
      19A     -1.034957    20A     -1.013179    21A     -0.953616
      22A     -0.883318    23A     -0.857342    24A     -0.794421
      25A     -0.767160    26A     -0.728258    27A     -0.691474
      28A     -0.677495    29A     -0.656759    30A     -0.648184
      31A     -0.625872    32A     -0.620150    33A     -0.604616
      34A     -0.588604    35A     -0.566554    36A     -0.559466
      37A     -0.544284    38A     -0.538858    39A     -0.527441
      40A     -0.516659    41A     -0.457217    42A     -0.444205
      43A     -0.416233    44A     -0.404189    45A     -0.354896
      46A     -0.331604

  @DF-RHF Final Energy:  -568.46526459628546

   => Energetics <=

    Nuclear Repulsion Energy =            760.4717020834223149
    One-Electron Energy =               -2281.0231186935679943
    Two-Electron Energy =                 952.0861520138602145
    Total Energy =                       -568.4652645962854649
  Basis Set: (AUG-CC-PVTZ AUX)
    Blend: AUG-CC-PVTZ-RI
    Molecular point group: c1

    Geometry (in Angstrom), charge = 0, multiplicity = 1:

       Center              X                  Y                   Z               Mass
    ------------   -----------------  -----------------  -----------------  -----------------
         O            3.110944916933    -1.422880671998    -0.212935197772    15.994914619570
         N            0.869487916933    -1.224806671998    -0.587980197772    14.003074004430
         N            1.517725916933     1.491489328002     0.336545802228    14.003074004430
         C           -0.732918083067     0.533141328002     0.035111802228    12.000000000000
         C           -0.427916083067    -0.819647671998    -0.234945197772    12.000000000000
         C            0.302461216933     1.611468428002    -0.090901697772    12.000000000000
         C            1.883308916933     0.264511328002     1.041188802228    12.000000000000
         C           -2.065096083067     0.868197328002     0.338571802228    12.000000000000
         C           -1.449410083067    -1.782882671998    -0.229713197772    12.000000000000
         C            2.050374916933    -0.865870671998     0.045995802228    12.000000000000
         C           -0.095260083067     2.873921328002    -0.767632197772    12.000000000000
         C           -3.068761083067    -0.093770671998     0.363714802228    12.000000000000
         C           -2.759886083067    -1.424672671998     0.063027802228    12.000000000000
         H            0.960658916933    -2.063463671998    -1.156248197772     1.007825032230
         H            1.128285916933    -0.020038671998     1.790337802228     1.007825032230
         H            2.845342916933     0.410308328002     1.533637802228     1.007825032230
         H           -2.312213083067     1.903434328002     0.558778802228     1.007825032230
         H           -1.197715083067    -2.820176671998    -0.443297197772     1.007825032230
         H           -0.831360083067     3.430299328002    -0.177680197772     1.007825032230
         H           -0.540555083067     2.674349328002    -1.747138197772     1.007825032230
         H            0.796408916933     3.491953328002    -0.884118197772     1.007825032230
         H           -4.088592083067     0.190107328002     0.609637802228     1.007825032230
         H           -3.537628083067    -2.184262671998     0.068608802228     1.007825032230

  Basis Set: AUG-CC-PVTZ
    Blend: AUG-CC-PVTZ
  Basis Set: (AUG-CC-PVTZ AUX)
    Blend: AUG-CC-PVTZ-JKFIT
	 Reference Energy          =    -568.4652645962854649 [Eh]
	 Singles Energy            =      -0.0000000000000000 [Eh]
	 Same-Spin Energy          =      -0.6143920116457209 [Eh]
	 Opposite-Spin Energy      =      -1.8870161950449118 [Eh]
	 Correlation Energy        =      -2.5014082066906327 [Eh]
	 Total Energy              =    -570.9666728029760634 [Eh]

	 ================> DF-SCS-MP2 Energies <==================
	-----------------------------------------------------------
	 SCS Same-Spin Scale       =       0.3333333333333333 [-]
	 SCS Opposite-Spin Scale   =       1.2000000000000000 [-]
	 SCS Same-Spin Energy      =      -0.2047973372152403 [Eh]
	 SCS Opposite-Spin Energy  =      -2.2644194340538939 [Eh]
	 SCS Correlation Energy    =      -2.4692167712691342 [Eh]
	 SCS Total Energy          =    -570.9344813675545538 [Eh]
	-----------------------------------------------------------

  Dipole Moment: [D]
     X:    -5.0931      Y:    -0.1682      Z:     0.2038     Total:     5.0999

*** Psi4 exiting successfully. Buy a developer a beer!
