                               Psi4 1.3.2 release

  ==> Input File <==

--------------------------------------------------------------------------
#psi4
#
memory 32 gb

molecule  {
0 1
  O        3.1851795    -1.3974399    -0.1567998
  N        0.9062980    -1.2504610    -0.5893500
  N        1.5545360     1.4658350     0.3351760
  C       -0.6961080     0.5074870     0.0337420
  C       -0.3911060    -0.8453020    -0.2363150
  C        0.3345050     1.5654110    -0.0838510
  C        1.9201190     0.2388570     1.0398190
  C       -2.0282860     0.8425430     0.3372020
  C       -1.4126000    -1.8085370    -0.2310830
  C        2.0871850    -0.8915250     0.0446260
  C       -0.0584500     2.8482670    -0.7690020
  C       -3.0319510    -0.1194250     0.3623450
  C       -2.7230760    -1.4503270     0.0616580
  H        0.9974690    -2.0891180    -1.1576180
  H        1.1650960    -0.0456930     1.7889680
  H        2.8821530     0.3846540     1.5322680
  H       -2.2754030     1.8777800     0.5574090
  H       -1.1609050    -2.8458310    -0.4446670
  H       -0.7945500     3.4046450    -0.1790500
  H       -0.5037450     2.6486950    -1.7485080
  H        0.8332190     3.4662990    -0.8854880
  H       -4.0517820     0.1644530     0.6082680
  H       -3.5008180    -2.2099170     0.0672390
units angstrom
no_reorient  #important for SAPT in psi4, default
symmetry c1  #important for SAPT in psi4, default
}

set PROPERTIES_ORIGIN ["COM"]
properties('MP2/aug-cc-pvtz', properties = ['dipole'])
--------------------------------------------------------------------------

    Molecular point group: c1
  Charge       = 0
  Multiplicity = 1
  Basis Set: AUG-CC-PVTZ
    Blend: AUG-CC-PVTZ
  Basis Set: (AUG-CC-PVTZ AUX)
    Blend: AUG-CC-PVTZ-JKFIT

    Orbital Energies [Eh]
    ---------------------

    Doubly Occupied:

       1A    -20.533008     2A    -15.611016     3A    -15.565939
       4A    -11.362579     5A    -11.315799     6A    -11.301059
       7A    -11.267250     8A    -11.266099     9A    -11.265886
      10A    -11.262896    11A    -11.259335    12A    -11.254465
      13A    -11.233603    14A     -1.386534    15A     -1.278504
      16A     -1.232836    17A     -1.165453    18A     -1.065062
      19A     -1.035862    20A     -1.010969    21A     -0.949694
      22A     -0.886346    23A     -0.859194    24A     -0.796100
      25A     -0.768106    26A     -0.729771    27A     -0.691456
      28A     -0.677314    29A     -0.657921    30A     -0.648753
      31A     -0.626511    32A     -0.618205    33A     -0.603492
      34A     -0.586139    35A     -0.567073    36A     -0.558697
      37A     -0.543451    38A     -0.538579    39A     -0.527807
      40A     -0.515338    41A     -0.457392    42A     -0.446666
      43A     -0.416088    44A     -0.403133    45A     -0.354740
      46A     -0.333687

  @DF-RHF Final Energy:  -568.46403604816578

   => Energetics <=

    Nuclear Repulsion Energy =            760.6586278014681284
    One-Electron Energy =               -2281.3737147117126369
    Two-Electron Energy =                 952.2510508620787277
    Total Energy =                       -568.4640360481657808
  Basis Set: (AUG-CC-PVTZ AUX)
    Blend: AUG-CC-PVTZ-RI
    Molecular point group: c1

    Geometry (in Angstrom), charge = 0, multiplicity = 1:

       Center              X                  Y                   Z               Mass
    ------------   -----------------  -----------------  -----------------  -----------------
         O            3.145259305381    -1.375073869455    -0.161294202696    15.994914619570
         N            0.866377805381    -1.228094969455    -0.593844402696    14.003074004430
         N            1.514615805381     1.488201030545     0.330681597304    14.003074004430
         C           -0.736028194619     0.529853030545     0.029247597304    12.000000000000
         C           -0.431026194619    -0.822935969455    -0.240809402696    12.000000000000
         C            0.294584805381     1.587777030545    -0.088345402696    12.000000000000
         C            1.880198805381     0.261223030545     1.035324597304    12.000000000000
         C           -2.068206194619     0.864909030545     0.332707597304    12.000000000000
         C           -1.452520194619    -1.786170969455    -0.235577402696    12.000000000000
         C            2.047264805381    -0.869158969455     0.040131597304    12.000000000000
         C           -0.098370194619     2.870633030545    -0.773496402696    12.000000000000
         C           -3.071871194619    -0.097058969455     0.357850597304    12.000000000000
         C           -2.762996194619    -1.427960969455     0.057163597304    12.000000000000
         H            0.957548805381    -2.066751969455    -1.162112402696     1.007825032230
         H            1.125175805381    -0.023326969455     1.784473597304     1.007825032230
         H            2.842232805381     0.407020030545     1.527773597304     1.007825032230
         H           -2.315323194619     1.900146030545     0.552914597304     1.007825032230
         H           -1.200825194619    -2.823464969455    -0.449161402696     1.007825032230
         H           -0.834470194619     3.427011030545    -0.183544402696     1.007825032230
         H           -0.543665194619     2.671061030545    -1.753002402696     1.007825032230
         H            0.793298805381     3.488665030545    -0.889982402696     1.007825032230
         H           -4.091702194619     0.186819030545     0.603773597304     1.007825032230
         H           -3.540738194619    -2.187550969455     0.062744597304     1.007825032230

  Basis Set: AUG-CC-PVTZ
    Blend: AUG-CC-PVTZ
  Basis Set: (AUG-CC-PVTZ AUX)
    Blend: AUG-CC-PVTZ-JKFIT
	 Reference Energy          =    -568.4640360481657808 [Eh]
	 Singles Energy            =      -0.0000000000000000 [Eh]
	 Same-Spin Energy          =      -0.6145505271834104 [Eh]
	 Opposite-Spin Energy      =      -1.8874491137392404 [Eh]
	 Correlation Energy        =      -2.5019996409226506 [Eh]
	 Total Energy              =    -570.9660356890884714 [Eh]

	 ================> DF-SCS-MP2 Energies <==================
	-----------------------------------------------------------
	 SCS Same-Spin Scale       =       0.3333333333333333 [-]
	 SCS Opposite-Spin Scale   =       1.2000000000000000 [-]
	 SCS Same-Spin Energy      =      -0.2048501757278035 [Eh]
	 SCS Opposite-Spin Energy  =      -2.2649389364870882 [Eh]
	 SCS Correlation Energy    =      -2.4697891122148916 [Eh]
	 SCS Total Energy          =    -570.9338251603807066 [Eh]
	-----------------------------------------------------------

  Dipole Moment: [D]
     X:    -5.2060      Y:    -0.3731      Z:     0.1031     Total:     5.2204

*** Psi4 exiting successfully. Buy a developer a beer!
