                               Psi4 1.3.2 release

  ==> Input File <==

--------------------------------------------------------------------------
#psi4
#
memory 32 gb

molecule  {
0 1
  O        3.1477550    -1.4485350    -0.2143050
  N        0.9062980    -1.2504610    -0.5893500
  N        1.5545360     1.4658350     0.3351760
  C       -0.6961080     0.5074870     0.0337420
  C       -0.3440002    -0.8324166    -0.2431577
  C        0.3345050     1.5654110    -0.0838510
  C        1.9201190     0.2388570     1.0398190
  C       -2.0282860     0.8425430     0.3372020
  C       -1.4126000    -1.8085370    -0.2310830
  C        2.0871850    -0.8915250     0.0446260
  C       -0.0584500     2.8482670    -0.7690020
  C       -3.0319510    -0.1194250     0.3623450
  C       -2.7230760    -1.4503270     0.0616580
  H        0.9974690    -2.0891180    -1.1576180
  H        1.1650960    -0.0456930     1.7889680
  H        2.8821530     0.3846540     1.5322680
  H       -2.2754030     1.8777800     0.5574090
  H       -1.1609050    -2.8458310    -0.4446670
  H       -0.7945500     3.4046450    -0.1790500
  H       -0.5037450     2.6486950    -1.7485080
  H        0.8332190     3.4662990    -0.8854880
  H       -4.0517820     0.1644530     0.6082680
  H       -3.5008180    -2.2099170     0.0672390
units angstrom
no_reorient  #important for SAPT in psi4, default
symmetry c1  #important for SAPT in psi4, default
}

set PROPERTIES_ORIGIN ["COM"]
properties('MP2/aug-cc-pvtz', properties = ['dipole'])
--------------------------------------------------------------------------

    Molecular point group: c1
  Charge       = 0
  Multiplicity = 1
  Basis Set: AUG-CC-PVTZ
    Blend: AUG-CC-PVTZ
  Basis Set: (AUG-CC-PVTZ AUX)
    Blend: AUG-CC-PVTZ-JKFIT

    Orbital Energies [Eh]
    ---------------------

    Doubly Occupied:

       1A    -20.535324     2A    -15.611265     3A    -15.566250
       4A    -11.365118     5A    -11.316869     6A    -11.301165
       7A    -11.267938     8A    -11.265683     9A    -11.264177
      10A    -11.264124    11A    -11.260585    12A    -11.252127
      13A    -11.233444    14A     -1.391543    15A     -1.286006
      16A     -1.235886    17A     -1.160862    18A     -1.064627
      19A     -1.030282    20A     -1.010658    21A     -0.952483
      22A     -0.885910    23A     -0.861285    24A     -0.797119
      25A     -0.767408    26A     -0.734201    27A     -0.693917
      28A     -0.679424    29A     -0.657612    30A     -0.647312
      31A     -0.623841    32A     -0.618631    33A     -0.607145
      34A     -0.586150    35A     -0.569700    36A     -0.558347
      37A     -0.542355    38A     -0.539882    39A     -0.526156
      40A     -0.511799    41A     -0.459727    42A     -0.448637
      43A     -0.416284    44A     -0.405706    45A     -0.354191
      46A     -0.326615

  @DF-RHF Final Energy:  -568.46200523553648

   => Energetics <=

    Nuclear Repulsion Energy =            760.9935675325915554
    One-Electron Energy =               -2281.9996050182858198
    Two-Electron Energy =                 952.5440322501578976
    Total Energy =                       -568.4620052355364805
  Basis Set: (AUG-CC-PVTZ AUX)
    Blend: AUG-CC-PVTZ-RI
    Molecular point group: c1

    Geometry (in Angstrom), charge = 0, multiplicity = 1:

       Center              X                  Y                   Z               Mass
    ------------   -----------------  -----------------  -----------------  -----------------
         O            3.108026281793    -1.422362446148    -0.213043961988    15.994914619570
         N            0.866569281793    -1.224288446148    -0.588088961988    14.003074004430
         N            1.514807281793     1.492007553852     0.336437038012    14.003074004430
         C           -0.735836718207     0.533659553852     0.035003038012    12.000000000000
         C           -0.383728918207    -0.806244046148    -0.241896661988    12.000000000000
         C            0.294776281793     1.591583553852    -0.082589961988    12.000000000000
         C            1.880390281793     0.265029553852     1.041080038012    12.000000000000
         C           -2.068014718207     0.868715553852     0.338463038012    12.000000000000
         C           -1.452328718207    -1.782364446148    -0.229821961988    12.000000000000
         C            2.047456281793    -0.865352446148     0.045887038012    12.000000000000
         C           -0.098178718207     2.874439553852    -0.767740961988    12.000000000000
         C           -3.071679718207    -0.093252446148     0.363606038012    12.000000000000
         C           -2.762804718207    -1.424154446148     0.062919038012    12.000000000000
         H            0.957740281793    -2.062945446148    -1.156356961988     1.007825032230
         H            1.125367281793    -0.019520446148     1.790229038012     1.007825032230
         H            2.842424281793     0.410826553852     1.533529038012     1.007825032230
         H           -2.315131718207     1.903952553852     0.558670038012     1.007825032230
         H           -1.200633718207    -2.819658446148    -0.443405961988     1.007825032230
         H           -0.834278718207     3.430817553852    -0.177788961988     1.007825032230
         H           -0.543473718207     2.674867553852    -1.747246961988     1.007825032230
         H            0.793490281793     3.492471553852    -0.884226961988     1.007825032230
         H           -4.091510718207     0.190625553852     0.609529038012     1.007825032230
         H           -3.540546718207    -2.183744446148     0.068500038012     1.007825032230

  Basis Set: AUG-CC-PVTZ
    Blend: AUG-CC-PVTZ
  Basis Set: (AUG-CC-PVTZ AUX)
    Blend: AUG-CC-PVTZ-JKFIT
	 Reference Energy          =    -568.4620052355364805 [Eh]
	 Singles Energy            =      -0.0000000000000000 [Eh]
	 Same-Spin Energy          =      -0.6148940520707739 [Eh]
	 Opposite-Spin Energy      =      -1.8876703346840937 [Eh]
	 Correlation Energy        =      -2.5025643867548677 [Eh]
	 Total Energy              =    -570.9645696222913784 [Eh]

	 ================> DF-SCS-MP2 Energies <==================
	-----------------------------------------------------------
	 SCS Same-Spin Scale       =       0.3333333333333333 [-]
	 SCS Opposite-Spin Scale   =       1.2000000000000000 [-]
	 SCS Same-Spin Energy      =      -0.2049646840235913 [Eh]
	 SCS Opposite-Spin Energy  =      -2.2652044016209123 [Eh]
	 SCS Correlation Energy    =      -2.4701690856445038 [Eh]
	 SCS Total Energy          =    -570.9321743211810372 [Eh]
	-----------------------------------------------------------

  Dipole Moment: [D]
     X:    -4.9083      Y:    -0.3016      Z:     0.1826     Total:     4.9210

*** Psi4 exiting successfully. Buy a developer a beer!
