                               Psi4 1.3.2 release

  ==> Input File <==

--------------------------------------------------------------------------
#psi4
#
memory 32 gb

molecule  {
0 1
  O        3.1477550    -1.4485350    -0.2143050
  N        0.9062980    -1.2504610    -0.5893500
  N        1.5217056     1.3421453     0.3794868
  C       -0.6961080     0.5074870     0.0337420
  C       -0.3911060    -0.8453020    -0.2363150
  C        0.3345050     1.5654110    -0.0838510
  C        1.9201190     0.2388570     1.0398190
  C       -2.0282860     0.8425430     0.3372020
  C       -1.4126000    -1.8085370    -0.2310830
  C        2.0871850    -0.8915250     0.0446260
  C       -0.0584500     2.8482670    -0.7690020
  C       -3.0319510    -0.1194250     0.3623450
  C       -2.7230760    -1.4503270     0.0616580
  H        0.9974690    -2.0891180    -1.1576180
  H        1.1650960    -0.0456930     1.7889680
  H        2.8821530     0.3846540     1.5322680
  H       -2.2754030     1.8777800     0.5574090
  H       -1.1609050    -2.8458310    -0.4446670
  H       -0.7945500     3.4046450    -0.1790500
  H       -0.5037450     2.6486950    -1.7485080
  H        0.8332190     3.4662990    -0.8854880
  H       -4.0517820     0.1644530     0.6082680
  H       -3.5008180    -2.2099170     0.0672390
units angstrom
no_reorient  #important for SAPT in psi4, default
symmetry c1  #important for SAPT in psi4, default
}

set PROPERTIES_ORIGIN ["COM"]
properties('MP2/aug-cc-pvtz', properties = ['dipole'])
--------------------------------------------------------------------------

    Molecular point group: c1
  Charge       = 0
  Multiplicity = 1
  Basis Set: AUG-CC-PVTZ
    Blend: AUG-CC-PVTZ
  Basis Set: (AUG-CC-PVTZ AUX)
    Blend: AUG-CC-PVTZ-JKFIT

    Orbital Energies [Eh]
    ---------------------

    Doubly Occupied:

       1A    -20.531381     2A    -15.605911     3A    -15.555608
       4A    -11.361232     5A    -11.311974     6A    -11.305299
       7A    -11.263527     8A    -11.263137     9A    -11.262018
      10A    -11.261505    11A    -11.256586    12A    -11.251860
      13A    -11.239727    14A     -1.387307    15A     -1.283447
      16A     -1.243994    17A     -1.163753    18A     -1.074401
      19A     -1.033528    20A     -1.011974    21A     -0.952720
      22A     -0.886751    23A     -0.856068    24A     -0.797544
      25A     -0.772693    26A     -0.728660    27A     -0.698304
      28A     -0.682736    29A     -0.656737    30A     -0.650674
      31A     -0.627787    32A     -0.624897    33A     -0.607166
      34A     -0.588808    35A     -0.566126    36A     -0.560621
      37A     -0.557482    38A     -0.539155    39A     -0.527340
      40A     -0.515928    41A     -0.460265    42A     -0.443573
      43A     -0.405544    44A     -0.392017    45A     -0.350816
      46A     -0.330213

  @DF-RHF Final Energy:  -568.45498804891088

   => Energetics <=

    Nuclear Repulsion Energy =            763.7246119226335850
    One-Electron Energy =               -2287.4616155467547287
    Two-Electron Energy =                 955.2820155752102664
    Total Energy =                       -568.4549880489108773
  Basis Set: (AUG-CC-PVTZ AUX)
    Blend: AUG-CC-PVTZ-RI
    Molecular point group: c1

    Geometry (in Angstrom), charge = 0, multiplicity = 1:

       Center              X                  Y                   Z               Mass
    ------------   -----------------  -----------------  -----------------  -----------------
         O            3.113914380174    -1.411524508022    -0.217080052203    15.994914619570
         N            0.872457380174    -1.213450508022    -0.592125052203    14.003074004430
         N            1.487864980174     1.379155791978     0.376711747797    14.003074004430
         C           -0.729948619826     0.544497491978     0.030966947797    12.000000000000
         C           -0.424946619826    -0.808291508022    -0.239090052203    12.000000000000
         C            0.300664380174     1.602421491978    -0.086626052203    12.000000000000
         C            1.886278380174     0.275867491978     1.037043947797    12.000000000000
         C           -2.062126619826     0.879553491978     0.334426947797    12.000000000000
         C           -1.446440619826    -1.771526508022    -0.233858052203    12.000000000000
         C            2.053344380174    -0.854514508022     0.041850947797    12.000000000000
         C           -0.092290619826     2.885277491978    -0.771777052203    12.000000000000
         C           -3.065791619826    -0.082414508022     0.359569947797    12.000000000000
         C           -2.756916619826    -1.413316508022     0.058882947797    12.000000000000
         H            0.963628380174    -2.052107508022    -1.160393052203     1.007825032230
         H            1.131255380174    -0.008682508022     1.786192947797     1.007825032230
         H            2.848312380174     0.421664491978     1.529492947797     1.007825032230
         H           -2.309243619826     1.914790491978     0.554633947797     1.007825032230
         H           -1.194745619826    -2.808820508022    -0.447442052203     1.007825032230
         H           -0.828390619826     3.441655491978    -0.181825052203     1.007825032230
         H           -0.537585619826     2.685705491978    -1.751283052203     1.007825032230
         H            0.799378380174     3.503309491978    -0.888263052203     1.007825032230
         H           -4.085622619826     0.201463491978     0.605492947797     1.007825032230
         H           -3.534658619826    -2.172906508022     0.064463947797     1.007825032230

  Basis Set: AUG-CC-PVTZ
    Blend: AUG-CC-PVTZ
  Basis Set: (AUG-CC-PVTZ AUX)
    Blend: AUG-CC-PVTZ-JKFIT
	 Reference Energy          =    -568.4549880489108773 [Eh]
	 Singles Energy            =      -0.0000000000000000 [Eh]
	 Same-Spin Energy          =      -0.6155564389666195 [Eh]
	 Opposite-Spin Energy      =      -1.8865215808853313 [Eh]
	 Correlation Energy        =      -2.5020780198519508 [Eh]
	 Total Energy              =    -570.9570660687628560 [Eh]

	 ================> DF-SCS-MP2 Energies <==================
	-----------------------------------------------------------
	 SCS Same-Spin Scale       =       0.3333333333333333 [-]
	 SCS Opposite-Spin Scale   =       1.2000000000000000 [-]
	 SCS Same-Spin Energy      =      -0.2051854796555398 [Eh]
	 SCS Opposite-Spin Energy  =      -2.2638258970623975 [Eh]
	 SCS Correlation Energy    =      -2.4690113767179374 [Eh]
	 SCS Total Energy          =    -570.9239994256288355 [Eh]
	-----------------------------------------------------------

  Dipole Moment: [D]
     X:    -4.9597      Y:     0.0250      Z:     0.1079     Total:     4.9610

*** Psi4 exiting successfully. Buy a developer a beer!
