                               Psi4 1.4a3.dev225

  ==> Input File <==

--------------------------------------------------------------------------
#psi4
#
memory 32 gb

molecule  {
0 1
  O        3.1477550    -1.4485350    -0.2143050
  N        0.9062980    -1.2504610    -0.5893500
  N        1.5545360     1.4658350     0.3351760
  C       -0.6961080     0.5074870     0.0337420
  C       -0.3911060    -0.8453020    -0.2363150
  C        0.3345050     1.5654110    -0.0838510
  C        1.9201190     0.2388570     1.0398190
  C       -2.0282860     0.8425430     0.3372020
  C       -1.4126000    -1.8085370    -0.2310830
  C        2.0871850    -0.8915250     0.0446260
  C       -0.0714919     2.8908442    -0.7917417
  C       -3.0319510    -0.1194250     0.3623450
  C       -2.7230760    -1.4503270     0.0616580
  H        0.9974690    -2.0891180    -1.1576180
  H        1.1650960    -0.0456930     1.7889680
  H        2.8821530     0.3846540     1.5322680
  H       -2.2754030     1.8777800     0.5574090
  H       -1.1609050    -2.8458310    -0.4446670
  H       -0.7945500     3.4046450    -0.1790500
  H       -0.5037450     2.6486950    -1.7485080
  H        0.8332190     3.4662990    -0.8854880
  H       -4.0517820     0.1644530     0.6082680
  H       -3.5008180    -2.2099170     0.0672390
units angstrom
no_reorient  #important for SAPT in psi4, default
symmetry c1  #important for SAPT in psi4, default
}

set PROPERTIES_ORIGIN ["COM"]
properties('MP2/aug-cc-pvtz', properties = ['dipole'])
--------------------------------------------------------------------------

    Molecular point group: c1
  Charge       = 0
  Multiplicity = 1
  Basis Set: AUG-CC-PVTZ
    Blend: AUG-CC-PVTZ
  Basis Set: (AUG-CC-PVTZ AUX)
    Blend: AUG-CC-PVTZ-JKFIT

    Orbital Energies [Eh]
    ---------------------

    Doubly Occupied:

       1A    -20.532257     2A    -15.607054     3A    -15.567178
       4A    -11.362599     5A    -11.314400     6A    -11.304175
       7A    -11.267191     8A    -11.266923     9A    -11.265748
      10A    -11.265465    11A    -11.258304    12A    -11.253815
      13A    -11.233310    14A     -1.387494    15A     -1.275653
      16A     -1.231417    17A     -1.164480    18A     -1.063412
      19A     -1.034957    20A     -1.008613    21A     -0.952314
      22A     -0.886311    23A     -0.858183    24A     -0.795072
      25A     -0.767787    26A     -0.728255    27A     -0.690186
      28A     -0.677704    29A     -0.657213    30A     -0.647914
      31A     -0.626484    32A     -0.613683    33A     -0.604314
      34A     -0.591575    35A     -0.567296    36A     -0.562796
      37A     -0.546851    38A     -0.537187    39A     -0.528970
      40A     -0.511296    41A     -0.458497    42A     -0.444596
      43A     -0.416590    44A     -0.405433    45A     -0.354818
      46A     -0.332215

  @DF-RHF Final Energy:  -568.46393882309246

   => Energetics <=

    Nuclear Repulsion Energy =            759.7356547829207329
    One-Electron Energy =               -2279.5432142826657582
    Two-Electron Energy =                 951.3436206766524492
    Total Energy =                       -568.4639388230924624
  Basis Set: (AUG-CC-PVTZ AUX)
    Blend: AUG-CC-PVTZ-RI
    Molecular point group: c1

    Geometry (in Angstrom), charge = 0, multiplicity = 1:

       Center              X                  Y                   Z               Mass
    ------------   -----------------  -----------------  -----------------  -----------------
         O            3.112172509094    -1.424409223527    -0.211948116670    15.994914619570
         N            0.870715509094    -1.226335223527    -0.586993116670    14.003074004430
         N            1.518953509094     1.489960776473     0.337532883330    14.003074004430
         C           -0.731690490906     0.531612776473     0.036098883330    12.000000000000
         C           -0.426688490906    -0.821176223527    -0.233958116670    12.000000000000
         C            0.298922509094     1.589536776473    -0.081494116670    12.000000000000
         C            1.884536509094     0.262982776473     1.042175883330    12.000000000000
         C           -2.063868490906     0.866668776473     0.339558883330    12.000000000000
         C           -1.448182490906    -1.784411223527    -0.228726116670    12.000000000000
         C            2.051602509094    -0.867399223527     0.046982883330    12.000000000000
         C           -0.107074390906     2.914969976473    -0.789384816670    12.000000000000
         C           -3.067533490906    -0.095299223527     0.364701883330    12.000000000000
         C           -2.758658490906    -1.426201223527     0.064014883330    12.000000000000
         H            0.961886509094    -2.064992223527    -1.155261116670     1.007825032230
         H            1.129513509094    -0.021567223527     1.791324883330     1.007825032230
         H            2.846570509094     0.408779776473     1.534624883330     1.007825032230
         H           -2.310985490906     1.901905776473     0.559765883330     1.007825032230
         H           -1.196487490906    -2.821705223527    -0.442310116670     1.007825032230
         H           -0.830132490906     3.428770776473    -0.176693116670     1.007825032230
         H           -0.539327490906     2.672820776473    -1.746151116670     1.007825032230
         H            0.797636509094     3.490424776473    -0.883131116670     1.007825032230
         H           -4.087364490906     0.188578776473     0.610624883330     1.007825032230
         H           -3.536400490906    -2.185791223527     0.069595883330     1.007825032230

  Basis Set: AUG-CC-PVTZ
    Blend: AUG-CC-PVTZ
  Basis Set: (AUG-CC-PVTZ AUX)
    Blend: AUG-CC-PVTZ-JKFIT
	 Reference Energy          =    -568.4639388230924624 [Eh]
	 Singles Energy            =      -0.0000000000000000 [Eh]
	 Same-Spin Energy          =      -0.6141594487406123 [Eh]
	 Opposite-Spin Energy      =      -1.8870003396724400 [Eh]
	 Correlation Energy        =      -2.5011597884130525 [Eh]
	 Total Energy              =    -570.9650986115054820 [Eh]

	 ================> DF-SCS-MP2 Energies <==================
	-----------------------------------------------------------
	 SCS Same-Spin Scale       =       0.3333333333333333 [-]
	 SCS Opposite-Spin Scale   =       1.2000000000000000 [-]
	 SCS Same-Spin Energy      =      -0.2047198162468708 [Eh]
	 SCS Opposite-Spin Energy  =      -2.2644004076069280 [Eh]
	 SCS Correlation Energy    =      -2.4691202238537988 [Eh]
	 SCS Total Energy          =    -570.9330590469462550 [Eh]
	-----------------------------------------------------------

  Dipole Moment: [D]
     X:    -5.1011      Y:    -0.2799      Z:     0.2444     Total:     5.1146

*** Psi4 exiting successfully. Buy a developer a beer!
