                               Psi4 1.3.2 release

  ==> Input File <==

--------------------------------------------------------------------------
#psi4
#
memory 32 gb

molecule  {
0 1
  O        3.1477550    -1.4485350    -0.2143050
  N        0.9062980    -1.2504610    -0.5893500
  N        1.6848512     1.4500295     0.2566474
  C       -0.6961080     0.5074870     0.0337420
  C       -0.3911060    -0.8453020    -0.2363150
  C        0.3345050     1.5654110    -0.0838510
  C        1.9201190     0.2388570     1.0398190
  C       -2.0282860     0.8425430     0.3372020
  C       -1.4126000    -1.8085370    -0.2310830
  C        2.0871850    -0.8915250     0.0446260
  C       -0.0584500     2.8482670    -0.7690020
  C       -3.0319510    -0.1194250     0.3623450
  C       -2.7230760    -1.4503270     0.0616580
  H        0.9974690    -2.0891180    -1.1576180
  H        1.1650960    -0.0456930     1.7889680
  H        2.8821530     0.3846540     1.5322680
  H       -2.2754030     1.8777800     0.5574090
  H       -1.1609050    -2.8458310    -0.4446670
  H       -0.7945500     3.4046450    -0.1790500
  H       -0.5037450     2.6486950    -1.7485080
  H        0.8332190     3.4662990    -0.8854880
  H       -4.0517820     0.1644530     0.6082680
  H       -3.5008180    -2.2099170     0.0672390
units angstrom
no_reorient  #important for SAPT in psi4, default
symmetry c1  #important for SAPT in psi4, default
}

set PROPERTIES_ORIGIN ["COM"]
properties('MP2/aug-cc-pvtz', properties = ['dipole'])
--------------------------------------------------------------------------

    Molecular point group: c1
  Charge       = 0
  Multiplicity = 1
  Basis Set: AUG-CC-PVTZ
    Blend: AUG-CC-PVTZ
  Basis Set: (AUG-CC-PVTZ AUX)
    Blend: AUG-CC-PVTZ-JKFIT

    Orbital Energies [Eh]
    ---------------------

    Doubly Occupied:

       1A    -20.528192     2A    -15.606891     3A    -15.579658
       4A    -11.358618     5A    -11.319725     6A    -11.318277
       7A    -11.271753     8A    -11.270330     9A    -11.269112
      10A    -11.261787    11A    -11.260392    12A    -11.256163
      13A    -11.238135    14A     -1.384246    15A     -1.272068
      16A     -1.207875    17A     -1.167232    18A     -1.070127
      19A     -1.036181    20A     -1.010496    21A     -0.939682
      22A     -0.888739    23A     -0.860267    24A     -0.793492
      25A     -0.770030    26A     -0.731547    27A     -0.684063
      28A     -0.678859    29A     -0.657602    30A     -0.647546
      31A     -0.628232    32A     -0.611090    33A     -0.601256
      34A     -0.587038    35A     -0.568073    36A     -0.561791
      37A     -0.543842    38A     -0.536068    39A     -0.524605
      40A     -0.508430    41A     -0.448739    42A     -0.443712
      43A     -0.433332    44A     -0.394939    45A     -0.349725
      46A     -0.334055

  @DF-RHF Final Energy:  -568.44071614364066

   => Energetics <=

    Nuclear Repulsion Energy =            758.5464778309026315
    One-Electron Energy =               -2277.1463644302625653
    Two-Electron Energy =                 950.1591704557192770
    Total Energy =                       -568.4407161436406568
  Basis Set: (AUG-CC-PVTZ AUX)
    Blend: AUG-CC-PVTZ-RI
    Molecular point group: c1

    Geometry (in Angstrom), charge = 0, multiplicity = 1:

       Center              X                  Y                   Z               Mass
    ------------   -----------------  -----------------  -----------------  -----------------
         O            3.100790822460    -1.420202796159    -0.207198756259    15.994914619570
         N            0.859333822460    -1.222128796159    -0.582243756259    14.003074004430
         N            1.637887022460     1.478361703841     0.263753643741    14.003074004430
         C           -0.743072177540     0.535819203841     0.040848243741    12.000000000000
         C           -0.438070177540    -0.816969796159    -0.229208756259    12.000000000000
         C            0.287540822460     1.593743203841    -0.076744756259    12.000000000000
         C            1.873154822460     0.267189203841     1.046925243741    12.000000000000
         C           -2.075250177540     0.870875203841     0.344308243741    12.000000000000
         C           -1.459564177540    -1.780204796159    -0.223976756259    12.000000000000
         C            2.040220822460    -0.863192796159     0.051732243741    12.000000000000
         C           -0.105414177540     2.876599203841    -0.761895756259    12.000000000000
         C           -3.078915177540    -0.091092796159     0.369451243741    12.000000000000
         C           -2.770040177540    -1.421994796159     0.068764243741    12.000000000000
         H            0.950504822460    -2.060785796159    -1.150511756259     1.007825032230
         H            1.118131822460    -0.017360796159     1.796074243741     1.007825032230
         H            2.835188822460     0.412986203841     1.539374243741     1.007825032230
         H           -2.322367177540     1.906112203841     0.564515243741     1.007825032230
         H           -1.207869177540    -2.817498796159    -0.437560756259     1.007825032230
         H           -0.841514177540     3.432977203841    -0.171943756259     1.007825032230
         H           -0.550709177540     2.677027203841    -1.741401756259     1.007825032230
         H            0.786254822460     3.494631203841    -0.878381756259     1.007825032230
         H           -4.098746177540     0.192785203841     0.615374243741     1.007825032230
         H           -3.547782177540    -2.181584796159     0.074345243741     1.007825032230

  Basis Set: AUG-CC-PVTZ
    Blend: AUG-CC-PVTZ
  Basis Set: (AUG-CC-PVTZ AUX)
    Blend: AUG-CC-PVTZ-JKFIT
	 Reference Energy          =    -568.4407161436406568 [Eh]
	 Singles Energy            =      -0.0000000000000000 [Eh]
	 Same-Spin Energy          =      -0.6177579351224376 [Eh]
	 Opposite-Spin Energy      =      -1.8943289800931189 [Eh]
	 Correlation Energy        =      -2.5120869152155567 [Eh]
	 Total Energy              =    -570.9528030588562615 [Eh]

	 ================> DF-SCS-MP2 Energies <==================
	-----------------------------------------------------------
	 SCS Same-Spin Scale       =       0.3333333333333333 [-]
	 SCS Opposite-Spin Scale   =       1.2000000000000000 [-]
	 SCS Same-Spin Energy      =      -0.2059193117074792 [Eh]
	 SCS Opposite-Spin Energy  =      -2.2731947761117426 [Eh]
	 SCS Correlation Energy    =      -2.4791140878192217 [Eh]
	 SCS Total Energy          =    -570.9198302314598550 [Eh]
	-----------------------------------------------------------

  Dipole Moment: [D]
     X:    -5.3480      Y:    -0.2471      Z:     0.3322     Total:     5.3640

*** Psi4 exiting successfully. Buy a developer a beer!
