                               Psi4 1.3.2 release

  ==> Input File <==

--------------------------------------------------------------------------
#psi4
#
memory 32 gb

molecule  {
0 1
  O        3.1477550    -1.4485350    -0.2143050
  N        0.9062980    -1.2504610    -0.5893500
  N        1.5545360     1.4658350     0.3351760
  C       -0.6961080     0.5074870     0.0337420
  C       -0.3911060    -0.8453020    -0.2363150
  C        0.3695502     1.5288447    -0.0943029
  C        1.9201190     0.2388570     1.0398190
  C       -2.0282860     0.8425430     0.3372020
  C       -1.4126000    -1.8085370    -0.2310830
  C        2.0871850    -0.8915250     0.0446260
  C       -0.0584500     2.8482670    -0.7690020
  C       -3.0319510    -0.1194250     0.3623450
  C       -2.7230760    -1.4503270     0.0616580
  H        0.9974690    -2.0891180    -1.1576180
  H        1.1650960    -0.0456930     1.7889680
  H        2.8821530     0.3846540     1.5322680
  H       -2.2754030     1.8777800     0.5574090
  H       -1.1609050    -2.8458310    -0.4446670
  H       -0.7945500     3.4046450    -0.1790500
  H       -0.5037450     2.6486950    -1.7485080
  H        0.8332190     3.4662990    -0.8854880
  H       -4.0517820     0.1644530     0.6082680
  H       -3.5008180    -2.2099170     0.0672390
units angstrom
no_reorient  #important for SAPT in psi4, default
symmetry c1  #important for SAPT in psi4, default
}

set PROPERTIES_ORIGIN ["COM"]
properties('MP2/aug-cc-pvtz', properties = ['dipole'])
--------------------------------------------------------------------------

    Molecular point group: c1
  Charge       = 0
  Multiplicity = 1
  Basis Set: AUG-CC-PVTZ
    Blend: AUG-CC-PVTZ
  Basis Set: (AUG-CC-PVTZ AUX)
    Blend: AUG-CC-PVTZ-JKFIT

    Orbital Energies [Eh]
    ---------------------

    Doubly Occupied:

       1A    -20.533094     2A    -15.607500     3A    -15.565962
       4A    -11.363511     5A    -11.313326     6A    -11.299370
       7A    -11.268088     8A    -11.267165     9A    -11.265563
      10A    -11.265240    11A    -11.257902    12A    -11.253989
      13A    -11.233165    14A     -1.388406    15A     -1.279884
      16A     -1.242013    17A     -1.164519    18A     -1.063213
      19A     -1.035331    20A     -1.008379    21A     -0.952050
      22A     -0.885912    23A     -0.858100    24A     -0.796299
      25A     -0.767609    26A     -0.728632    27A     -0.693510
      28A     -0.678979    29A     -0.658526    30A     -0.647252
      31A     -0.626125    32A     -0.618058    33A     -0.606201
      34A     -0.582958    35A     -0.567626    36A     -0.555378
      37A     -0.545227    38A     -0.538205    39A     -0.528204
      40A     -0.511602    41A     -0.462397    42A     -0.445087
      43A     -0.418924    44A     -0.408431    45A     -0.356363
      46A     -0.332402

  @DF-RHF Final Energy:  -568.46543501310737

   => Energetics <=

    Nuclear Repulsion Energy =            761.2677590855591916
    One-Electron Energy =               -2282.5750309249378915
    Two-Electron Energy =                 952.8418368262713329
    Total Energy =                       -568.4654350131073670
  Basis Set: (AUG-CC-PVTZ AUX)
    Blend: AUG-CC-PVTZ-RI
    Molecular point group: c1

    Geometry (in Angstrom), charge = 0, multiplicity = 1:

       Center              X                  Y                   Z               Mass
    ------------   -----------------  -----------------  -----------------  -----------------
         O            3.108857668346    -1.418953537933    -0.212795165050    15.994914619570
         N            0.867400668346    -1.220879537933    -0.587840165050    14.003074004430
         N            1.515638668346     1.495416462067     0.336685834950    14.003074004430
         C           -0.735005331654     0.537068462067     0.035251834950    12.000000000000
         C           -0.430003331654    -0.815720537933    -0.234805165050    12.000000000000
         C            0.330652868346     1.558426162067    -0.092793065050    12.000000000000
         C            1.881221668346     0.268438462067     1.041328834950    12.000000000000
         C           -2.067183331654     0.872124462067     0.338711834950    12.000000000000
         C           -1.451497331654    -1.778955537933    -0.229573165050    12.000000000000
         C            2.048287668346    -0.861943537933     0.046135834950    12.000000000000
         C           -0.097347331654     2.877848462067    -0.767492165050    12.000000000000
         C           -3.070848331654    -0.089843537933     0.363854834950    12.000000000000
         C           -2.761973331654    -1.420745537933     0.063167834950    12.000000000000
         H            0.958571668346    -2.059536537933    -1.156108165050     1.007825032230
         H            1.126198668346    -0.016111537933     1.790477834950     1.007825032230
         H            2.843255668346     0.414235462067     1.533777834950     1.007825032230
         H           -2.314300331654     1.907361462067     0.558918834950     1.007825032230
         H           -1.199802331654    -2.816249537933    -0.443157165050     1.007825032230
         H           -0.833447331654     3.434226462067    -0.177540165050     1.007825032230
         H           -0.542642331654     2.678276462067    -1.746998165050     1.007825032230
         H            0.794321668346     3.495880462067    -0.883978165050     1.007825032230
         H           -4.090679331654     0.194034462067     0.609777834950     1.007825032230
         H           -3.539715331654    -2.180335537933     0.068748834950     1.007825032230

  Basis Set: AUG-CC-PVTZ
    Blend: AUG-CC-PVTZ
  Basis Set: (AUG-CC-PVTZ AUX)
    Blend: AUG-CC-PVTZ-JKFIT
	 Reference Energy          =    -568.4654350131073670 [Eh]
	 Singles Energy            =      -0.0000000000000000 [Eh]
	 Same-Spin Energy          =      -0.6137351783730047 [Eh]
	 Opposite-Spin Energy      =      -1.8859125142954136 [Eh]
	 Correlation Energy        =      -2.4996476926684181 [Eh]
	 Total Energy              =    -570.9650827057757851 [Eh]

	 ================> DF-SCS-MP2 Energies <==================
	-----------------------------------------------------------
	 SCS Same-Spin Scale       =       0.3333333333333333 [-]
	 SCS Opposite-Spin Scale   =       1.2000000000000000 [-]
	 SCS Same-Spin Energy      =      -0.2045783927910016 [Eh]
	 SCS Opposite-Spin Energy  =      -2.2630950171544963 [Eh]
	 SCS Correlation Energy    =      -2.4676734099454980 [Eh]
	 SCS Total Energy          =    -570.9331084230528859 [Eh]
	-----------------------------------------------------------

  Dipole Moment: [D]
     X:    -5.0544      Y:    -0.3125      Z:     0.2860     Total:     5.0722

*** Psi4 exiting successfully. Buy a developer a beer!
