                               Psi4 1.3.2 release

  ==> Input File <==

--------------------------------------------------------------------------
#psi4
#
memory 32 gb

molecule  {
0 1
  O        3.1477550    -1.4485350    -0.2143050
  N        0.9062980    -1.2504610    -0.5893500
  N        1.5545360     1.4658350     0.3351760
  C       -0.6961080     0.5074870     0.0337420
  C       -0.3911060    -0.8453020    -0.2363150
  C        0.3345050     1.5654110    -0.0838510
  C        1.9201190     0.2388570     1.0398190
  C       -2.0282860     0.8425430     0.3372020
  C       -1.4126000    -1.8085370    -0.2310830
  C        2.0871850    -0.8915250     0.0446260
  C       -0.0584500     2.8482670    -0.7690020
  C       -3.0319510    -0.1194250     0.3623450
  C       -2.7230760    -1.4503270     0.0616580
  H        0.9974690    -2.0891180    -1.1576180
  H        1.1785415    -0.0446753     1.8026591
  H        2.8821530     0.3846540     1.5322680
  H       -2.2754030     1.8777800     0.5574090
  H       -1.1609050    -2.8458310    -0.4446670
  H       -0.7945500     3.4046450    -0.1790500
  H       -0.5037450     2.6486950    -1.7485080
  H        0.8332190     3.4662990    -0.8854880
  H       -4.0517820     0.1644530     0.6082680
  H       -3.5008180    -2.2099170     0.0672390
units angstrom
no_reorient  #important for SAPT in psi4, default
symmetry c1  #important for SAPT in psi4, default
}

set PROPERTIES_ORIGIN ["COM"]
properties('MP2/aug-cc-pvtz', properties = ['dipole'])
--------------------------------------------------------------------------

    Molecular point group: c1
  Charge       = 0
  Multiplicity = 1
  Basis Set: AUG-CC-PVTZ
    Blend: AUG-CC-PVTZ
  Basis Set: (AUG-CC-PVTZ AUX)
    Blend: AUG-CC-PVTZ-JKFIT

    Orbital Energies [Eh]
    ---------------------

    Doubly Occupied:

       1A    -20.532309     2A    -15.607030     3A    -15.567137
       4A    -11.362721     5A    -11.314362     6A    -11.302513
       7A    -11.266941     8A    -11.266786     9A    -11.265606
      10A    -11.265391    11A    -11.258211    12A    -11.253708
      13A    -11.234256    14A     -1.387514    15A     -1.275969
      16A     -1.232864    17A     -1.164496    18A     -1.065516
      19A     -1.035175    20A     -1.011151    21A     -0.951727
      22A     -0.885693    23A     -0.858017    24A     -0.795577
      25A     -0.768060    26A     -0.728958    27A     -0.691491
      28A     -0.677640    29A     -0.657401    30A     -0.648485
      31A     -0.626162    32A     -0.618081    33A     -0.604724
      34A     -0.586494    35A     -0.566954    36A     -0.558814
      37A     -0.543683    38A     -0.538489    39A     -0.527790
      40A     -0.515161    41A     -0.457652    42A     -0.444537
      43A     -0.417863    44A     -0.405442    45A     -0.354933
      46A     -0.332161

  @DF-RHF Final Energy:  -568.46555158352385

   => Energetics <=

    Nuclear Repulsion Energy =            760.6849204937469722
    One-Electron Energy =               -2281.4376536743602628
    Two-Electron Energy =                 952.2871815970893294
    Total Energy =                       -568.4655515835238475
  Basis Set: (AUG-CC-PVTZ AUX)
    Blend: AUG-CC-PVTZ-RI
    Molecular point group: c1

    Geometry (in Angstrom), charge = 0, multiplicity = 1:

       Center              X                  Y                   Z               Mass
    ------------   -----------------  -----------------  -----------------  -----------------
         O            3.111195635343    -1.421480094685    -0.213594921385    15.994914619570
         N            0.869738635343    -1.223406094685    -0.588639921385    14.003074004430
         N            1.517976635343     1.492889905315     0.335886078615    14.003074004430
         C           -0.732667364657     0.534541905315     0.034452078615    12.000000000000
         C           -0.427665364657    -0.818247094685    -0.235604921385    12.000000000000
         C            0.297945635343     1.592465905315    -0.083140921385    12.000000000000
         C            1.883559635343     0.265911905315     1.040529078615    12.000000000000
         C           -2.064845364657     0.869597905315     0.337912078615    12.000000000000
         C           -1.449159364657    -1.781482094685    -0.230372921385    12.000000000000
         C            2.050625635343    -0.864470094685     0.045336078615    12.000000000000
         C           -0.095009364657     2.875321905315    -0.768291921385    12.000000000000
         C           -3.068510364657    -0.092370094685     0.363055078615    12.000000000000
         C           -2.759635364657    -1.423272094685     0.062368078615    12.000000000000
         H            0.960909635343    -2.062063094685    -1.156907921385     1.007825032230
         H            1.141982135343    -0.017620394685     1.803369178615     1.007825032230
         H            2.845593635343     0.411708905315     1.532978078615     1.007825032230
         H           -2.311962364657     1.904834905315     0.558119078615     1.007825032230
         H           -1.197464364657    -2.818776094685    -0.443956921385     1.007825032230
         H           -0.831109364657     3.431699905315    -0.178339921385     1.007825032230
         H           -0.540304364657     2.675749905315    -1.747797921385     1.007825032230
         H            0.796659635343     3.493353905315    -0.884777921385     1.007825032230
         H           -4.088341364657     0.191507905315     0.608978078615     1.007825032230
         H           -3.537377364657    -2.182862094685     0.067949078615     1.007825032230

  Basis Set: AUG-CC-PVTZ
    Blend: AUG-CC-PVTZ
  Basis Set: (AUG-CC-PVTZ AUX)
    Blend: AUG-CC-PVTZ-JKFIT
	 Reference Energy          =    -568.4655515835238475 [Eh]
	 Singles Energy            =      -0.0000000000000000 [Eh]
	 Same-Spin Energy          =      -0.6144255016330376 [Eh]
	 Opposite-Spin Energy      =      -1.8871384019332034 [Eh]
	 Correlation Energy        =      -2.5015639035662409 [Eh]
	 Total Energy              =    -570.9671154870900409 [Eh]

	 ================> DF-SCS-MP2 Energies <==================
	-----------------------------------------------------------
	 SCS Same-Spin Scale       =       0.3333333333333333 [-]
	 SCS Opposite-Spin Scale   =       1.2000000000000000 [-]
	 SCS Same-Spin Energy      =      -0.2048085005443459 [Eh]
	 SCS Opposite-Spin Energy  =      -2.2645660823198441 [Eh]
	 SCS Correlation Energy    =      -2.4693745828641900 [Eh]
	 SCS Total Energy          =    -570.9349261663879815 [Eh]
	-----------------------------------------------------------

  Dipole Moment: [D]
     X:    -5.1098      Y:    -0.2396      Z:     0.2338     Total:     5.1208

*** Psi4 exiting successfully. Buy a developer a beer!
