                               Psi4 1.4a3.dev225

  ==> Input File <==

--------------------------------------------------------------------------
#psi4
#
memory 32 gb

molecule  {
0 1
  O        3.1477550    -1.4485350    -0.2143050
  N        0.9062980    -1.2504610    -0.5893500
  N        1.5545360     1.4658350     0.3351760
  C       -0.6961080     0.5074870     0.0337420
  C       -0.3867883    -0.8644525    -0.2401380
  C        0.3345050     1.5654110    -0.0838510
  C        1.9201190     0.2388570     1.0398190
  C       -2.0282860     0.8425430     0.3372020
  C       -1.4126000    -1.8085370    -0.2310830
  C        2.0871850    -0.8915250     0.0446260
  C       -0.0584500     2.8482670    -0.7690020
  C       -3.0319510    -0.1194250     0.3623450
  C       -2.7230760    -1.4503270     0.0616580
  H        0.9974690    -2.0891180    -1.1576180
  H        1.1650960    -0.0456930     1.7889680
  H        2.8821530     0.3846540     1.5322680
  H       -2.2754030     1.8777800     0.5574090
  H       -1.1609050    -2.8458310    -0.4446670
  H       -0.7945500     3.4046450    -0.1790500
  H       -0.5037450     2.6486950    -1.7485080
  H        0.8332190     3.4662990    -0.8854880
  H       -4.0517820     0.1644530     0.6082680
  H       -3.5008180    -2.2099170     0.0672390
units angstrom
no_reorient  #important for SAPT in psi4, default
symmetry c1  #important for SAPT in psi4, default
}

set PROPERTIES_ORIGIN ["COM"]
properties('MP2/aug-cc-pvtz', properties = ['dipole'])
--------------------------------------------------------------------------

    Molecular point group: c1
  Charge       = 0
  Multiplicity = 1
  Basis Set: AUG-CC-PVTZ
    Blend: AUG-CC-PVTZ
  Basis Set: (AUG-CC-PVTZ AUX)
    Blend: AUG-CC-PVTZ-JKFIT

    Orbital Energies [Eh]
    ---------------------

    Doubly Occupied:

       1A    -20.533310     2A    -15.607808     3A    -15.566797
       4A    -11.363676     5A    -11.314748     6A    -11.302241
       7A    -11.267602     8A    -11.267257     9A    -11.265966
      10A    -11.265500    11A    -11.256777    12A    -11.253309
      13A    -11.234024    14A     -1.388607    15A     -1.277867
      16A     -1.233871    17A     -1.163655    18A     -1.064622
      19A     -1.036513    20A     -1.009432    21A     -0.951972
      22A     -0.886741    23A     -0.857449    24A     -0.796551
      25A     -0.767042    26A     -0.730826    27A     -0.691625
      28A     -0.678230    29A     -0.658171    30A     -0.645953
      31A     -0.626122    32A     -0.618527    33A     -0.605972
      34A     -0.586425    35A     -0.567755    36A     -0.558738
      37A     -0.543815    38A     -0.538660    39A     -0.527214
      40A     -0.513876    41A     -0.458344    42A     -0.445935
      43A     -0.417435    44A     -0.405765    45A     -0.354646
      46A     -0.330664

  @DF-RHF Final Energy:  -568.46480266769936

   => Energetics <=

    Nuclear Repulsion Energy =            760.6012578830961957
    One-Electron Energy =               -2281.2560467896382761
    Two-Electron Energy =                 952.1899862388427209
    Total Energy =                       -568.4648026676993595
  Basis Set: (AUG-CC-PVTZ AUX)
    Blend: AUG-CC-PVTZ-RI
    Molecular point group: c1

    Geometry (in Angstrom), charge = 0, multiplicity = 1:

       Center              X                  Y                   Z               Mass
    ------------   -----------------  -----------------  -----------------  -----------------
         O            3.110975840769    -1.420154080355    -0.213252122276    15.994914619570
         N            0.869518840769    -1.222080080355    -0.588297122276    14.003074004430
         N            1.517756840769     1.494215919645     0.336228877724    14.003074004430
         C           -0.732887159231     0.535867919645     0.034794877724    12.000000000000
         C           -0.423567459231    -0.836071580355    -0.239085122276    12.000000000000
         C            0.297725840769     1.593791919645    -0.082798122276    12.000000000000
         C            1.883339840769     0.267237919645     1.040871877724    12.000000000000
         C           -2.065065159231     0.870923919645     0.338254877724    12.000000000000
         C           -1.449379159231    -1.780156080355    -0.230030122276    12.000000000000
         C            2.050405840769    -0.863144080355     0.045678877724    12.000000000000
         C           -0.095229159231     2.876647919645    -0.767949122276    12.000000000000
         C           -3.068730159231    -0.091044080355     0.363397877724    12.000000000000
         C           -2.759855159231    -1.421946080355     0.062710877724    12.000000000000
         H            0.960689840769    -2.060737080355    -1.156565122276     1.007825032230
         H            1.128316840769    -0.017312080355     1.790020877724     1.007825032230
         H            2.845373840769     0.413034919645     1.533320877724     1.007825032230
         H           -2.312182159231     1.906160919645     0.558461877724     1.007825032230
         H           -1.197684159231    -2.817450080355    -0.443614122276     1.007825032230
         H           -0.831329159231     3.433025919645    -0.177997122276     1.007825032230
         H           -0.540524159231     2.677075919645    -1.747455122276     1.007825032230
         H            0.796439840769     3.494679919645    -0.884435122276     1.007825032230
         H           -4.088561159231     0.192833919645     0.609320877724     1.007825032230
         H           -3.537597159231    -2.181536080355     0.068291877724     1.007825032230

  Basis Set: AUG-CC-PVTZ
    Blend: AUG-CC-PVTZ
  Basis Set: (AUG-CC-PVTZ AUX)
    Blend: AUG-CC-PVTZ-JKFIT
	 Reference Energy          =    -568.4648026676993595 [Eh]
	 Singles Energy            =      -0.0000000000000000 [Eh]
	 Same-Spin Energy          =      -0.6146227687650221 [Eh]
	 Opposite-Spin Energy      =      -1.8873175384679119 [Eh]
	 Correlation Energy        =      -2.5019403072329340 [Eh]
	 Total Energy              =    -570.9667429749323446 [Eh]

	 ================> DF-SCS-MP2 Energies <==================
	-----------------------------------------------------------
	 SCS Same-Spin Scale       =       0.3333333333333333 [-]
	 SCS Opposite-Spin Scale   =       1.2000000000000000 [-]
	 SCS Same-Spin Energy      =      -0.2048742562550074 [Eh]
	 SCS Opposite-Spin Energy  =      -2.2647810461614943 [Eh]
	 SCS Correlation Energy    =      -2.4696553024165016 [Eh]
	 SCS Total Energy          =    -570.9344579701158864 [Eh]
	-----------------------------------------------------------

  Dipole Moment: [D]
     X:    -5.0598      Y:    -0.2602      Z:     0.2222     Total:     5.0713

*** Psi4 exiting successfully. Buy a developer a beer!
