                               Psi4 1.4a3.dev225

  ==> Input File <==

--------------------------------------------------------------------------
#psi4
#
memory 32 gb

molecule  {
0 1
  O        3.1477550    -1.4485350    -0.2143050
  N        0.9062980    -1.2504610    -0.5893500
  N        1.5545360     1.4658350     0.3351760
  C       -0.6961080     0.5074870     0.0337420
  C       -0.3911060    -0.8453020    -0.2363150
  C        0.3345050     1.5654110    -0.0838510
  C        1.9201190     0.2388570     1.0398190
  C       -2.0472253     0.8473064     0.3415162
  C       -1.4126000    -1.8085370    -0.2310830
  C        2.0871850    -0.8915250     0.0446260
  C       -0.0584500     2.8482670    -0.7690020
  C       -3.0319510    -0.1194250     0.3623450
  C       -2.7230760    -1.4503270     0.0616580
  H        0.9974690    -2.0891180    -1.1576180
  H        1.1650960    -0.0456930     1.7889680
  H        2.8821530     0.3846540     1.5322680
  H       -2.2754030     1.8777800     0.5574090
  H       -1.1609050    -2.8458310    -0.4446670
  H       -0.7945500     3.4046450    -0.1790500
  H       -0.5037450     2.6486950    -1.7485080
  H        0.8332190     3.4662990    -0.8854880
  H       -4.0517820     0.1644530     0.6082680
  H       -3.5008180    -2.2099170     0.0672390
units angstrom
no_reorient  #important for SAPT in psi4, default
symmetry c1  #important for SAPT in psi4, default
}

set PROPERTIES_ORIGIN ["COM"]
properties('MP2/aug-cc-pvtz', properties = ['dipole'])
--------------------------------------------------------------------------

    Molecular point group: c1
  Charge       = 0
  Multiplicity = 1
  Basis Set: AUG-CC-PVTZ
    Blend: AUG-CC-PVTZ
  Basis Set: (AUG-CC-PVTZ AUX)
    Blend: AUG-CC-PVTZ-JKFIT

    Orbital Energies [Eh]
    ---------------------

    Doubly Occupied:

       1A    -20.532123     2A    -15.607067     3A    -15.566850
       4A    -11.362509     5A    -11.314409     6A    -11.302224
       7A    -11.267705     8A    -11.266827     9A    -11.266239
      10A    -11.265867    11A    -11.258829    12A    -11.253016
      13A    -11.234185    14A     -1.387394    15A     -1.275783
      16A     -1.232707    17A     -1.163795    18A     -1.064292
      19A     -1.036507    20A     -1.010488    21A     -0.951702
      22A     -0.886797    23A     -0.857382    24A     -0.795179
      25A     -0.767403    26A     -0.729780    27A     -0.691266
      28A     -0.677586    29A     -0.657981    30A     -0.648477
      31A     -0.625627    32A     -0.618272    33A     -0.605234
      34A     -0.586380    35A     -0.566931    36A     -0.559599
      37A     -0.543623    38A     -0.537647    39A     -0.527465
      40A     -0.516079    41A     -0.457414    42A     -0.444874
      43A     -0.417444    44A     -0.404913    45A     -0.353499
      46A     -0.333341

  @DF-RHF Final Energy:  -568.46500877255312

   => Energetics <=

    Nuclear Repulsion Energy =            760.4077441686969223
    One-Electron Energy =               -2280.8840823783002634
    Two-Electron Energy =                 952.0113294370503354
    Total Energy =                       -568.4650087725531193
  Basis Set: (AUG-CC-PVTZ AUX)
    Blend: AUG-CC-PVTZ-RI
    Molecular point group: c1

    Geometry (in Angstrom), charge = 0, multiplicity = 1:

       Center              X                  Y                   Z               Mass
    ------------   -----------------  -----------------  -----------------  -----------------
         O            3.112579041030    -1.421802563423    -0.213813052799    15.994914619570
         N            0.871122041030    -1.223728563423    -0.588858052799    14.003074004430
         N            1.519360041030     1.492567436577     0.335667947201    14.003074004430
         C           -0.731283958970     0.534219436577     0.034233947201    12.000000000000
         C           -0.426281958970    -0.818569563423    -0.235823052799    12.000000000000
         C            0.299329041030     1.592143436577    -0.083359052799    12.000000000000
         C            1.884943041030     0.265589436577     1.040310947201    12.000000000000
         C           -2.082401258970     0.874038836577     0.342008147201    12.000000000000
         C           -1.447775958970    -1.781804563423    -0.230591052799    12.000000000000
         C            2.052009041030    -0.864792563423     0.045117947201    12.000000000000
         C           -0.093625958970     2.874999436577    -0.768510052799    12.000000000000
         C           -3.067126958970    -0.092692563423     0.362836947201    12.000000000000
         C           -2.758251958970    -1.423594563423     0.062149947201    12.000000000000
         H            0.962293041030    -2.062385563423    -1.157126052799     1.007825032230
         H            1.129920041030    -0.018960563423     1.789459947201     1.007825032230
         H            2.846977041030     0.411386436577     1.532759947201     1.007825032230
         H           -2.310578958970     1.904512436577     0.557900947201     1.007825032230
         H           -1.196080958970    -2.819098563423    -0.444175052799     1.007825032230
         H           -0.829725958970     3.431377436577    -0.178558052799     1.007825032230
         H           -0.538920958970     2.675427436577    -1.748016052799     1.007825032230
         H            0.798043041030     3.493031436577    -0.884996052799     1.007825032230
         H           -4.086957958970     0.191185436577     0.608759947201     1.007825032230
         H           -3.535993958970    -2.183184563423     0.067730947201     1.007825032230

  Basis Set: AUG-CC-PVTZ
    Blend: AUG-CC-PVTZ
  Basis Set: (AUG-CC-PVTZ AUX)
    Blend: AUG-CC-PVTZ-JKFIT
	 Reference Energy          =    -568.4650087725531193 [Eh]
	 Singles Energy            =      -0.0000000000000000 [Eh]
	 Same-Spin Energy          =      -0.6144470894135083 [Eh]
	 Opposite-Spin Energy      =      -1.8872229354672374 [Eh]
	 Correlation Energy        =      -2.5016700248807457 [Eh]
	 Total Energy              =    -570.9666787974338149 [Eh]

	 ================> DF-SCS-MP2 Energies <==================
	-----------------------------------------------------------
	 SCS Same-Spin Scale       =       0.3333333333333333 [-]
	 SCS Opposite-Spin Scale   =       1.2000000000000000 [-]
	 SCS Same-Spin Energy      =      -0.2048156964711694 [Eh]
	 SCS Opposite-Spin Energy  =      -2.2646675225606847 [Eh]
	 SCS Correlation Energy    =      -2.4694832190318543 [Eh]
	 SCS Total Energy          =    -570.9344919915849914 [Eh]
	-----------------------------------------------------------

  Dipole Moment: [D]
     X:    -5.1218      Y:    -0.2459      Z:     0.2257     Total:     5.1327

*** Psi4 exiting successfully. Buy a developer a beer!
