                               Psi4 1.3.2 release

  ==> Input File <==

--------------------------------------------------------------------------
#psi4
#
memory 32 gb

molecule  {
0 1
  O        3.1477550    -1.4485350    -0.2143050
  N        0.9062980    -1.2504610    -0.5893500
  N        1.5545360     1.4658350     0.3351760
  C       -0.6961080     0.5074870     0.0337420
  C       -0.3513568    -0.7936877    -0.1630786
  C        0.3345050     1.5654110    -0.0838510
  C        1.9201190     0.2388570     1.0398190
  C       -2.0282860     0.8425430     0.3372020
  C       -1.4126000    -1.8085370    -0.2310830
  C        2.0871850    -0.8915250     0.0446260
  C       -0.0584500     2.8482670    -0.7690020
  C       -3.0319510    -0.1194250     0.3623450
  C       -2.7230760    -1.4503270     0.0616580
  H        0.9974690    -2.0891180    -1.1576180
  H        1.1650960    -0.0456930     1.7889680
  H        2.8821530     0.3846540     1.5322680
  H       -2.2754030     1.8777800     0.5574090
  H       -1.1609050    -2.8458310    -0.4446670
  H       -0.7945500     3.4046450    -0.1790500
  H       -0.5037450     2.6486950    -1.7485080
  H        0.8332190     3.4662990    -0.8854880
  H       -4.0517820     0.1644530     0.6082680
  H       -3.5008180    -2.2099170     0.0672390
units angstrom
no_reorient  #important for SAPT in psi4, default
symmetry c1  #important for SAPT in psi4, default
}

set PROPERTIES_ORIGIN ["COM"]
properties('MP2/aug-cc-pvtz', properties = ['dipole'])
--------------------------------------------------------------------------

    Molecular point group: c1
  Charge       = 0
  Multiplicity = 1
  Basis Set: AUG-CC-PVTZ
    Blend: AUG-CC-PVTZ
  Basis Set: (AUG-CC-PVTZ AUX)
    Blend: AUG-CC-PVTZ-JKFIT

    Orbital Energies [Eh]
    ---------------------

    Doubly Occupied:

       1A    -20.531243     2A    -15.608135     3A    -15.567105
       4A    -11.360386     5A    -11.314934     6A    -11.301781
       7A    -11.267048     8A    -11.266076     9A    -11.265159
      10A    -11.263728    11A    -11.261371    12A    -11.254575
      13A    -11.234059    14A     -1.387104    15A     -1.277822
      16A     -1.232405    17A     -1.164516    18A     -1.067773
      19A     -1.027498    20A     -1.015993    21A     -0.951322
      22A     -0.881371    23A     -0.861882    24A     -0.792594
      25A     -0.770772    26A     -0.727620    27A     -0.693679
      28A     -0.677908    29A     -0.657354    30A     -0.651958
      31A     -0.624308    32A     -0.617505    33A     -0.602458
      34A     -0.586412    35A     -0.565884    36A     -0.558215
      37A     -0.542115    38A     -0.540728    39A     -0.527595
      40A     -0.515545    41A     -0.456796    42A     -0.444024
      43A     -0.417467    44A     -0.404372    45A     -0.356063
      46A     -0.331805

  @DF-RHF Final Energy:  -568.45750725904361

   => Energetics <=

    Nuclear Repulsion Energy =            761.4137845832713083
    One-Electron Energy =               -2282.8896601736350931
    Two-Electron Energy =                 953.0183683313201755
    Total Energy =                       -568.4575072590436093
  Basis Set: (AUG-CC-PVTZ AUX)
    Blend: AUG-CC-PVTZ-RI
    Molecular point group: c1

    Geometry (in Angstrom), charge = 0, multiplicity = 1:

       Center              X                  Y                   Z               Mass
    ------------   -----------------  -----------------  -----------------  -----------------
         O            3.108533402360    -1.425032187843    -0.218564142322    15.994914619570
         N            0.867076402360    -1.226958187843    -0.593609142322    14.003074004430
         N            1.515314402360     1.489337812157     0.330916857678    14.003074004430
         C           -0.735329597640     0.530989812157     0.029482857678    12.000000000000
         C           -0.390578397640    -0.770184887843    -0.167337742322    12.000000000000
         C            0.295283402360     1.588913812157    -0.088110142322    12.000000000000
         C            1.880897402360     0.262359812157     1.035559857678    12.000000000000
         C           -2.067507597640     0.866045812157     0.332942857678    12.000000000000
         C           -1.451821597640    -1.785034187843    -0.235342142322    12.000000000000
         C            2.047963402360    -0.868022187843     0.040366857678    12.000000000000
         C           -0.097671597640     2.871769812157    -0.773261142322    12.000000000000
         C           -3.071172597640    -0.095922187843     0.358085857678    12.000000000000
         C           -2.762297597640    -1.426824187843     0.057398857678    12.000000000000
         H            0.958247402360    -2.065615187843    -1.161877142322     1.007825032230
         H            1.125874402360    -0.022190187843     1.784708857678     1.007825032230
         H            2.842931402360     0.408156812157     1.528008857678     1.007825032230
         H           -2.314624597640     1.901282812157     0.553149857678     1.007825032230
         H           -1.200126597640    -2.822328187843    -0.448926142322     1.007825032230
         H           -0.833771597640     3.428147812157    -0.183309142322     1.007825032230
         H           -0.542966597640     2.672197812157    -1.752767142322     1.007825032230
         H            0.793997402360     3.489801812157    -0.889747142322     1.007825032230
         H           -4.091003597640     0.187955812157     0.604008857678     1.007825032230
         H           -3.540039597640    -2.186414187843     0.062979857678     1.007825032230

  Basis Set: AUG-CC-PVTZ
    Blend: AUG-CC-PVTZ
  Basis Set: (AUG-CC-PVTZ AUX)
    Blend: AUG-CC-PVTZ-JKFIT
	 Reference Energy          =    -568.4575072590436093 [Eh]
	 Singles Energy            =      -0.0000000000000000 [Eh]
	 Same-Spin Energy          =      -0.6144305939531860 [Eh]
	 Opposite-Spin Energy      =      -1.8877634236380811 [Eh]
	 Correlation Energy        =      -2.5021940175912674 [Eh]
	 Total Energy              =    -570.9597012766348598 [Eh]

	 ================> DF-SCS-MP2 Energies <==================
	-----------------------------------------------------------
	 SCS Same-Spin Scale       =       0.3333333333333333 [-]
	 SCS Opposite-Spin Scale   =       1.2000000000000000 [-]
	 SCS Same-Spin Energy      =      -0.2048101979843953 [Eh]
	 SCS Opposite-Spin Energy  =      -2.2653161083656972 [Eh]
	 SCS Correlation Energy    =      -2.4701263063500924 [Eh]
	 SCS Total Energy          =    -570.9276335653936485 [Eh]
	-----------------------------------------------------------

  Dipole Moment: [D]
     X:    -5.1316      Y:    -0.2478      Z:     0.2184     Total:     5.1422

*** Psi4 exiting successfully. Buy a developer a beer!
