                               Psi4 1.3.2 release

  ==> Input File <==

--------------------------------------------------------------------------
#psi4
#
memory 32 gb

molecule  {
0 1
  O        3.2022556    -1.3695814    -0.1291375
  N        0.9062980    -1.2504610    -0.5893500
  N        1.5545360     1.4658350     0.3351760
  C       -0.6961080     0.5074870     0.0337420
  C       -0.3911060    -0.8453020    -0.2363150
  C        0.3345050     1.5654110    -0.0838510
  C        1.9201190     0.2388570     1.0398190
  C       -2.0282860     0.8425430     0.3372020
  C       -1.4126000    -1.8085370    -0.2310830
  C        2.0871850    -0.8915250     0.0446260
  C       -0.0584500     2.8482670    -0.7690020
  C       -3.0319510    -0.1194250     0.3623450
  C       -2.7230760    -1.4503270     0.0616580
  H        0.9974690    -2.0891180    -1.1576180
  H        1.1650960    -0.0456930     1.7889680
  H        2.8821530     0.3846540     1.5322680
  H       -2.2754030     1.8777800     0.5574090
  H       -1.1609050    -2.8458310    -0.4446670
  H       -0.7945500     3.4046450    -0.1790500
  H       -0.5037450     2.6486950    -1.7485080
  H        0.8332190     3.4662990    -0.8854880
  H       -4.0517820     0.1644530     0.6082680
  H       -3.5008180    -2.2099170     0.0672390
units angstrom
no_reorient  #important for SAPT in psi4, default
symmetry c1  #important for SAPT in psi4, default
}

set PROPERTIES_ORIGIN ["COM"]
properties('MP2/aug-cc-pvtz', properties = ['dipole'])
--------------------------------------------------------------------------

    Molecular point group: c1
  Charge       = 0
  Multiplicity = 1
  Basis Set: AUG-CC-PVTZ
    Blend: AUG-CC-PVTZ
  Basis Set: (AUG-CC-PVTZ AUX)
    Blend: AUG-CC-PVTZ-JKFIT

    Orbital Energies [Eh]
    ---------------------

    Doubly Occupied:

       1A    -20.533295     2A    -15.612936     3A    -15.565345
       4A    -11.362600     5A    -11.316415     6A    -11.300355
       7A    -11.267448     8A    -11.266254     9A    -11.266066
      10A    -11.260796    11A    -11.259827    12A    -11.254778
      13A    -11.233272    14A     -1.386241    15A     -1.279727
      16A     -1.232674    17A     -1.165839    18A     -1.064792
      19A     -1.036151    20A     -1.010770    21A     -0.948644
      22A     -0.886630    23A     -0.859706    24A     -0.796432
      25A     -0.768091    26A     -0.730180    27A     -0.691429
      28A     -0.677089    29A     -0.658137    30A     -0.648877
      31A     -0.626657    32A     -0.618131    33A     -0.602774
      34A     -0.585952    35A     -0.567191    36A     -0.558602
      37A     -0.543369    38A     -0.538419    39A     -0.527745
      40A     -0.515204    41A     -0.456981    42A     -0.447631
      43A     -0.415283    44A     -0.401863    45A     -0.354563
      46A     -0.334349

  @DF-RHF Final Energy:  -568.46229037508692

   => Energetics <=

    Nuclear Repulsion Energy =            760.6609271940773169
    One-Electron Energy =               -2281.3754148039515712
    Two-Electron Energy =                 952.2521972347872179
    Total Energy =                       -568.4622903750869227
  Basis Set: (AUG-CC-PVTZ AUX)
    Blend: AUG-CC-PVTZ-RI
    Molecular point group: c1

    Geometry (in Angstrom), charge = 0, multiplicity = 1:

       Center              X                  Y                   Z               Mass
    ------------   -----------------  -----------------  -----------------  -----------------
         O            3.160766403546    -1.349775089627    -0.136173595440    15.994914619570
         N            0.864808803546    -1.230654689627    -0.596386095440    14.003074004430
         N            1.513046803546     1.485641310373     0.328139904560    14.003074004430
         C           -0.737597196454     0.527293310373     0.026705904560    12.000000000000
         C           -0.432595196454    -0.825495689627    -0.243351095440    12.000000000000
         C            0.293015803546     1.585217310373    -0.090887095440    12.000000000000
         C            1.878629803546     0.258663310373     1.032782904560    12.000000000000
         C           -2.069775196454     0.862349310373     0.330165904560    12.000000000000
         C           -1.454089196454    -1.788730689627    -0.238119095440    12.000000000000
         C            2.045695803546    -0.871718689627     0.037589904560    12.000000000000
         C           -0.099939196454     2.868073310373    -0.776038095440    12.000000000000
         C           -3.073440196454    -0.099618689627     0.355308904560    12.000000000000
         C           -2.764565196454    -1.430520689627     0.054621904560    12.000000000000
         H            0.955979803546    -2.069311689627    -1.164654095440     1.007825032230
         H            1.123606803546    -0.025886689627     1.781931904560     1.007825032230
         H            2.840663803546     0.404460310373     1.525231904560     1.007825032230
         H           -2.316892196454     1.897586310373     0.550372904560     1.007825032230
         H           -1.202394196454    -2.826024689627    -0.451703095440     1.007825032230
         H           -0.836039196454     3.424451310373    -0.186086095440     1.007825032230
         H           -0.545234196454     2.668501310373    -1.755544095440     1.007825032230
         H            0.791729803546     3.486105310373    -0.892524095440     1.007825032230
         H           -4.093271196454     0.184259310373     0.601231904560     1.007825032230
         H           -3.542307196454    -2.190110689627     0.060202904560     1.007825032230

  Basis Set: AUG-CC-PVTZ
    Blend: AUG-CC-PVTZ
  Basis Set: (AUG-CC-PVTZ AUX)
    Blend: AUG-CC-PVTZ-JKFIT
	 Reference Energy          =    -568.4622903750869227 [Eh]
	 Singles Energy            =      -0.0000000000000000 [Eh]
	 Same-Spin Energy          =      -0.6146299254218985 [Eh]
	 Opposite-Spin Energy      =      -1.8876535792822045 [Eh]
	 Correlation Energy        =      -2.5022835047041028 [Eh]
	 Total Energy              =    -570.9645738797910326 [Eh]

	 ================> DF-SCS-MP2 Energies <==================
	-----------------------------------------------------------
	 SCS Same-Spin Scale       =       0.3333333333333333 [-]
	 SCS Opposite-Spin Scale   =       1.2000000000000000 [-]
	 SCS Same-Spin Energy      =      -0.2048766418072995 [Eh]
	 SCS Opposite-Spin Energy  =      -2.2651842951386452 [Eh]
	 SCS Correlation Energy    =      -2.4700609369459445 [Eh]
	 SCS Total Energy          =    -570.9323513120328926 [Eh]
	-----------------------------------------------------------

  Dipole Moment: [D]
     X:    -5.2455      Y:    -0.4431      Z:     0.0426     Total:     5.2643

*** Psi4 exiting successfully. Buy a developer a beer!
