                               Psi4 1.3.2 release

  ==> Input File <==

--------------------------------------------------------------------------
#psi4
#
memory 32 gb

molecule  {
0 1
  O        3.1269727    -1.4735376    -0.2421090
  N        0.9062980    -1.2504610    -0.5893500
  N        1.5545360     1.4658350     0.3351760
  C       -0.6961080     0.5074870     0.0337420
  C       -0.3911060    -0.8453020    -0.2363150
  C        0.3345050     1.5654110    -0.0838510
  C        1.9201190     0.2388570     1.0398190
  C       -2.0282860     0.8425430     0.3372020
  C       -1.4126000    -1.8085370    -0.2310830
  C        2.0871850    -0.8915250     0.0446260
  C       -0.0584500     2.8482670    -0.7690020
  C       -3.0319510    -0.1194250     0.3623450
  C       -2.7230760    -1.4503270     0.0616580
  H        0.9974690    -2.0891180    -1.1576180
  H        1.1650960    -0.0456930     1.7889680
  H        2.8821530     0.3846540     1.5322680
  H       -2.2754030     1.8777800     0.5574090
  H       -1.1609050    -2.8458310    -0.4446670
  H       -0.7945500     3.4046450    -0.1790500
  H       -0.5037450     2.6486950    -1.7485080
  H        0.8332190     3.4662990    -0.8854880
  H       -4.0517820     0.1644530     0.6082680
  H       -3.5008180    -2.2099170     0.0672390
units angstrom
no_reorient  #important for SAPT in psi4, default
symmetry c1  #important for SAPT in psi4, default
}

set PROPERTIES_ORIGIN ["COM"]
properties('MP2/aug-cc-pvtz', properties = ['dipole'])
--------------------------------------------------------------------------

    Molecular point group: c1
  Charge       = 0
  Multiplicity = 1
  Basis Set: AUG-CC-PVTZ
    Blend: AUG-CC-PVTZ
  Basis Set: (AUG-CC-PVTZ AUX)
    Blend: AUG-CC-PVTZ-JKFIT

    Orbital Energies [Eh]
    ---------------------

    Doubly Occupied:

       1A    -20.531825     2A    -15.605019     3A    -15.567573
       4A    -11.362669     5A    -11.313647     6A    -11.303024
       7A    -11.269074     8A    -11.266611     9A    -11.265343
      10A    -11.265201    11A    -11.257683    12A    -11.253370
      13A    -11.234492    14A     -1.388196    15A     -1.274811
      16A     -1.232764    17A     -1.164038    18A     -1.065773
      19A     -1.034891    20A     -1.011238    21A     -0.952632
      22A     -0.885348    23A     -0.857468    24A     -0.795079
      25A     -0.768095    26A     -0.728370    27A     -0.691525
      28A     -0.678006    29A     -0.657254    30A     -0.648067
      31A     -0.626003    32A     -0.618374    33A     -0.605213
      34A     -0.586637    35A     -0.566852    36A     -0.558863
      37A     -0.543639    38A     -0.539183    39A     -0.527844
      40A     -0.515464    41A     -0.457500    42A     -0.443463
      43A     -0.418273    44A     -0.406399    45A     -0.355013
      46A     -0.331431

  @DF-RHF Final Energy:  -568.46532858366356

   => Energetics <=

    Nuclear Repulsion Energy =            760.8221494303894588
    One-Electron Energy =               -2281.7164829775824728
    Two-Electron Energy =                 952.4290049635295645
    Total Energy =                       -568.4653285836635632
  Basis Set: (AUG-CC-PVTZ AUX)
    Blend: AUG-CC-PVTZ-RI
    Molecular point group: c1

    Geometry (in Angstrom), charge = 0, multiplicity = 1:

       Center              X                  Y                   Z               Mass
    ------------   -----------------  -----------------  -----------------  -----------------
         O            3.092400715806    -1.444179490995    -0.238764944770    15.994914619570
         N            0.871726015806    -1.221102890995    -0.586005944770    14.003074004430
         N            1.519964015806     1.495193109005     0.338520055230    14.003074004430
         C           -0.730679984194     0.536845109005     0.037086055230    12.000000000000
         C           -0.425677984194    -0.815943890995    -0.232970944770    12.000000000000
         C            0.299933015806     1.594769109005    -0.080506944770    12.000000000000
         C            1.885547015806     0.268215109005     1.043163055230    12.000000000000
         C           -2.062857984194     0.871901109005     0.340546055230    12.000000000000
         C           -1.447171984194    -1.779178890995    -0.227738944770    12.000000000000
         C            2.052613015806    -0.862166890995     0.047970055230    12.000000000000
         C           -0.093021984194     2.877625109005    -0.765657944770    12.000000000000
         C           -3.066522984194    -0.090066890995     0.365689055230    12.000000000000
         C           -2.757647984194    -1.420968890995     0.065002055230    12.000000000000
         H            0.962897015806    -2.059759890995    -1.154273944770     1.007825032230
         H            1.130524015806    -0.016334890995     1.792312055230     1.007825032230
         H            2.847581015806     0.414012109005     1.535612055230     1.007825032230
         H           -2.309974984194     1.907138109005     0.560753055230     1.007825032230
         H           -1.195476984194    -2.816472890995    -0.441322944770     1.007825032230
         H           -0.829121984194     3.434003109005    -0.175705944770     1.007825032230
         H           -0.538316984194     2.678053109005    -1.745163944770     1.007825032230
         H            0.798647015806     3.495657109005    -0.882143944770     1.007825032230
         H           -4.086353984194     0.193811109005     0.611612055230     1.007825032230
         H           -3.535389984194    -2.180558890995     0.070583055230     1.007825032230

  Basis Set: AUG-CC-PVTZ
    Blend: AUG-CC-PVTZ
  Basis Set: (AUG-CC-PVTZ AUX)
    Blend: AUG-CC-PVTZ-JKFIT
	 Reference Energy          =    -568.4653285836635632 [Eh]
	 Singles Energy            =      -0.0000000000000000 [Eh]
	 Same-Spin Energy          =      -0.6144590082358867 [Eh]
	 Opposite-Spin Energy      =      -1.8871184862156793 [Eh]
	 Correlation Energy        =      -2.5015774944515661 [Eh]
	 Total Energy              =    -570.9669060781151302 [Eh]

	 ================> DF-SCS-MP2 Energies <==================
	-----------------------------------------------------------
	 SCS Same-Spin Scale       =       0.3333333333333333 [-]
	 SCS Opposite-Spin Scale   =       1.2000000000000000 [-]
	 SCS Same-Spin Energy      =      -0.2048196694119622 [Eh]
	 SCS Opposite-Spin Energy  =      -2.2645421834588153 [Eh]
	 SCS Correlation Energy    =      -2.4693618528707777 [Eh]
	 SCS Total Energy          =    -570.9346904365343107 [Eh]
	-----------------------------------------------------------

  Dipole Moment: [D]
     X:    -5.0604      Y:    -0.1791      Z:     0.2878     Total:     5.0717

*** Psi4 exiting successfully. Buy a developer a beer!
