                               Psi4 1.3.2 release

  ==> Input File <==

--------------------------------------------------------------------------
#psi4
#
memory 32 gb

molecule  {
0 1
  O        3.1854194    -1.3965252    -0.1577848
  N        0.9062980    -1.2504610    -0.5893500
  N        1.5545360     1.4658350     0.3351760
  C       -0.6961080     0.5074870     0.0337420
  C       -0.3911060    -0.8453020    -0.2363150
  C        0.3345050     1.5654110    -0.0838510
  C        1.9201190     0.2388570     1.0398190
  C       -2.0282860     0.8425430     0.3372020
  C       -1.4126000    -1.8085370    -0.2310830
  C        2.0871850    -0.8915250     0.0446260
  C       -0.0584500     2.8482670    -0.7690020
  C       -3.0319510    -0.1194250     0.3623450
  C       -2.7230760    -1.4503270     0.0616580
  H        0.9974690    -2.0891180    -1.1576180
  H        1.1650960    -0.0456930     1.7889680
  H        2.8821530     0.3846540     1.5322680
  H       -2.2754030     1.8777800     0.5574090
  H       -1.1609050    -2.8458310    -0.4446670
  H       -0.7945500     3.4046450    -0.1790500
  H       -0.5037450     2.6486950    -1.7485080
  H        0.8332190     3.4662990    -0.8854880
  H       -4.0517820     0.1644530     0.6082680
  H       -3.5008180    -2.2099170     0.0672390
units angstrom
no_reorient  #important for SAPT in psi4, default
symmetry c1  #important for SAPT in psi4, default
}

set PROPERTIES_ORIGIN ["COM"]
properties('MP2/aug-cc-pvtz', properties = ['dipole'])
--------------------------------------------------------------------------

    Molecular point group: c1
  Charge       = 0
  Multiplicity = 1
  Basis Set: AUG-CC-PVTZ
    Blend: AUG-CC-PVTZ
  Basis Set: (AUG-CC-PVTZ AUX)
    Blend: AUG-CC-PVTZ-JKFIT

    Orbital Energies [Eh]
    ---------------------

    Doubly Occupied:

       1A    -20.533000     2A    -15.611015     3A    -15.565943
       4A    -11.362571     5A    -11.315796     6A    -11.301060
       7A    -11.267251     8A    -11.266100     9A    -11.265887
      10A    -11.262892    11A    -11.259337    12A    -11.254468
      13A    -11.233603    14A     -1.386527    15A     -1.278501
      16A     -1.232837    17A     -1.165453    18A     -1.065061
      19A     -1.035862    20A     -1.010968    21A     -0.949694
      22A     -0.886346    23A     -0.859194    24A     -0.796098
      25A     -0.768106    26A     -0.729772    27A     -0.691455
      28A     -0.677313    29A     -0.657918    30A     -0.648752
      31A     -0.626512    32A     -0.618201    33A     -0.603482
      34A     -0.586134    35A     -0.567086    36A     -0.558697
      37A     -0.543450    38A     -0.538581    39A     -0.527800
      40A     -0.515338    41A     -0.457383    42A     -0.446659
      43A     -0.416085    44A     -0.403135    45A     -0.354742
      46A     -0.333691

  @DF-RHF Final Energy:  -568.46403397823360

   => Energetics <=

    Nuclear Repulsion Energy =            760.6607567803496295
    One-Electron Energy =               -2281.3780713544006176
    Two-Electron Energy =                 952.2532805958173867
    Total Energy =                       -568.4640339782336014
  Basis Set: (AUG-CC-PVTZ AUX)
    Blend: AUG-CC-PVTZ-RI
    Molecular point group: c1

    Geometry (in Angstrom), charge = 0, multiplicity = 1:

       Center              X                  Y                   Z               Mass
    ------------   -----------------  -----------------  -----------------  -----------------
         O            3.145477162670    -1.374243214756    -0.162188698025    15.994914619570
         N            0.866355762670    -1.228179014756    -0.593753898025    14.003074004430
         N            1.514593762670     1.488116985244     0.330772101975    14.003074004430
         C           -0.736050237330     0.529768985244     0.029338101975    12.000000000000
         C           -0.431048237330    -0.823020014756    -0.240718898025    12.000000000000
         C            0.294562762670     1.587692985244    -0.088254898025    12.000000000000
         C            1.880176762670     0.261138985244     1.035415101975    12.000000000000
         C           -2.068228237330     0.864824985244     0.332798101975    12.000000000000
         C           -1.452542237330    -1.786255014756    -0.235486898025    12.000000000000
         C            2.047242762670    -0.869243014756     0.040222101975    12.000000000000
         C           -0.098392237330     2.870548985244    -0.773405898025    12.000000000000
         C           -3.071893237330    -0.097143014756     0.357941101975    12.000000000000
         C           -2.763018237330    -1.428045014756     0.057254101975    12.000000000000
         H            0.957526762670    -2.066836014756    -1.162021898025     1.007825032230
         H            1.125153762670    -0.023411014756     1.784564101975     1.007825032230
         H            2.842210762670     0.406935985244     1.527864101975     1.007825032230
         H           -2.315345237330     1.900061985244     0.553005101975     1.007825032230
         H           -1.200847237330    -2.823549014756    -0.449070898025     1.007825032230
         H           -0.834492237330     3.426926985244    -0.183453898025     1.007825032230
         H           -0.543687237330     2.670976985244    -1.752911898025     1.007825032230
         H            0.793276762670     3.488580985244    -0.889891898025     1.007825032230
         H           -4.091724237330     0.186734985244     0.603864101975     1.007825032230
         H           -3.540760237330    -2.187635014756     0.062835101975     1.007825032230

  Basis Set: AUG-CC-PVTZ
    Blend: AUG-CC-PVTZ
  Basis Set: (AUG-CC-PVTZ AUX)
    Blend: AUG-CC-PVTZ-JKFIT
	 Reference Energy          =    -568.4640339782336014 [Eh]
	 Singles Energy            =      -0.0000000000000000 [Eh]
	 Same-Spin Energy          =      -0.6145515172901975 [Eh]
	 Opposite-Spin Energy      =      -1.8874503442834292 [Eh]
	 Correlation Energy        =      -2.5020018615736266 [Eh]
	 Total Energy              =    -570.9660358398072049 [Eh]

	 ================> DF-SCS-MP2 Energies <==================
	-----------------------------------------------------------
	 SCS Same-Spin Scale       =       0.3333333333333333 [-]
	 SCS Opposite-Spin Scale   =       1.2000000000000000 [-]
	 SCS Same-Spin Energy      =      -0.2048505057633992 [Eh]
	 SCS Opposite-Spin Energy  =      -2.2649404131401147 [Eh]
	 SCS Correlation Energy    =      -2.4697909189035139 [Eh]
	 SCS Total Energy          =    -570.9338248971371286 [Eh]
	-----------------------------------------------------------

  Dipole Moment: [D]
     X:    -5.2067      Y:    -0.3744      Z:     0.1046     Total:     5.2212

*** Psi4 exiting successfully. Buy a developer a beer!
