                               Psi4 1.3.2 release

  ==> Input File <==

--------------------------------------------------------------------------
#psi4
#
memory 32 gb

molecule  {
0 1
  O        3.1477550    -1.4485350    -0.2143050
  N        0.9062980    -1.2504610    -0.5893500
  N        1.5545360     1.4658350     0.3351760
  C       -0.6642731     0.6501256     0.0517323
  C       -0.3911060    -0.8453020    -0.2363150
  C        0.3345050     1.5654110    -0.0838510
  C        1.9201190     0.2388570     1.0398190
  C       -2.0282860     0.8425430     0.3372020
  C       -1.4126000    -1.8085370    -0.2310830
  C        2.0871850    -0.8915250     0.0446260
  C       -0.0584500     2.8482670    -0.7690020
  C       -3.0319510    -0.1194250     0.3623450
  C       -2.7230760    -1.4503270     0.0616580
  H        0.9974690    -2.0891180    -1.1576180
  H        1.1650960    -0.0456930     1.7889680
  H        2.8821530     0.3846540     1.5322680
  H       -2.2754030     1.8777800     0.5574090
  H       -1.1609050    -2.8458310    -0.4446670
  H       -0.7945500     3.4046450    -0.1790500
  H       -0.5037450     2.6486950    -1.7485080
  H        0.8332190     3.4662990    -0.8854880
  H       -4.0517820     0.1644530     0.6082680
  H       -3.5008180    -2.2099170     0.0672390
units angstrom
no_reorient  #important for SAPT in psi4, default
symmetry c1  #important for SAPT in psi4, default
}

set PROPERTIES_ORIGIN ["COM"]
properties('MP2/aug-cc-pvtz', properties = ['dipole'])
--------------------------------------------------------------------------

    Molecular point group: c1
  Charge       = 0
  Multiplicity = 1
  Basis Set: AUG-CC-PVTZ
    Blend: AUG-CC-PVTZ
  Basis Set: (AUG-CC-PVTZ AUX)
    Blend: AUG-CC-PVTZ-JKFIT

    Orbital Energies [Eh]
    ---------------------

    Doubly Occupied:

       1A    -20.533381     2A    -15.609987     3A    -15.566925
       4A    -11.363612     5A    -11.329677     6A    -11.293394
       7A    -11.271464     8A    -11.270594     9A    -11.270275
      10A    -11.266838    11A    -11.258413    12A    -11.254220
      13A    -11.231729    14A     -1.388504    15A     -1.276304
      16A     -1.237216    17A     -1.159927    18A     -1.077414
      19A     -1.035361    20A     -1.001085    21A     -0.952576
      22A     -0.900836    23A     -0.853358    24A     -0.797811
      25A     -0.770857    26A     -0.734104    27A     -0.693479
      28A     -0.678986    29A     -0.663564    30A     -0.642313
      31A     -0.625290    32A     -0.615896    33A     -0.604950
      34A     -0.587208    35A     -0.566993    36A     -0.559704
      37A     -0.550784    38A     -0.538519    39A     -0.523784
      40A     -0.501975    41A     -0.458047    42A     -0.445678
      43A     -0.418966    44A     -0.410934    45A     -0.354118
      46A     -0.322436

  @DF-RHF Final Energy:  -568.43518346729695

   => Energetics <=

    Nuclear Repulsion Energy =            760.1742689669323454
    One-Electron Energy =               -2280.2799329736249092
    Two-Electron Energy =                 951.6704805393957258
    Total Energy =                       -568.4351834672969517
  Basis Set: (AUG-CC-PVTZ AUX)
    Blend: AUG-CC-PVTZ-RI
    Molecular point group: c1

    Geometry (in Angstrom), charge = 0, multiplicity = 1:

       Center              X                  Y                   Z               Mass
    ------------   -----------------  -----------------  -----------------  -----------------
         O            3.109078967473    -1.431306865640    -0.214755802384    15.994914619570
         N            0.867621967473    -1.233232865640    -0.589800802384    14.003074004430
         N            1.515859967473     1.483063134360     0.334725197616    14.003074004430
         C           -0.702949132527     0.667353734360     0.051281497616    12.000000000000
         C           -0.429782032527    -0.828073865640    -0.236765802384    12.000000000000
         C            0.295828967473     1.582639134360    -0.084301802384    12.000000000000
         C            1.881442967473     0.256085134360     1.039368197616    12.000000000000
         C           -2.066962032527     0.859771134360     0.336751197616    12.000000000000
         C           -1.451276032527    -1.791308865640    -0.231533802384    12.000000000000
         C            2.048508967473    -0.874296865640     0.044175197616    12.000000000000
         C           -0.097126032527     2.865495134360    -0.769452802384    12.000000000000
         C           -3.070627032527    -0.102196865640     0.361894197616    12.000000000000
         C           -2.761752032527    -1.433098865640     0.061207197616    12.000000000000
         H            0.958792967473    -2.071889865640    -1.158068802384     1.007825032230
         H            1.126419967473    -0.028464865640     1.788517197616     1.007825032230
         H            2.843476967473     0.401882134360     1.531817197616     1.007825032230
         H           -2.314079032527     1.895008134360     0.556958197616     1.007825032230
         H           -1.199581032527    -2.828602865640    -0.445117802384     1.007825032230
         H           -0.833226032527     3.421873134360    -0.179500802384     1.007825032230
         H           -0.542421032527     2.665923134360    -1.748958802384     1.007825032230
         H            0.794542967473     3.483527134360    -0.885938802384     1.007825032230
         H           -4.090458032527     0.181681134360     0.607817197616     1.007825032230
         H           -3.539494032527    -2.192688865640     0.066788197616     1.007825032230

  Basis Set: AUG-CC-PVTZ
    Blend: AUG-CC-PVTZ
  Basis Set: (AUG-CC-PVTZ AUX)
    Blend: AUG-CC-PVTZ-JKFIT
	 Reference Energy          =    -568.4351834672969517 [Eh]
	 Singles Energy            =      -0.0000000000000000 [Eh]
	 Same-Spin Energy          =      -0.6173363321935398 [Eh]
	 Opposite-Spin Energy      =      -1.8914299228468461 [Eh]
	 Correlation Energy        =      -2.5087662550403858 [Eh]
	 Total Energy              =    -570.9439497223373792 [Eh]

	 ================> DF-SCS-MP2 Energies <==================
	-----------------------------------------------------------
	 SCS Same-Spin Scale       =       0.3333333333333333 [-]
	 SCS Opposite-Spin Scale   =       1.2000000000000000 [-]
	 SCS Same-Spin Energy      =      -0.2057787773978466 [Eh]
	 SCS Opposite-Spin Energy  =      -2.2697159074162152 [Eh]
	 SCS Correlation Energy    =      -2.4754946848140618 [Eh]
	 SCS Total Energy          =    -570.9106781521110179 [Eh]
	-----------------------------------------------------------

  Dipole Moment: [D]
     X:    -5.0984      Y:    -0.3916      Z:     0.2269     Total:     5.1185

*** Psi4 exiting successfully. Buy a developer a beer!
