                               Psi4 1.3.2 release

  ==> Input File <==

--------------------------------------------------------------------------
#psi4
#
memory 32 gb

molecule  {
0 1
  O        3.1477550    -1.4485350    -0.2143050
  N        0.9839562    -1.3501655    -0.6609161
  N        1.5545360     1.4658350     0.3351760
  C       -0.6961080     0.5074870     0.0337420
  C       -0.3911060    -0.8453020    -0.2363150
  C        0.3345050     1.5654110    -0.0838510
  C        1.9201190     0.2388570     1.0398190
  C       -2.0282860     0.8425430     0.3372020
  C       -1.4126000    -1.8085370    -0.2310830
  C        2.0871850    -0.8915250     0.0446260
  C       -0.0584500     2.8482670    -0.7690020
  C       -3.0319510    -0.1194250     0.3623450
  C       -2.7230760    -1.4503270     0.0616580
  H        0.9974690    -2.0891180    -1.1576180
  H        1.1650960    -0.0456930     1.7889680
  H        2.8821530     0.3846540     1.5322680
  H       -2.2754030     1.8777800     0.5574090
  H       -1.1609050    -2.8458310    -0.4446670
  H       -0.7945500     3.4046450    -0.1790500
  H       -0.5037450     2.6486950    -1.7485080
  H        0.8332190     3.4662990    -0.8854880
  H       -4.0517820     0.1644530     0.6082680
  H       -3.5008180    -2.2099170     0.0672390
units angstrom
no_reorient  #important for SAPT in psi4, default
symmetry c1  #important for SAPT in psi4, default
}

set PROPERTIES_ORIGIN ["COM"]
properties('MP2/aug-cc-pvtz', properties = ['dipole'])
--------------------------------------------------------------------------

    Molecular point group: c1
  Charge       = 0
  Multiplicity = 1
  Basis Set: AUG-CC-PVTZ
    Blend: AUG-CC-PVTZ
  Basis Set: (AUG-CC-PVTZ AUX)
    Blend: AUG-CC-PVTZ-JKFIT

    Orbital Energies [Eh]
    ---------------------

    Doubly Occupied:

       1A    -20.521898     2A    -15.594320     3A    -15.568934
       4A    -11.357568     5A    -11.319306     6A    -11.304785
       7A    -11.272506     8A    -11.271777     9A    -11.268833
      10A    -11.266602    11A    -11.261152    12A    -11.257874
      13A    -11.235690    14A     -1.383529    15A     -1.261183
      16A     -1.229522    17A     -1.167955    18A     -1.067267
      19A     -1.034289    20A     -1.017993    21A     -0.954546
      22A     -0.883326    23A     -0.851222    24A     -0.816474
      25A     -0.769188    26A     -0.720798    27A     -0.688424
      28A     -0.676020    29A     -0.659381    30A     -0.652247
      31A     -0.627414    32A     -0.624731    33A     -0.596480
      34A     -0.587264    35A     -0.562077    36A     -0.559188
      37A     -0.544368    38A     -0.538189    39A     -0.529185
      40A     -0.520333    41A     -0.450625    42A     -0.433515
      43A     -0.418621    44A     -0.405720    45A     -0.356828
      46A     -0.340496

  @DF-RHF Final Energy:  -568.43805432068484

   => Energetics <=

    Nuclear Repulsion Energy =            757.9889577956583935
    One-Electron Energy =               -2275.9947388094642520
    Two-Electron Energy =                 949.5677266931211307
    Total Energy =                       -568.4380543206848415
  Basis Set: (AUG-CC-PVTZ AUX)
    Blend: AUG-CC-PVTZ-RI
    Molecular point group: c1

    Geometry (in Angstrom), charge = 0, multiplicity = 1:

       Center              X                  Y                   Z               Mass
    ------------   -----------------  -----------------  -----------------  -----------------
         O            3.105026592095    -1.413453895983    -0.207758825122    15.994914619570
         N            0.941227792095    -1.315084395983    -0.654369925122    14.003074004430
         N            1.511807592095     1.500916104017     0.341722174878    14.003074004430
         C           -0.738836407905     0.542568104017     0.040288174878    12.000000000000
         C           -0.433834407905    -0.810220895983    -0.229768825122    12.000000000000
         C            0.291776592095     1.600492104017    -0.077304825122    12.000000000000
         C            1.877390592095     0.273938104017     1.046365174878    12.000000000000
         C           -2.071014407905     0.877624104017     0.343748174878    12.000000000000
         C           -1.455328407905    -1.773455895983    -0.224536825122    12.000000000000
         C            2.044456592095    -0.856443895983     0.051172174878    12.000000000000
         C           -0.101178407905     2.883348104017    -0.762455825122    12.000000000000
         C           -3.074679407905    -0.084343895983     0.368891174878    12.000000000000
         C           -2.765804407905    -1.415245895983     0.068204174878    12.000000000000
         H            0.954740592095    -2.054036895983    -1.151071825122     1.007825032230
         H            1.122367592095    -0.010611895983     1.795514174878     1.007825032230
         H            2.839424592095     0.419735104017     1.538814174878     1.007825032230
         H           -2.318131407905     1.912861104017     0.563955174878     1.007825032230
         H           -1.203633407905    -2.810749895983    -0.438120825122     1.007825032230
         H           -0.837278407905     3.439726104017    -0.172503825122     1.007825032230
         H           -0.546473407905     2.683776104017    -1.741961825122     1.007825032230
         H            0.790490592095     3.501380104017    -0.878941825122     1.007825032230
         H           -4.094510407905     0.199534104017     0.614814174878     1.007825032230
         H           -3.543546407905    -2.174835895983     0.073785174878     1.007825032230

  Basis Set: AUG-CC-PVTZ
    Blend: AUG-CC-PVTZ
  Basis Set: (AUG-CC-PVTZ AUX)
    Blend: AUG-CC-PVTZ-JKFIT
	 Reference Energy          =    -568.4380543206848415 [Eh]
	 Singles Energy            =      -0.0000000000000000 [Eh]
	 Same-Spin Energy          =      -0.6125453601305523 [Eh]
	 Opposite-Spin Energy      =      -1.8859187874933552 [Eh]
	 Correlation Energy        =      -2.4984641476239076 [Eh]
	 Total Energy              =    -570.9365184683088046 [Eh]

	 ================> DF-SCS-MP2 Energies <==================
	-----------------------------------------------------------
	 SCS Same-Spin Scale       =       0.3333333333333333 [-]
	 SCS Opposite-Spin Scale   =       1.2000000000000000 [-]
	 SCS Same-Spin Energy      =      -0.2041817867101841 [Eh]
	 SCS Opposite-Spin Energy  =      -2.2631025449920261 [Eh]
	 SCS Correlation Energy    =      -2.4672843317022104 [Eh]
	 SCS Total Energy          =    -570.9053386523870586 [Eh]
	-----------------------------------------------------------

  Dipole Moment: [D]
     X:    -5.4535      Y:    -0.0029      Z:     0.3951     Total:     5.4678

*** Psi4 exiting successfully. Buy a developer a beer!
