                               Psi4 1.4a3.dev225

  ==> Input File <==

--------------------------------------------------------------------------
#psi4
#
memory 32 gb

molecule  {
0 1
  O        3.1477550    -1.4485350    -0.2143050
  N        0.9062980    -1.2504610    -0.5893500
  N        1.5545360     1.4658350     0.3351760
  C       -0.6961080     0.5074870     0.0337420
  C       -0.3911060    -0.8453020    -0.2363150
  C        0.3345050     1.5654110    -0.0838510
  C        1.9201190     0.2388570     1.0398190
  C       -2.0282860     0.8425430     0.3372020
  C       -1.4126000    -1.8085370    -0.2310830
  C        2.0871850    -0.8915250     0.0446260
  C       -0.0584500     2.8482670    -0.7690020
  C       -3.0319510    -0.1194250     0.3623450
  C       -2.7230760    -1.4503270     0.0616580
  H        1.0019507    -2.1303440    -1.1855524
  H        1.1650960    -0.0456930     1.7889680
  H        2.8821530     0.3846540     1.5322680
  H       -2.2754030     1.8777800     0.5574090
  H       -1.1609050    -2.8458310    -0.4446670
  H       -0.7945500     3.4046450    -0.1790500
  H       -0.5037450     2.6486950    -1.7485080
  H        0.8332190     3.4662990    -0.8854880
  H       -4.0517820     0.1644530     0.6082680
  H       -3.5008180    -2.2099170     0.0672390
units angstrom
no_reorient  #important for SAPT in psi4, default
symmetry c1  #important for SAPT in psi4, default
}

set PROPERTIES_ORIGIN ["COM"]
properties('MP2/aug-cc-pvtz', properties = ['dipole'])
--------------------------------------------------------------------------

    Molecular point group: c1
  Charge       = 0
  Multiplicity = 1
  Basis Set: AUG-CC-PVTZ
    Blend: AUG-CC-PVTZ
  Basis Set: (AUG-CC-PVTZ AUX)
    Blend: AUG-CC-PVTZ-JKFIT

    Orbital Energies [Eh]
    ---------------------

    Doubly Occupied:

       1A    -20.531775     2A    -15.611124     3A    -15.566885
       4A    -11.362373     5A    -11.314311     6A    -11.302236
       7A    -11.267065     8A    -11.266682     9A    -11.265493
      10A    -11.265263    11A    -11.257990    12A    -11.253536
      13A    -11.234085    14A     -1.386475    15A     -1.273559
      16A     -1.230992    17A     -1.163652    18A     -1.065382
      19A     -1.034893    20A     -1.009811    21A     -0.950769
      22A     -0.885245    23A     -0.856949    24A     -0.791305
      25A     -0.766262    26A     -0.724528    27A     -0.691132
      28A     -0.677366    29A     -0.657012    30A     -0.646696
      31A     -0.625944    32A     -0.617558    33A     -0.602448
      34A     -0.586214    35A     -0.565982    36A     -0.558638
      37A     -0.543334    38A     -0.538776    39A     -0.527623
      40A     -0.514865    41A     -0.457359    42A     -0.443832
      43A     -0.417430    44A     -0.405195    45A     -0.354788
      46A     -0.331735

  @DF-RHF Final Energy:  -568.46169847413921

   => Energetics <=

    Nuclear Repulsion Energy =            760.4164485289010145
    One-Electron Energy =               -2280.9511623592261458
    Two-Electron Energy =                 952.0730153561858060
    Total Energy =                       -568.4616984741392116
  Basis Set: (AUG-CC-PVTZ AUX)
    Blend: AUG-CC-PVTZ-RI
    Molecular point group: c1

    Geometry (in Angstrom), charge = 0, multiplicity = 1:

       Center              X                  Y                   Z               Mass
    ------------   -----------------  -----------------  -----------------  -----------------
         O            3.111247530895    -1.421235526519    -0.213353932262    15.994914619570
         N            0.869790530895    -1.223161526519    -0.588398932262    14.003074004430
         N            1.518028530895     1.493134473481     0.336127067738    14.003074004430
         C           -0.732615469105     0.534786473481     0.034693067738    12.000000000000
         C           -0.427613469105    -0.818002526519    -0.235363932262    12.000000000000
         C            0.297997530895     1.592710473481    -0.082899932262    12.000000000000
         C            1.883611530895     0.266156473481     1.040770067738    12.000000000000
         C           -2.064793469105     0.869842473481     0.338153067738    12.000000000000
         C           -1.449107469105    -1.781237526519    -0.230131932262    12.000000000000
         C            2.050677530895    -0.864225526519     0.045577067738    12.000000000000
         C           -0.094957469105     2.875566473481    -0.768050932262    12.000000000000
         C           -3.068458469105    -0.092125526519     0.363296067738    12.000000000000
         C           -2.759583469105    -1.423027526519     0.062609067738    12.000000000000
         H            0.965443230895    -2.103044526519    -1.184601332262     1.007825032230
         H            1.128588530895    -0.018393526519     1.789919067738     1.007825032230
         H            2.845645530895     0.411953473481     1.533219067738     1.007825032230
         H           -2.311910469105     1.905079473481     0.558360067738     1.007825032230
         H           -1.197412469105    -2.818531526519    -0.443715932262     1.007825032230
         H           -0.831057469105     3.431944473481    -0.178098932262     1.007825032230
         H           -0.540252469105     2.675994473481    -1.747556932262     1.007825032230
         H            0.796711530895     3.493598473481    -0.884536932262     1.007825032230
         H           -4.088289469105     0.191752473481     0.609219067738     1.007825032230
         H           -3.537325469105    -2.182617526519     0.068190067738     1.007825032230

  Basis Set: AUG-CC-PVTZ
    Blend: AUG-CC-PVTZ
  Basis Set: (AUG-CC-PVTZ AUX)
    Blend: AUG-CC-PVTZ-JKFIT
	 Reference Energy          =    -568.4616984741392116 [Eh]
	 Singles Energy            =      -0.0000000000000000 [Eh]
	 Same-Spin Energy          =      -0.6149263317871898 [Eh]
	 Opposite-Spin Energy      =      -1.8881936194524260 [Eh]
	 Correlation Energy        =      -2.5031199512396158 [Eh]
	 Total Energy              =    -570.9648184253787804 [Eh]

	 ================> DF-SCS-MP2 Energies <==================
	-----------------------------------------------------------
	 SCS Same-Spin Scale       =       0.3333333333333333 [-]
	 SCS Opposite-Spin Scale   =       1.2000000000000000 [-]
	 SCS Same-Spin Energy      =      -0.2049754439290633 [Eh]
	 SCS Opposite-Spin Energy  =      -2.2658323433429111 [Eh]
	 SCS Correlation Energy    =      -2.4708077872719745 [Eh]
	 SCS Total Energy          =    -570.9325062614111630 [Eh]
	-----------------------------------------------------------

  Dipole Moment: [D]
     X:    -5.1056      Y:    -0.2794      Z:     0.2004     Total:     5.1172

*** Psi4 exiting successfully. Buy a developer a beer!
