                               Psi4 1.4a3.dev225

  ==> Input File <==

--------------------------------------------------------------------------
#psi4
#
memory 32 gb

molecule  {
0 1
  O        3.1477550    -1.4485350    -0.2143050
  N        0.9062980    -1.2504610    -0.5893500
  N        1.5545360     1.4658350     0.3351760
  C       -0.6961080     0.5074870     0.0337420
  C       -0.3911060    -0.8453020    -0.2363150
  C        0.3345050     1.5654110    -0.0838510
  C        1.9251222     0.2220650     1.0494625
  C       -2.0282860     0.8425430     0.3372020
  C       -1.4126000    -1.8085370    -0.2310830
  C        2.0871850    -0.8915250     0.0446260
  C       -0.0584500     2.8482670    -0.7690020
  C       -3.0319510    -0.1194250     0.3623450
  C       -2.7230760    -1.4503270     0.0616580
  H        0.9974690    -2.0891180    -1.1576180
  H        1.1650960    -0.0456930     1.7889680
  H        2.8821530     0.3846540     1.5322680
  H       -2.2754030     1.8777800     0.5574090
  H       -1.1609050    -2.8458310    -0.4446670
  H       -0.7945500     3.4046450    -0.1790500
  H       -0.5037450     2.6486950    -1.7485080
  H        0.8332190     3.4662990    -0.8854880
  H       -4.0517820     0.1644530     0.6082680
  H       -3.5008180    -2.2099170     0.0672390
units angstrom
no_reorient  #important for SAPT in psi4, default
symmetry c1  #important for SAPT in psi4, default
}

set PROPERTIES_ORIGIN ["COM"]
properties('MP2/aug-cc-pvtz', properties = ['dipole'])
--------------------------------------------------------------------------

    Molecular point group: c1
  Charge       = 0
  Multiplicity = 1
  Basis Set: AUG-CC-PVTZ
    Blend: AUG-CC-PVTZ
  Basis Set: (AUG-CC-PVTZ AUX)
    Blend: AUG-CC-PVTZ-JKFIT

    Orbital Energies [Eh]
    ---------------------

    Doubly Occupied:

       1A    -20.532077     2A    -15.607107     3A    -15.567789
       4A    -11.362597     5A    -11.314276     6A    -11.301846
       7A    -11.266706     8A    -11.266675     9A    -11.265497
      10A    -11.265320    11A    -11.258206    12A    -11.253673
      13A    -11.234081    14A     -1.387667    15A     -1.275308
      16A     -1.230137    17A     -1.164315    18A     -1.064694
      19A     -1.035328    20A     -1.011116    21A     -0.953116
      22A     -0.885262    23A     -0.857990    24A     -0.795616
      25A     -0.767065    26A     -0.728847    27A     -0.690328
      28A     -0.678487    29A     -0.657443    30A     -0.647660
      31A     -0.626113    32A     -0.618245    33A     -0.604612
      34A     -0.586485    35A     -0.567482    36A     -0.558758
      37A     -0.542918    38A     -0.539769    39A     -0.527898
      40A     -0.515997    41A     -0.456792    42A     -0.444490
      43A     -0.417914    44A     -0.405699    45A     -0.354986
      46A     -0.332068

  @DF-RHF Final Energy:  -568.46520868107746

   => Energetics <=

    Nuclear Repulsion Energy =            760.5354601509197892
    One-Electron Energy =               -2281.1484315303223411
    Two-Electron Energy =                 952.1477626983250957
    Total Energy =                       -568.4652086810774563
  Basis Set: (AUG-CC-PVTZ AUX)
    Blend: AUG-CC-PVTZ-RI
    Molecular point group: c1

    Geometry (in Angstrom), charge = 0, multiplicity = 1:

       Center              X                  Y                   Z               Mass
    ------------   -----------------  -----------------  -----------------  -----------------
         O            3.110928586446    -1.420316661419    -0.214180423275    15.994914619570
         N            0.869471586446    -1.222242661419    -0.589225423275    14.003074004430
         N            1.517709586446     1.494053338581     0.335300576725    14.003074004430
         C           -0.732934413554     0.535705338581     0.033866576725    12.000000000000
         C           -0.427932413554    -0.817083661419    -0.236190423275    12.000000000000
         C            0.297678586446     1.593629338581    -0.083726423275    12.000000000000
         C            1.888295786446     0.250283338581     1.049587076725    12.000000000000
         C           -2.065112413554     0.870761338581     0.337326576725    12.000000000000
         C           -1.449426413554    -1.780318661419    -0.230958423275    12.000000000000
         C            2.050358586446    -0.863306661419     0.044750576725    12.000000000000
         C           -0.095276413554     2.876485338581    -0.768877423275    12.000000000000
         C           -3.068777413554    -0.091206661419     0.362469576725    12.000000000000
         C           -2.759902413554    -1.422108661419     0.061782576725    12.000000000000
         H            0.960642586446    -2.060899661419    -1.157493423275     1.007825032230
         H            1.128269586446    -0.017474661419     1.789092576725     1.007825032230
         H            2.845326586446     0.412872338581     1.532392576725     1.007825032230
         H           -2.312229413554     1.905998338581     0.557533576725     1.007825032230
         H           -1.197731413554    -2.817612661419    -0.444542423275     1.007825032230
         H           -0.831376413554     3.432863338581    -0.178925423275     1.007825032230
         H           -0.540571413554     2.676913338581    -1.748383423275     1.007825032230
         H            0.796392586446     3.494517338581    -0.885363423275     1.007825032230
         H           -4.088608413554     0.192671338581     0.608392576725     1.007825032230
         H           -3.537644413554    -2.181698661419     0.067363576725     1.007825032230

  Basis Set: AUG-CC-PVTZ
    Blend: AUG-CC-PVTZ
  Basis Set: (AUG-CC-PVTZ AUX)
    Blend: AUG-CC-PVTZ-JKFIT
	 Reference Energy          =    -568.4652086810774563 [Eh]
	 Singles Energy            =      -0.0000000000000000 [Eh]
	 Same-Spin Energy          =      -0.6143889976193777 [Eh]
	 Opposite-Spin Energy      =      -1.8873057851572537 [Eh]
	 Correlation Energy        =      -2.5016947827766316 [Eh]
	 Total Energy              =    -570.9669034638541234 [Eh]

	 ================> DF-SCS-MP2 Energies <==================
	-----------------------------------------------------------
	 SCS Same-Spin Scale       =       0.3333333333333333 [-]
	 SCS Opposite-Spin Scale   =       1.2000000000000000 [-]
	 SCS Same-Spin Energy      =      -0.2047963325397926 [Eh]
	 SCS Opposite-Spin Energy  =      -2.2647669421887042 [Eh]
	 SCS Correlation Energy    =      -2.4695632747284968 [Eh]
	 SCS Total Energy          =    -570.9347719558058998 [Eh]
	-----------------------------------------------------------

  Dipole Moment: [D]
     X:    -5.1095      Y:    -0.2427      Z:     0.2486     Total:     5.1213

*** Psi4 exiting successfully. Buy a developer a beer!
