                               Psi4 1.3.2 release

  ==> Input File <==

--------------------------------------------------------------------------
#psi4
#
memory 32 gb

molecule  {
0 1
  O        3.1477550    -1.4485350    -0.2143050
  N        0.9062980    -1.2504610    -0.5893500
  N        1.5453391     1.4240352     0.3495869
  C       -0.6961080     0.5074870     0.0337420
  C       -0.3911060    -0.8453020    -0.2363150
  C        0.3345050     1.5654110    -0.0838510
  C        1.9201190     0.2388570     1.0398190
  C       -2.0282860     0.8425430     0.3372020
  C       -1.4126000    -1.8085370    -0.2310830
  C        2.0871850    -0.8915250     0.0446260
  C       -0.0584500     2.8482670    -0.7690020
  C       -3.0319510    -0.1194250     0.3623450
  C       -2.7230760    -1.4503270     0.0616580
  H        0.9974690    -2.0891180    -1.1576180
  H        1.1650960    -0.0456930     1.7889680
  H        2.8821530     0.3846540     1.5322680
  H       -2.2754030     1.8777800     0.5574090
  H       -1.1609050    -2.8458310    -0.4446670
  H       -0.7945500     3.4046450    -0.1790500
  H       -0.5037450     2.6486950    -1.7485080
  H        0.8332190     3.4662990    -0.8854880
  H       -4.0517820     0.1644530     0.6082680
  H       -3.5008180    -2.2099170     0.0672390
units angstrom
no_reorient  #important for SAPT in psi4, default
symmetry c1  #important for SAPT in psi4, default
}

set PROPERTIES_ORIGIN ["COM"]
properties('MP2/aug-cc-pvtz', properties = ['dipole'])
--------------------------------------------------------------------------

    Molecular point group: c1
  Charge       = 0
  Multiplicity = 1
  Basis Set: AUG-CC-PVTZ
    Blend: AUG-CC-PVTZ
  Basis Set: (AUG-CC-PVTZ AUX)
    Blend: AUG-CC-PVTZ-JKFIT

    Orbital Energies [Eh]
    ---------------------

    Doubly Occupied:

       1A    -20.531960     2A    -15.606674     3A    -15.563050
       4A    -11.362104     5A    -11.313636     6A    -11.303140
       7A    -11.265717     8A    -11.265391     9A    -11.264724
      10A    -11.264311    11A    -11.257725    12A    -11.253151
      13A    -11.236005    14A     -1.387386    15A     -1.277623
      16A     -1.236574    17A     -1.164288    18A     -1.068209
      19A     -1.034735    20A     -1.011644    21A     -0.951829
      22A     -0.886006    23A     -0.857427    24A     -0.795762
      25A     -0.769765    26A     -0.728677    27A     -0.693847
      28A     -0.679154    29A     -0.657241    30A     -0.649297
      31A     -0.625739    32A     -0.621225    33A     -0.605649
      34A     -0.587172    35A     -0.566621    36A     -0.559112
      37A     -0.547298    38A     -0.539759    39A     -0.527917
      40A     -0.515880    41A     -0.458416    42A     -0.444277
      43A     -0.413294    44A     -0.402228    45A     -0.353685
      46A     -0.331620

  @DF-RHF Final Energy:  -568.46521801787435

   => Energetics <=

    Nuclear Repulsion Energy =            761.7082334852105987
    One-Electron Energy =               -2283.4730086036888679
    Two-Electron Energy =                 953.2995571006038062
    Total Energy =                       -568.4652180178743492
  Basis Set: (AUG-CC-PVTZ AUX)
    Blend: AUG-CC-PVTZ-RI
    Molecular point group: c1

    Geometry (in Angstrom), charge = 0, multiplicity = 1:

       Center              X                  Y                   Z               Mass
    ------------   -----------------  -----------------  -----------------  -----------------
         O            3.112013283232    -1.418111794647    -0.214674881219    15.994914619570
         N            0.870556283232    -1.220037794647    -0.589719881219    14.003074004430
         N            1.509597383232     1.454458405353     0.349217018781    14.003074004430
         C           -0.731849716768     0.537910205353     0.033372118781    12.000000000000
         C           -0.426847716768    -0.814878794647    -0.236684881219    12.000000000000
         C            0.298763283232     1.595834205353    -0.084220881219    12.000000000000
         C            1.884377283232     0.269280205353     1.039449118781    12.000000000000
         C           -2.064027716768     0.872966205353     0.336832118781    12.000000000000
         C           -1.448341716768    -1.778113794647    -0.231452881219    12.000000000000
         C            2.051443283232    -0.861101794647     0.044256118781    12.000000000000
         C           -0.094191716768     2.878690205353    -0.769371881219    12.000000000000
         C           -3.067692716768    -0.089001794647     0.361975118781    12.000000000000
         C           -2.758817716768    -1.419903794647     0.061288118781    12.000000000000
         H            0.961727283232    -2.058694794647    -1.157987881219     1.007825032230
         H            1.129354283232    -0.015269794647     1.788598118781     1.007825032230
         H            2.846411283232     0.415077205353     1.531898118781     1.007825032230
         H           -2.311144716768     1.908203205353     0.557039118781     1.007825032230
         H           -1.196646716768    -2.815407794647    -0.445036881219     1.007825032230
         H           -0.830291716768     3.435068205353    -0.179419881219     1.007825032230
         H           -0.539486716768     2.679118205353    -1.748877881219     1.007825032230
         H            0.797477283232     3.496722205353    -0.885857881219     1.007825032230
         H           -4.087523716768     0.194876205353     0.607898118781     1.007825032230
         H           -3.536559716768    -2.179493794647     0.066869118781     1.007825032230

  Basis Set: AUG-CC-PVTZ
    Blend: AUG-CC-PVTZ
  Basis Set: (AUG-CC-PVTZ AUX)
    Blend: AUG-CC-PVTZ-JKFIT
	 Reference Energy          =    -568.4652180178743492 [Eh]
	 Singles Energy            =      -0.0000000000000000 [Eh]
	 Same-Spin Energy          =      -0.6146594179056093 [Eh]
	 Opposite-Spin Energy      =      -1.8866693064110425 [Eh]
	 Correlation Energy        =      -2.5013287243166520 [Eh]
	 Total Energy              =    -570.9665467421909852 [Eh]

	 ================> DF-SCS-MP2 Energies <==================
	-----------------------------------------------------------
	 SCS Same-Spin Scale       =       0.3333333333333333 [-]
	 SCS Opposite-Spin Scale   =       1.2000000000000000 [-]
	 SCS Same-Spin Energy      =      -0.2048864726352031 [Eh]
	 SCS Opposite-Spin Energy  =      -2.2640031676932511 [Eh]
	 SCS Correlation Energy    =      -2.4688896403284541 [Eh]
	 SCS Total Energy          =    -570.9341076582028336 [Eh]
	-----------------------------------------------------------

  Dipole Moment: [D]
     X:    -5.0689      Y:    -0.1615      Z:     0.1946     Total:     5.0752

*** Psi4 exiting successfully. Buy a developer a beer!
