                               Psi4 1.3.2 release

  ==> Input File <==

--------------------------------------------------------------------------
#psi4
#
memory 32 gb

molecule  {
0 1
  O        3.1477550    -1.4485350    -0.2143050
  N        0.9062980    -1.2504610    -0.5893500
  N        1.5545360     1.4658350     0.3351760
  C       -0.6961080     0.5074870     0.0337420
  C       -0.3911060    -0.8453020    -0.2363150
  C        0.3345050     1.5654110    -0.0838510
  C        1.9201190     0.2388570     1.0398190
  C       -2.0282860     0.8425430     0.3372020
  C       -1.4126000    -1.8085370    -0.2310830
  C        1.9141166    -0.8006297     0.0868795
  C       -0.0584500     2.8482670    -0.7690020
  C       -3.0319510    -0.1194250     0.3623450
  C       -2.7230760    -1.4503270     0.0616580
  H        0.9974690    -2.0891180    -1.1576180
  H        1.1650960    -0.0456930     1.7889680
  H        2.8821530     0.3846540     1.5322680
  H       -2.2754030     1.8777800     0.5574090
  H       -1.1609050    -2.8458310    -0.4446670
  H       -0.7945500     3.4046450    -0.1790500
  H       -0.5037450     2.6486950    -1.7485080
  H        0.8332190     3.4662990    -0.8854880
  H       -4.0517820     0.1644530     0.6082680
  H       -3.5008180    -2.2099170     0.0672390
units angstrom
no_reorient  #important for SAPT in psi4, default
symmetry c1  #important for SAPT in psi4, default
}

set PROPERTIES_ORIGIN ["COM"]
properties('MP2/aug-cc-pvtz', properties = ['dipole'])
--------------------------------------------------------------------------

    Molecular point group: c1
  Charge       = 0
  Multiplicity = 1
  Basis Set: AUG-CC-PVTZ
    Blend: AUG-CC-PVTZ
  Basis Set: (AUG-CC-PVTZ AUX)
    Blend: AUG-CC-PVTZ-JKFIT

    Orbital Energies [Eh]
    ---------------------

    Doubly Occupied:

       1A    -20.491534     2A    -15.632940     3A    -15.576053
       4A    -11.362053     5A    -11.322059     6A    -11.310725
       7A    -11.277799     8A    -11.275077     9A    -11.273981
      10A    -11.271170    11A    -11.268550    12A    -11.263572
      13A    -11.240336    14A     -1.354232    15A     -1.251538
      16A     -1.223209    17A     -1.171098    18A     -1.077875
      19A     -1.047977    20A     -1.027138    21A     -0.969906
      22A     -0.901729    23A     -0.868688    24A     -0.821302
      25A     -0.781569    26A     -0.742937    27A     -0.702176
      28A     -0.682955    29A     -0.668490    30A     -0.658675
      31A     -0.641281    32A     -0.632858    33A     -0.593329
      34A     -0.577085    35A     -0.566625    36A     -0.561448
      37A     -0.549849    38A     -0.530609    39A     -0.522168
      40A     -0.507072    41A     -0.435092    42A     -0.424574
      43A     -0.401775    44A     -0.396476    45A     -0.364126
      46A     -0.339032

  @DF-RHF Final Energy:  -568.39890720688527

   => Energetics <=

    Nuclear Repulsion Energy =            762.8337253485013889
    One-Electron Energy =               -2285.3437802684970848
    Two-Electron Energy =                 954.1111477131103129
    Total Energy =                       -568.3989072068852693
  Basis Set: (AUG-CC-PVTZ AUX)
    Blend: AUG-CC-PVTZ-RI
    Molecular point group: c1

    Geometry (in Angstrom), charge = 0, multiplicity = 1:

       Center              X                  Y                   Z               Mass
    ------------   -----------------  -----------------  -----------------  -----------------
         O            3.123203791143    -1.427739988052    -0.216428364132    15.994914619570
         N            0.881746791143    -1.229665988052    -0.591473364132    14.003074004430
         N            1.529984791143     1.486630011948     0.333052635868    14.003074004430
         C           -0.720659208857     0.528282011948     0.031618635868    12.000000000000
         C           -0.415657208857    -0.824506988052    -0.238438364132    12.000000000000
         C            0.309953791143     1.586206011948    -0.085974364132    12.000000000000
         C            1.895567791143     0.259652011948     1.037695635868    12.000000000000
         C           -2.052837208857     0.863338011948     0.335078635868    12.000000000000
         C           -1.437151208857    -1.787741988052    -0.233206364132    12.000000000000
         C            1.889565391143    -0.779834688052     0.084756135868    12.000000000000
         C           -0.083001208857     2.869062011948    -0.771125364132    12.000000000000
         C           -3.056502208857    -0.098629988052     0.360221635868    12.000000000000
         C           -2.747627208857    -1.429531988052     0.059534635868    12.000000000000
         H            0.972917791143    -2.068322988052    -1.159741364132     1.007825032230
         H            1.140544791143    -0.024897988052     1.786844635868     1.007825032230
         H            2.857601791143     0.405449011948     1.530144635868     1.007825032230
         H           -2.299954208857     1.898575011948     0.555285635868     1.007825032230
         H           -1.185456208857    -2.825035988052    -0.446790364132     1.007825032230
         H           -0.819101208857     3.425440011948    -0.181173364132     1.007825032230
         H           -0.528296208857     2.669490011948    -1.750631364132     1.007825032230
         H            0.808667791143     3.487094011948    -0.887611364132     1.007825032230
         H           -4.076333208857     0.185248011948     0.606144635868     1.007825032230
         H           -3.525369208857    -2.189121988052     0.065115635868     1.007825032230

  Basis Set: AUG-CC-PVTZ
    Blend: AUG-CC-PVTZ
  Basis Set: (AUG-CC-PVTZ AUX)
    Blend: AUG-CC-PVTZ-JKFIT
	 Reference Energy          =    -568.3989072068852693 [Eh]
	 Singles Energy            =      -0.0000000000000000 [Eh]
	 Same-Spin Energy          =      -0.6194412249631490 [Eh]
	 Opposite-Spin Energy      =      -1.8965357284178572 [Eh]
	 Correlation Energy        =      -2.5159769533810064 [Eh]
	 Total Energy              =    -570.9148841602662969 [Eh]

	 ================> DF-SCS-MP2 Energies <==================
	-----------------------------------------------------------
	 SCS Same-Spin Scale       =       0.3333333333333333 [-]
	 SCS Opposite-Spin Scale   =       1.2000000000000000 [-]
	 SCS Same-Spin Energy      =      -0.2064804083210497 [Eh]
	 SCS Opposite-Spin Energy  =      -2.2758428741014285 [Eh]
	 SCS Correlation Energy    =      -2.4823232824224783 [Eh]
	 SCS Total Energy          =    -570.8812304893077680 [Eh]
	-----------------------------------------------------------

  Dipole Moment: [D]
     X:    -6.7700      Y:     0.3724      Z:     0.2859     Total:     6.7862

*** Psi4 exiting successfully. Buy a developer a beer!
