                               Psi4 1.3.2 release

  ==> Input File <==

--------------------------------------------------------------------------
#psi4
#
memory 32 gb

molecule  {
0 1
  O        3.1477550    -1.4485350    -0.2143050
  N        0.9062980    -1.2504610    -0.5893500
  N        1.5545360     1.4658350     0.3351760
  C       -0.6961080     0.5074870     0.0337420
  C       -0.3816165    -0.8262649    -0.2241396
  C        0.3345050     1.5654110    -0.0838510
  C        1.9201190     0.2388570     1.0398190
  C       -2.0282860     0.8425430     0.3372020
  C       -1.4126000    -1.8085370    -0.2310830
  C        2.0871850    -0.8915250     0.0446260
  C       -0.0584500     2.8482670    -0.7690020
  C       -3.0319510    -0.1194250     0.3623450
  C       -2.7230760    -1.4503270     0.0616580
  H        0.9974690    -2.0891180    -1.1576180
  H        1.1650960    -0.0456930     1.7889680
  H        2.8821530     0.3846540     1.5322680
  H       -2.2754030     1.8777800     0.5574090
  H       -1.1609050    -2.8458310    -0.4446670
  H       -0.7945500     3.4046450    -0.1790500
  H       -0.5037450     2.6486950    -1.7485080
  H        0.8332190     3.4662990    -0.8854880
  H       -4.0517820     0.1644530     0.6082680
  H       -3.5008180    -2.2099170     0.0672390
units angstrom
no_reorient  #important for SAPT in psi4, default
symmetry c1  #important for SAPT in psi4, default
}

set PROPERTIES_ORIGIN ["COM"]
properties('MP2/aug-cc-pvtz', properties = ['dipole'])
--------------------------------------------------------------------------

    Molecular point group: c1
  Charge       = 0
  Multiplicity = 1
  Basis Set: AUG-CC-PVTZ
    Blend: AUG-CC-PVTZ
  Basis Set: (AUG-CC-PVTZ AUX)
    Blend: AUG-CC-PVTZ-JKFIT

    Orbital Energies [Eh]
    ---------------------

    Doubly Occupied:

       1A    -20.531975     2A    -15.607380     3A    -15.567092
       4A    -11.362050     5A    -11.314574     6A    -11.302236
       7A    -11.267034     8A    -11.266483     9A    -11.265101
      10A    -11.264274    11A    -11.260265    12A    -11.253883
      13A    -11.234198    14A     -1.387377    15A     -1.276540
      16A     -1.232725    17A     -1.164573    18A     -1.066239
      19A     -1.032772    20A     -1.012807    21A     -0.951587
      22A     -0.884512    23A     -0.859421    24A     -0.794691
      25A     -0.768865    26A     -0.728382    27A     -0.692069
      28A     -0.677746    29A     -0.656876    30A     -0.650244
      31A     -0.625594    32A     -0.618178    33A     -0.604173
      34A     -0.586468    35A     -0.566677    36A     -0.558750
      37A     -0.543060    38A     -0.539537    39A     -0.527959
      40A     -0.515925    41A     -0.457460    42A     -0.444333
      43A     -0.417490    44A     -0.405104    45A     -0.355213
      46A     -0.332294

  @DF-RHF Final Energy:  -568.46497297972473

   => Energetics <=

    Nuclear Repulsion Energy =            760.9497884015013369
    One-Electron Energy =               -2281.9651548154970442
    Two-Electron Energy =                 952.5503934342709726
    Total Energy =                       -568.4649729797247346
  Basis Set: (AUG-CC-PVTZ AUX)
    Blend: AUG-CC-PVTZ-RI
    Molecular point group: c1

    Geometry (in Angstrom), charge = 0, multiplicity = 1:

       Center              X                  Y                   Z               Mass
    ------------   -----------------  -----------------  -----------------  -----------------
         O            3.110619327413    -1.422786508024    -0.214354957511    15.994914619570
         N            0.869162327413    -1.224712508024    -0.589399957511    14.003074004430
         N            1.517400327413     1.491583491976     0.335126042489    14.003074004430
         C           -0.733243672587     0.533235491976     0.033692042489    12.000000000000
         C           -0.418752172587    -0.800516408024    -0.224189557511    12.000000000000
         C            0.297369327413     1.591159491976    -0.083900957511    12.000000000000
         C            1.882983327413     0.264605491976     1.039769042489    12.000000000000
         C           -2.065421672587     0.868291491976     0.337152042489    12.000000000000
         C           -1.449735672587    -1.782788508024    -0.231132957511    12.000000000000
         C            2.050049327413    -0.865776508024     0.044576042489    12.000000000000
         C           -0.095585672587     2.874015491976    -0.769051957511    12.000000000000
         C           -3.069086672587    -0.093676508024     0.362295042489    12.000000000000
         C           -2.760211672587    -1.424578508024     0.061608042489    12.000000000000
         H            0.960333327413    -2.063369508024    -1.157667957511     1.007825032230
         H            1.127960327413    -0.019944508024     1.788918042489     1.007825032230
         H            2.845017327413     0.410402491976     1.532218042489     1.007825032230
         H           -2.312538672587     1.903528491976     0.557359042489     1.007825032230
         H           -1.198040672587    -2.820082508024    -0.444716957511     1.007825032230
         H           -0.831685672587     3.430393491976    -0.179099957511     1.007825032230
         H           -0.540880672587     2.674443491976    -1.748557957511     1.007825032230
         H            0.796083327413     3.492047491976    -0.885537957511     1.007825032230
         H           -4.088917672587     0.190201491976     0.608218042489     1.007825032230
         H           -3.537953672587    -2.184168508024     0.067189042489     1.007825032230

  Basis Set: AUG-CC-PVTZ
    Blend: AUG-CC-PVTZ
  Basis Set: (AUG-CC-PVTZ AUX)
    Blend: AUG-CC-PVTZ-JKFIT
	 Reference Energy          =    -568.4649729797247346 [Eh]
	 Singles Energy            =      -0.0000000000000000 [Eh]
	 Same-Spin Energy          =      -0.6144080307478759 [Eh]
	 Opposite-Spin Energy      =      -1.8871997742085966 [Eh]
	 Correlation Energy        =      -2.5016078049564725 [Eh]
	 Total Energy              =    -570.9665807846812413 [Eh]

	 ================> DF-SCS-MP2 Energies <==================
	-----------------------------------------------------------
	 SCS Same-Spin Scale       =       0.3333333333333333 [-]
	 SCS Opposite-Spin Scale   =       1.2000000000000000 [-]
	 SCS Same-Spin Energy      =      -0.2048026769159586 [Eh]
	 SCS Opposite-Spin Energy  =      -2.2646397290503160 [Eh]
	 SCS Correlation Energy    =      -2.4694424059662747 [Eh]
	 SCS Total Energy          =    -570.9344153856909543 [Eh]
	-----------------------------------------------------------

  Dipole Moment: [D]
     X:    -5.1176      Y:    -0.2417      Z:     0.2229     Total:     5.1281

*** Psi4 exiting successfully. Buy a developer a beer!
