                               Psi4 1.3.2 release

  ==> Input File <==

--------------------------------------------------------------------------
#psi4
#
memory 32 gb

molecule  {
0 1
  O        3.1477550    -1.4485350    -0.2143050
  N        0.9062980    -1.2504610    -0.5893500
  N        1.5545360     1.4658350     0.3351760
  C       -0.6961080     0.5074870     0.0337420
  C       -0.3911060    -0.8453020    -0.2363150
  C        0.3137543     1.4425736    -0.0307397
  C        1.9201190     0.2388570     1.0398190
  C       -2.0282860     0.8425430     0.3372020
  C       -1.4126000    -1.8085370    -0.2310830
  C        2.0871850    -0.8915250     0.0446260
  C       -0.0584500     2.8482670    -0.7690020
  C       -3.0319510    -0.1194250     0.3623450
  C       -2.7230760    -1.4503270     0.0616580
  H        0.9974690    -2.0891180    -1.1576180
  H        1.1650960    -0.0456930     1.7889680
  H        2.8821530     0.3846540     1.5322680
  H       -2.2754030     1.8777800     0.5574090
  H       -1.1609050    -2.8458310    -0.4446670
  H       -0.7945500     3.4046450    -0.1790500
  H       -0.5037450     2.6486950    -1.7485080
  H        0.8332190     3.4662990    -0.8854880
  H       -4.0517820     0.1644530     0.6082680
  H       -3.5008180    -2.2099170     0.0672390
units angstrom
no_reorient  #important for SAPT in psi4, default
symmetry c1  #important for SAPT in psi4, default
}

set PROPERTIES_ORIGIN ["COM"]
properties('MP2/aug-cc-pvtz', properties = ['dipole'])
--------------------------------------------------------------------------

    Molecular point group: c1
  Charge       = 0
  Multiplicity = 1
  Basis Set: AUG-CC-PVTZ
    Blend: AUG-CC-PVTZ
  Basis Set: (AUG-CC-PVTZ AUX)
    Blend: AUG-CC-PVTZ-JKFIT

    Orbital Energies [Eh]
    ---------------------

    Doubly Occupied:

       1A    -20.532761     2A    -15.610031     3A    -15.569394
       4A    -11.362920     5A    -11.318599     6A    -11.298749
       7A    -11.272099     8A    -11.270310     9A    -11.263605
      10A    -11.262674    11A    -11.260903    12A    -11.257096
      13A    -11.232788    14A     -1.388438    15A     -1.281844
      16A     -1.235749    17A     -1.170354    18A     -1.074608
      19A     -1.037740    20A     -0.998043    21A     -0.940505
      22A     -0.900590    23A     -0.862251    24A     -0.801873
      25A     -0.772878    26A     -0.733280    27A     -0.691182
      28A     -0.679910    29A     -0.662401    30A     -0.649568
      31A     -0.628353    32A     -0.611655    33A     -0.605121
      34A     -0.575792    35A     -0.570236    36A     -0.553617
      37A     -0.549211    38A     -0.537172    39A     -0.529796
      40A     -0.496407    41A     -0.460643    42A     -0.446805
      43A     -0.419541    44A     -0.411743    45A     -0.353999
      46A     -0.335466

  @DF-RHF Final Energy:  -568.44413537295873

   => Energetics <=

    Nuclear Repulsion Energy =            762.4576100702028043
    One-Electron Energy =               -2284.8460900080485771
    Two-Electron Energy =                 953.9443445648869329
    Total Energy =                       -568.4441353729587263
  Basis Set: (AUG-CC-PVTZ AUX)
    Blend: AUG-CC-PVTZ-RI
    Molecular point group: c1

    Geometry (in Angstrom), charge = 0, multiplicity = 1:

       Center              X                  Y                   Z               Mass
    ------------   -----------------  -----------------  -----------------  -----------------
         O            3.112703908251    -1.413006517678    -0.217176836755    15.994914619570
         N            0.871246908251    -1.214932517678    -0.592221836755    14.003074004430
         N            1.519484908251     1.501363482322     0.332304163245    14.003074004430
         C           -0.731159091749     0.543015482322     0.030870163245    12.000000000000
         C           -0.426157091749    -0.809773517678    -0.239186836755    12.000000000000
         C            0.278703208251     1.478102082322    -0.033611536755    12.000000000000
         C            1.885067908251     0.274385482322     1.036947163245    12.000000000000
         C           -2.063337091749     0.878071482322     0.334330163245    12.000000000000
         C           -1.447651091749    -1.773008517678    -0.233954836755    12.000000000000
         C            2.052133908251    -0.855996517678     0.041754163245    12.000000000000
         C           -0.093501091749     2.883795482322    -0.771873836755    12.000000000000
         C           -3.067002091749    -0.083896517678     0.359473163245    12.000000000000
         C           -2.758127091749    -1.414798517678     0.058786163245    12.000000000000
         H            0.962417908251    -2.053589517678    -1.160489836755     1.007825032230
         H            1.130044908251    -0.010164517678     1.786096163245     1.007825032230
         H            2.847101908251     0.420182482322     1.529396163245     1.007825032230
         H           -2.310454091749     1.913308482322     0.554537163245     1.007825032230
         H           -1.195956091749    -2.810302517678    -0.447538836755     1.007825032230
         H           -0.829601091749     3.440173482322    -0.181921836755     1.007825032230
         H           -0.538796091749     2.684223482322    -1.751379836755     1.007825032230
         H            0.798167908251     3.501827482322    -0.888359836755     1.007825032230
         H           -4.086833091749     0.199981482322     0.605396163245     1.007825032230
         H           -3.535869091749    -2.174388517678     0.064367163245     1.007825032230

  Basis Set: AUG-CC-PVTZ
    Blend: AUG-CC-PVTZ
  Basis Set: (AUG-CC-PVTZ AUX)
    Blend: AUG-CC-PVTZ-JKFIT
	 Reference Energy          =    -568.4441353729587263 [Eh]
	 Singles Energy            =      -0.0000000000000000 [Eh]
	 Same-Spin Energy          =      -0.6160521117414876 [Eh]
	 Opposite-Spin Energy      =      -1.8900779850288942 [Eh]
	 Correlation Energy        =      -2.5061300967703817 [Eh]
	 Total Energy              =    -570.9502654697290609 [Eh]

	 ================> DF-SCS-MP2 Energies <==================
	-----------------------------------------------------------
	 SCS Same-Spin Scale       =       0.3333333333333333 [-]
	 SCS Opposite-Spin Scale   =       1.2000000000000000 [-]
	 SCS Same-Spin Energy      =      -0.2053507039138292 [Eh]
	 SCS Opposite-Spin Energy  =      -2.2680935820346728 [Eh]
	 SCS Correlation Energy    =      -2.4734442859485020 [Eh]
	 SCS Total Energy          =    -570.9175796589072434 [Eh]
	-----------------------------------------------------------

  Dipole Moment: [D]
     X:    -5.2081      Y:    -0.6648      Z:     0.3662     Total:     5.2631

*** Psi4 exiting successfully. Buy a developer a beer!
