                               Psi4 1.3.2 release

  ==> Input File <==

--------------------------------------------------------------------------
#psi4
#
memory 32 gb

molecule  {
0 1
  O        3.1375839    -1.4608942    -0.2284950
  N        0.9062980    -1.2504610    -0.5893500
  N        1.5545360     1.4658350     0.3351760
  C       -0.6961080     0.5074870     0.0337420
  C       -0.3911060    -0.8453020    -0.2363150
  C        0.3345050     1.5654110    -0.0838510
  C        1.9201190     0.2388570     1.0398190
  C       -2.0282860     0.8425430     0.3372020
  C       -1.4126000    -1.8085370    -0.2310830
  C        2.0871850    -0.8915250     0.0446260
  C       -0.0584500     2.8482670    -0.7690020
  C       -3.0319510    -0.1194250     0.3623450
  C       -2.7230760    -1.4503270     0.0616580
  H        0.9974690    -2.0891180    -1.1576180
  H        1.1650960    -0.0456930     1.7889680
  H        2.8821530     0.3846540     1.5322680
  H       -2.2754030     1.8777800     0.5574090
  H       -1.1609050    -2.8458310    -0.4446670
  H       -0.7945500     3.4046450    -0.1790500
  H       -0.5037450     2.6486950    -1.7485080
  H        0.8332190     3.4662990    -0.8854880
  H       -4.0517820     0.1644530     0.6082680
  H       -3.5008180    -2.2099170     0.0672390
units angstrom
no_reorient  #important for SAPT in psi4, default
symmetry c1  #important for SAPT in psi4, default
}

set PROPERTIES_ORIGIN ["COM"]
properties('MP2/aug-cc-pvtz', properties = ['dipole'])
--------------------------------------------------------------------------

    Molecular point group: c1
  Charge       = 0
  Multiplicity = 1
  Basis Set: AUG-CC-PVTZ
    Blend: AUG-CC-PVTZ
  Basis Set: (AUG-CC-PVTZ AUX)
    Blend: AUG-CC-PVTZ-JKFIT

    Orbital Energies [Eh]
    ---------------------

    Doubly Occupied:

       1A    -20.532048     2A    -15.606042     3A    -15.567319
       4A    -11.362630     5A    -11.314036     6A    -11.302713
       7A    -11.268055     8A    -11.266723     9A    -11.265502
      10A    -11.265331    11A    -11.257979    12A    -11.253571
      13A    -11.234354    14A     -1.387829    15A     -1.275422
      16A     -1.232841    17A     -1.164302    18A     -1.065664
      19A     -1.035063    20A     -1.011229    21A     -0.952163
      22A     -0.885530    23A     -0.857776    24A     -0.795248
      25A     -0.768103    26A     -0.728621    27A     -0.691515
      28A     -0.677888    29A     -0.657365    30A     -0.648214
      31A     -0.626095    32A     -0.618357    33A     -0.604959
      34A     -0.586557    35A     -0.566884    36A     -0.558848
      37A     -0.543612    38A     -0.539073    39A     -0.527848
      40A     -0.515475    41A     -0.457593    42A     -0.444023
      43A     -0.417931    44A     -0.405910    45A     -0.354994
      46A     -0.331839

  @DF-RHF Final Energy:  -568.46552494669413

   => Energetics <=

    Nuclear Repulsion Energy =            760.7788490135717439
    One-Electron Energy =               -2281.6266042393258431
    Two-Electron Energy =                 952.3822302790599679
    Total Energy =                       -568.4655249466941314
  Basis Set: (AUG-CC-PVTZ AUX)
    Blend: AUG-CC-PVTZ-RI
    Molecular point group: c1

    Geometry (in Angstrom), charge = 0, multiplicity = 1:

       Center              X                  Y                   Z               Mass
    ------------   -----------------  -----------------  -----------------  -----------------
         O            3.102036927824    -1.432697803436    -0.226401838768    15.994914619570
         N            0.870751027824    -1.222264603436    -0.587256838768    14.003074004430
         N            1.518989027824     1.494031396564     0.337269161232    14.003074004430
         C           -0.731654972176     0.535683396564     0.035835161232    12.000000000000
         C           -0.426652972176    -0.817105603436    -0.234221838768    12.000000000000
         C            0.298958027824     1.593607396564    -0.081757838768    12.000000000000
         C            1.884572027824     0.267053396564     1.041912161232    12.000000000000
         C           -2.063832972176     0.870739396564     0.339295161232    12.000000000000
         C           -1.448146972176    -1.780340603436    -0.228989838768    12.000000000000
         C            2.051638027824    -0.863328603436     0.046719161232    12.000000000000
         C           -0.093996972176     2.876463396564    -0.766908838768    12.000000000000
         C           -3.067497972176    -0.091228603436     0.364438161232    12.000000000000
         C           -2.758622972176    -1.422130603436     0.063751161232    12.000000000000
         H            0.961922027824    -2.060921603436    -1.155524838768     1.007825032230
         H            1.129549027824    -0.017496603436     1.791061161232     1.007825032230
         H            2.846606027824     0.412850396564     1.534361161232     1.007825032230
         H           -2.310949972176     1.905976396564     0.559502161232     1.007825032230
         H           -1.196451972176    -2.817634603436    -0.442573838768     1.007825032230
         H           -0.830096972176     3.432841396564    -0.176956838768     1.007825032230
         H           -0.539291972176     2.676891396564    -1.746414838768     1.007825032230
         H            0.797672027824     3.494495396564    -0.883394838768     1.007825032230
         H           -4.087328972176     0.192649396564     0.610361161232     1.007825032230
         H           -3.536364972176    -2.181720603436     0.069332161232     1.007825032230

  Basis Set: AUG-CC-PVTZ
    Blend: AUG-CC-PVTZ
  Basis Set: (AUG-CC-PVTZ AUX)
    Blend: AUG-CC-PVTZ-JKFIT
	 Reference Energy          =    -568.4655249466941314 [Eh]
	 Singles Energy            =      -0.0000000000000000 [Eh]
	 Same-Spin Energy          =      -0.6144597907149079 [Eh]
	 Opposite-Spin Energy      =      -1.8871456904442079 [Eh]
	 Correlation Energy        =      -2.5016054811591157 [Eh]
	 Total Energy              =    -570.9671304278532489 [Eh]

	 ================> DF-SCS-MP2 Energies <==================
	-----------------------------------------------------------
	 SCS Same-Spin Scale       =       0.3333333333333333 [-]
	 SCS Opposite-Spin Scale   =       1.2000000000000000 [-]
	 SCS Same-Spin Energy      =      -0.2048199302383026 [Eh]
	 SCS Opposite-Spin Energy  =      -2.2645748285330494 [Eh]
	 SCS Correlation Energy    =      -2.4693947587713518 [Eh]
	 SCS Total Energy          =    -570.9349197054655178 [Eh]
	-----------------------------------------------------------

  Dipole Moment: [D]
     X:    -5.0881      Y:    -0.2108      Z:     0.2581     Total:     5.0990

*** Psi4 exiting successfully. Buy a developer a beer!
