                               Psi4 1.3.2 release

  ==> Input File <==

--------------------------------------------------------------------------
#psi4
#
memory 32 gb

molecule  {
0 1
  O        3.1477550    -1.4485350    -0.2143050
  N        0.9062980    -1.2504610    -0.5893500
  N        1.5545360     1.4658350     0.3351760
  C       -0.6961080     0.5074870     0.0337420
  C       -0.4249137    -0.8107397    -0.2443283
  C        0.3345050     1.5654110    -0.0838510
  C        1.9201190     0.2388570     1.0398190
  C       -2.0282860     0.8425430     0.3372020
  C       -1.4126000    -1.8085370    -0.2310830
  C        2.0871850    -0.8915250     0.0446260
  C       -0.0584500     2.8482670    -0.7690020
  C       -3.0319510    -0.1194250     0.3623450
  C       -2.7230760    -1.4503270     0.0616580
  H        0.9974690    -2.0891180    -1.1576180
  H        1.1650960    -0.0456930     1.7889680
  H        2.8821530     0.3846540     1.5322680
  H       -2.2754030     1.8777800     0.5574090
  H       -1.1609050    -2.8458310    -0.4446670
  H       -0.7945500     3.4046450    -0.1790500
  H       -0.5037450     2.6486950    -1.7485080
  H        0.8332190     3.4662990    -0.8854880
  H       -4.0517820     0.1644530     0.6082680
  H       -3.5008180    -2.2099170     0.0672390
units angstrom
no_reorient  #important for SAPT in psi4, default
symmetry c1  #important for SAPT in psi4, default
}

set PROPERTIES_ORIGIN ["COM"]
properties('MP2/aug-cc-pvtz', properties = ['dipole'])
--------------------------------------------------------------------------

    Molecular point group: c1
  Charge       = 0
  Multiplicity = 1
  Basis Set: AUG-CC-PVTZ
    Blend: AUG-CC-PVTZ
  Basis Set: (AUG-CC-PVTZ AUX)
    Blend: AUG-CC-PVTZ-JKFIT

    Orbital Energies [Eh]
    ---------------------

    Doubly Occupied:

       1A    -20.529025     2A    -15.603540     3A    -15.567975
       4A    -11.359709     5A    -11.312766     6A    -11.303320
       7A    -11.267338     8A    -11.266230     9A    -11.265978
      10A    -11.263927    11A    -11.259975    12A    -11.255267
      13A    -11.234971    14A     -1.383801    15A     -1.269927
      16A     -1.228783    17A     -1.167968    18A     -1.068299
      19A     -1.035143    20A     -1.014762    21A     -0.950902
      22A     -0.884413    23A     -0.858052    24A     -0.792677
      25A     -0.770499    26A     -0.722937    27A     -0.690058
      28A     -0.676201    29A     -0.656273    30A     -0.653246
      31A     -0.627205    32A     -0.617914    33A     -0.600716
      34A     -0.586724    35A     -0.564315    36A     -0.559345
      37A     -0.544023    38A     -0.538642    39A     -0.529929
      40A     -0.519280    41A     -0.455554    42A     -0.439764
      43A     -0.418143    44A     -0.404544    45A     -0.356713
      46A     -0.337250

  @DF-RHF Final Energy:  -568.46373502433426

   => Energetics <=

    Nuclear Repulsion Energy =            760.8869023306510826
    One-Electron Energy =               -2281.8732275978454709
    Two-Electron Energy =                 952.5225902428601330
    Total Energy =                       -568.4637350243342553
  Basis Set: (AUG-CC-PVTZ AUX)
    Blend: AUG-CC-PVTZ-RI
    Molecular point group: c1

    Geometry (in Angstrom), charge = 0, multiplicity = 1:

       Center              X                  Y                   Z               Mass
    ------------   -----------------  -----------------  -----------------  -----------------
         O            3.113603980737    -1.423856723645    -0.212963267736    15.994914619570
         N            0.872146980737    -1.225782723645    -0.588008267736    14.003074004430
         N            1.520384980737     1.490513276355     0.336517732264    14.003074004430
         C           -0.730259019263     0.532165276355     0.035083732264    12.000000000000
         C           -0.459064719263    -0.786061423645    -0.242986567736    12.000000000000
         C            0.300353980737     1.590089276355    -0.082509267736    12.000000000000
         C            1.885967980737     0.263535276355     1.041160732264    12.000000000000
         C           -2.062437019263     0.867221276355     0.338543732264    12.000000000000
         C           -1.446751019263    -1.783858723645    -0.229741267736    12.000000000000
         C            2.053033980737    -0.866846723645     0.045967732264    12.000000000000
         C           -0.092601019263     2.872945276355    -0.767660267736    12.000000000000
         C           -3.066102019263    -0.094746723645     0.363686732264    12.000000000000
         C           -2.757227019263    -1.425648723645     0.062999732264    12.000000000000
         H            0.963317980737    -2.064439723645    -1.156276267736     1.007825032230
         H            1.130944980737    -0.021014723645     1.790309732264     1.007825032230
         H            2.848001980737     0.409332276355     1.533609732264     1.007825032230
         H           -2.309554019263     1.902458276355     0.558750732264     1.007825032230
         H           -1.195056019263    -2.821152723645    -0.443325267736     1.007825032230
         H           -0.828701019263     3.429323276355    -0.177708267736     1.007825032230
         H           -0.537896019263     2.673373276355    -1.747166267736     1.007825032230
         H            0.799067980737     3.490977276355    -0.884146267736     1.007825032230
         H           -4.085933019263     0.189131276355     0.609609732264     1.007825032230
         H           -3.534969019263    -2.185238723645     0.068580732264     1.007825032230

  Basis Set: AUG-CC-PVTZ
    Blend: AUG-CC-PVTZ
  Basis Set: (AUG-CC-PVTZ AUX)
    Blend: AUG-CC-PVTZ-JKFIT
	 Reference Energy          =    -568.4637350243342553 [Eh]
	 Singles Energy            =      -0.0000000000000000 [Eh]
	 Same-Spin Energy          =      -0.6140172587801347 [Eh]
	 Opposite-Spin Energy      =      -1.8869666030261261 [Eh]
	 Correlation Energy        =      -2.5009838618062608 [Eh]
	 Total Energy              =    -570.9647188861405311 [Eh]

	 ================> DF-SCS-MP2 Energies <==================
	-----------------------------------------------------------
	 SCS Same-Spin Scale       =       0.3333333333333333 [-]
	 SCS Opposite-Spin Scale   =       1.2000000000000000 [-]
	 SCS Same-Spin Energy      =      -0.2046724195933782 [Eh]
	 SCS Opposite-Spin Energy  =      -2.2643599236313512 [Eh]
	 SCS Correlation Energy    =      -2.4690323432247294 [Eh]
	 SCS Total Energy          =    -570.9327673675589949 [Eh]
	-----------------------------------------------------------

  Dipole Moment: [D]
     X:    -5.3066      Y:    -0.1741      Z:     0.2551     Total:     5.3156

*** Psi4 exiting successfully. Buy a developer a beer!
