                               Psi4 1.3.2 release

  ==> Input File <==

--------------------------------------------------------------------------
#psi4
#
memory 32 gb

molecule  {
0 1
  O        3.1477550    -1.4485350    -0.2143050
  N        0.8723177    -1.3422062    -0.5953295
  N        1.5545360     1.4658350     0.3351760
  C       -0.6961080     0.5074870     0.0337420
  C       -0.3911060    -0.8453020    -0.2363150
  C        0.3345050     1.5654110    -0.0838510
  C        1.9201190     0.2388570     1.0398190
  C       -2.0282860     0.8425430     0.3372020
  C       -1.4126000    -1.8085370    -0.2310830
  C        2.0871850    -0.8915250     0.0446260
  C       -0.0584500     2.8482670    -0.7690020
  C       -3.0319510    -0.1194250     0.3623450
  C       -2.7230760    -1.4503270     0.0616580
  H        0.9974690    -2.0891180    -1.1576180
  H        1.1650960    -0.0456930     1.7889680
  H        2.8821530     0.3846540     1.5322680
  H       -2.2754030     1.8777800     0.5574090
  H       -1.1609050    -2.8458310    -0.4446670
  H       -0.7945500     3.4046450    -0.1790500
  H       -0.5037450     2.6486950    -1.7485080
  H        0.8332190     3.4662990    -0.8854880
  H       -4.0517820     0.1644530     0.6082680
  H       -3.5008180    -2.2099170     0.0672390
units angstrom
no_reorient  #important for SAPT in psi4, default
symmetry c1  #important for SAPT in psi4, default
}

set PROPERTIES_ORIGIN ["COM"]
properties('MP2/aug-cc-pvtz', properties = ['dipole'])
--------------------------------------------------------------------------

    Molecular point group: c1
  Charge       = 0
  Multiplicity = 1
  Basis Set: AUG-CC-PVTZ
    Blend: AUG-CC-PVTZ
  Basis Set: (AUG-CC-PVTZ AUX)
    Blend: AUG-CC-PVTZ-JKFIT

    Orbital Energies [Eh]
    ---------------------

    Doubly Occupied:

       1A    -20.538592     2A    -15.598756     3A    -15.567489
       4A    -11.368915     5A    -11.312916     6A    -11.303442
       7A    -11.271168     8A    -11.266539     9A    -11.265349
      10A    -11.262901    11A    -11.253747    12A    -11.251655
      13A    -11.234570    14A     -1.388187    15A     -1.272430
      16A     -1.234593    17A     -1.161689    18A     -1.064789
      19A     -1.031209    20A     -1.012811    21A     -0.953490
      22A     -0.882598    23A     -0.855400    24A     -0.795864
      25A     -0.770634    26A     -0.732706    27A     -0.689764
      28A     -0.679450    29A     -0.654551    30A     -0.651326
      31A     -0.625179    32A     -0.620179    33A     -0.609984
      34A     -0.586658    35A     -0.563464    36A     -0.558149
      37A     -0.543499    38A     -0.538110    39A     -0.526997
      40A     -0.516314    41A     -0.457999    42A     -0.445107
      43A     -0.417961    44A     -0.407292    45A     -0.354030
      46A     -0.328769

  @DF-RHF Final Energy:  -568.45688446892814

   => Energetics <=

    Nuclear Repulsion Energy =            759.3832500655092872
    One-Electron Energy =               -2278.8258210630465328
    Two-Electron Energy =                 950.9856865286089942
    Total Energy =                       -568.4568844689281377
  Basis Set: (AUG-CC-PVTZ AUX)
    Blend: AUG-CC-PVTZ-RI
    Molecular point group: c1

    Geometry (in Angstrom), charge = 0, multiplicity = 1:

       Center              X                  Y                   Z               Mass
    ------------   -----------------  -----------------  -----------------  -----------------
         O            3.114006879016    -1.414094148205    -0.213034661739    15.994914619570
         N            0.838569579016    -1.307765348205    -0.594059161739    14.003074004430
         N            1.520787879016     1.500275851795     0.336446338261    14.003074004430
         C           -0.729856120984     0.541927851795     0.035012338261    12.000000000000
         C           -0.424854120984    -0.810861148205    -0.235044661739    12.000000000000
         C            0.300756879016     1.599851851795    -0.082580661739    12.000000000000
         C            1.886370879016     0.273297851795     1.041089338261    12.000000000000
         C           -2.062034120984     0.876983851795     0.338472338261    12.000000000000
         C           -1.446348120984    -1.774096148205    -0.229812661739    12.000000000000
         C            2.053436879016    -0.857084148205     0.045896338261    12.000000000000
         C           -0.092198120984     2.882707851795    -0.767731661739    12.000000000000
         C           -3.065699120984    -0.084984148205     0.363615338261    12.000000000000
         C           -2.756824120984    -1.415886148205     0.062928338261    12.000000000000
         H            0.963720879016    -2.054677148205    -1.156347661739     1.007825032230
         H            1.131347879016    -0.011252148205     1.790238338261     1.007825032230
         H            2.848404879016     0.419094851795     1.533538338261     1.007825032230
         H           -2.309151120984     1.912220851795     0.558679338261     1.007825032230
         H           -1.194653120984    -2.811390148205    -0.443396661739     1.007825032230
         H           -0.828298120984     3.439085851795    -0.177779661739     1.007825032230
         H           -0.537493120984     2.683135851795    -1.747237661739     1.007825032230
         H            0.799470879016     3.500739851795    -0.884217661739     1.007825032230
         H           -4.085530120984     0.198893851795     0.609538338261     1.007825032230
         H           -3.534566120984    -2.175476148205     0.068509338261     1.007825032230

  Basis Set: AUG-CC-PVTZ
    Blend: AUG-CC-PVTZ
  Basis Set: (AUG-CC-PVTZ AUX)
    Blend: AUG-CC-PVTZ-JKFIT
	 Reference Energy          =    -568.4568844689281377 [Eh]
	 Singles Energy            =      -0.0000000000000000 [Eh]
	 Same-Spin Energy          =      -0.6138648556409561 [Eh]
	 Opposite-Spin Energy      =      -1.8867677579448743 [Eh]
	 Correlation Energy        =      -2.5006326135858306 [Eh]
	 Total Energy              =    -570.9575170825139594 [Eh]

	 ================> DF-SCS-MP2 Energies <==================
	-----------------------------------------------------------
	 SCS Same-Spin Scale       =       0.3333333333333333 [-]
	 SCS Opposite-Spin Scale   =       1.2000000000000000 [-]
	 SCS Same-Spin Energy      =      -0.2046216185469854 [Eh]
	 SCS Opposite-Spin Energy  =      -2.2641213095338490 [Eh]
	 SCS Correlation Energy    =      -2.4687429280808342 [Eh]
	 SCS Total Energy          =    -570.9256273970089524 [Eh]
	-----------------------------------------------------------

  Dipole Moment: [D]
     X:    -4.7971      Y:    -0.1446      Z:     0.2488     Total:     4.8057

*** Psi4 exiting successfully. Buy a developer a beer!
