                               Psi4 1.4a3.dev225

  ==> Input File <==

--------------------------------------------------------------------------
#psi4
#
memory 32 gb

molecule  {
0 1
  O        3.1477550    -1.4485350    -0.2143050
  N        0.9062980    -1.2504610    -0.5893500
  N        1.5545360     1.4658350     0.3351760
  C       -0.6961080     0.5074870     0.0337420
  C       -0.3911060    -0.8453020    -0.2363150
  C        0.3345050     1.5654110    -0.0838510
  C        1.9201190     0.2388570     1.0398190
  C       -2.0282860     0.8425430     0.3372020
  C       -1.4126000    -1.8085370    -0.2310830
  C        2.0871850    -0.8915250     0.0446260
  C       -0.0454081     2.8056898    -0.7462623
  C       -3.0319510    -0.1194250     0.3623450
  C       -2.7230760    -1.4503270     0.0616580
  H        0.9974690    -2.0891180    -1.1576180
  H        1.1650960    -0.0456930     1.7889680
  H        2.8821530     0.3846540     1.5322680
  H       -2.2754030     1.8777800     0.5574090
  H       -1.1609050    -2.8458310    -0.4446670
  H       -0.7945500     3.4046450    -0.1790500
  H       -0.5037450     2.6486950    -1.7485080
  H        0.8332190     3.4662990    -0.8854880
  H       -4.0517820     0.1644530     0.6082680
  H       -3.5008180    -2.2099170     0.0672390
units angstrom
no_reorient  #important for SAPT in psi4, default
symmetry c1  #important for SAPT in psi4, default
}

set PROPERTIES_ORIGIN ["COM"]
properties('MP2/aug-cc-pvtz', properties = ['dipole'])
--------------------------------------------------------------------------

    Molecular point group: c1
  Charge       = 0
  Multiplicity = 1
  Basis Set: AUG-CC-PVTZ
    Blend: AUG-CC-PVTZ
  Basis Set: (AUG-CC-PVTZ AUX)
    Blend: AUG-CC-PVTZ-JKFIT

    Orbital Energies [Eh]
    ---------------------

    Doubly Occupied:

       1A    -20.532245     2A    -15.607030     3A    -15.566910
       4A    -11.362580     5A    -11.314386     6A    -11.300157
       7A    -11.266832     8A    -11.266709     9A    -11.265520
      10A    -11.265405    11A    -11.258198    12A    -11.253684
      13A    -11.235850    14A     -1.387482    15A     -1.276499
      16A     -1.234619    17A     -1.164615    18A     -1.068296
      19A     -1.035569    20A     -1.013985    21A     -0.951250
      22A     -0.884965    23A     -0.857924    24A     -0.795785
      25A     -0.768388    26A     -0.729558    27A     -0.693081
      28A     -0.677818    29A     -0.657830    30A     -0.648878
      31A     -0.625946    32A     -0.623893    33A     -0.604943
      34A     -0.582245    35A     -0.566831    36A     -0.557534
      37A     -0.540405    38A     -0.538061    39A     -0.525936
      40A     -0.517637    41A     -0.456572    42A     -0.444508
      43A     -0.418381    44A     -0.404588    45A     -0.355008
      46A     -0.332214

  @DF-RHF Final Energy:  -568.46232806905982

   => Energetics <=

    Nuclear Repulsion Energy =            761.7776768235928557
    One-Electron Energy =               -2283.6065110793961139
    Two-Electron Energy =                 953.3665061867434360
    Total Energy =                       -568.4623280690598222
  Basis Set: (AUG-CC-PVTZ AUX)
    Blend: AUG-CC-PVTZ-RI
    Molecular point group: c1

    Geometry (in Angstrom), charge = 0, multiplicity = 1:

       Center              X                  Y                   Z               Mass
    ------------   -----------------  -----------------  -----------------  -----------------
         O            3.110374445932    -1.418539181977    -0.215083197977    15.994914619570
         N            0.868917445932    -1.220465181977    -0.590128197977    14.003074004430
         N            1.517155445932     1.495830818023     0.334397802023    14.003074004430
         C           -0.733488554068     0.537482818023     0.032963802023    12.000000000000
         C           -0.428486554068    -0.815306181977    -0.237093197977    12.000000000000
         C            0.297124445932     1.595406818023    -0.084629197977    12.000000000000
         C            1.882738445932     0.268852818023     1.039040802023    12.000000000000
         C           -2.065666554068     0.872538818023     0.336423802023    12.000000000000
         C           -1.449980554068    -1.778541181977    -0.231861197977    12.000000000000
         C            2.049804445932    -0.861529181977     0.043847802023    12.000000000000
         C           -0.082788654068     2.835685618023    -0.747040497977    12.000000000000
         C           -3.069331554068    -0.089429181977     0.361566802023    12.000000000000
         C           -2.760456554068    -1.420331181977     0.060879802023    12.000000000000
         H            0.960088445932    -2.059122181977    -1.158396197977     1.007825032230
         H            1.127715445932    -0.015697181977     1.788189802023     1.007825032230
         H            2.844772445932     0.414649818023     1.531489802023     1.007825032230
         H           -2.312783554068     1.907775818023     0.556630802023     1.007825032230
         H           -1.198285554068    -2.815835181977    -0.445445197977     1.007825032230
         H           -0.831930554068     3.434640818023    -0.179828197977     1.007825032230
         H           -0.541125554068     2.678690818023    -1.749286197977     1.007825032230
         H            0.795838445932     3.496294818023    -0.886266197977     1.007825032230
         H           -4.089162554068     0.194448818023     0.607489802023     1.007825032230
         H           -3.538198554068    -2.179921181977     0.066460802023     1.007825032230

  Basis Set: AUG-CC-PVTZ
    Blend: AUG-CC-PVTZ
  Basis Set: (AUG-CC-PVTZ AUX)
    Blend: AUG-CC-PVTZ-JKFIT
	 Reference Energy          =    -568.4623280690598222 [Eh]
	 Singles Energy            =      -0.0000000000000000 [Eh]
	 Same-Spin Energy          =      -0.6149967121787590 [Eh]
	 Opposite-Spin Energy      =      -1.8877338834988895 [Eh]
	 Correlation Energy        =      -2.5027305956776482 [Eh]
	 Total Energy              =    -570.9650586647375121 [Eh]

	 ================> DF-SCS-MP2 Energies <==================
	-----------------------------------------------------------
	 SCS Same-Spin Scale       =       0.3333333333333333 [-]
	 SCS Opposite-Spin Scale   =       1.2000000000000000 [-]
	 SCS Same-Spin Energy      =      -0.2049989040595863 [Eh]
	 SCS Opposite-Spin Energy  =      -2.2652806601986675 [Eh]
	 SCS Correlation Energy    =      -2.4702795642582536 [Eh]
	 SCS Total Energy          =    -570.9326076333180708 [Eh]
	-----------------------------------------------------------

  Dipole Moment: [D]
     X:    -5.1272      Y:    -0.2026      Z:     0.2096     Total:     5.1355

*** Psi4 exiting successfully. Buy a developer a beer!
