                               Psi4 1.3.2 release

  ==> Input File <==

--------------------------------------------------------------------------
#psi4
#
memory 32 gb

molecule  {
0 1
  O        3.1477550    -1.4485350    -0.2143050
  N        0.9062980    -1.2504610    -0.5893500
  N        1.5545360     1.4658350     0.3351760
  C       -0.6961080     0.5074870     0.0337420
  C       -0.3911060    -0.8453020    -0.2363150
  C        0.3345050     1.5654110    -0.0838510
  C        1.9201190     0.2388570     1.0398190
  C       -2.0282860     0.8425430     0.3372020
  C       -1.4126000    -1.8085370    -0.2310830
  C        2.0006508    -0.8460773     0.0657527
  C       -0.0584500     2.8482670    -0.7690020
  C       -3.0319510    -0.1194250     0.3623450
  C       -2.7230760    -1.4503270     0.0616580
  H        0.9974690    -2.0891180    -1.1576180
  H        1.1650960    -0.0456930     1.7889680
  H        2.8821530     0.3846540     1.5322680
  H       -2.2754030     1.8777800     0.5574090
  H       -1.1609050    -2.8458310    -0.4446670
  H       -0.7945500     3.4046450    -0.1790500
  H       -0.5037450     2.6486950    -1.7485080
  H        0.8332190     3.4662990    -0.8854880
  H       -4.0517820     0.1644530     0.6082680
  H       -3.5008180    -2.2099170     0.0672390
units angstrom
no_reorient  #important for SAPT in psi4, default
symmetry c1  #important for SAPT in psi4, default
}

set PROPERTIES_ORIGIN ["COM"]
properties('MP2/aug-cc-pvtz', properties = ['dipole'])
--------------------------------------------------------------------------

    Molecular point group: c1
  Charge       = 0
  Multiplicity = 1
  Basis Set: AUG-CC-PVTZ
    Blend: AUG-CC-PVTZ
  Basis Set: (AUG-CC-PVTZ AUX)
    Blend: AUG-CC-PVTZ-JKFIT

    Orbital Energies [Eh]
    ---------------------

    Doubly Occupied:

       1A    -20.511847     2A    -15.620224     3A    -15.571497
       4A    -11.363468     5A    -11.318536     6A    -11.306712
       7A    -11.272305     8A    -11.270701     9A    -11.269894
      10A    -11.269366    11A    -11.263658    12A    -11.258862
      13A    -11.237361    14A     -1.350738    15A     -1.262957
      16A     -1.240471    17A     -1.169945    18A     -1.071846
      19A     -1.042247    20A     -1.018981    21A     -0.961516
      22A     -0.893735    23A     -0.863684    24A     -0.808361
      25A     -0.774940    26A     -0.736116    27A     -0.695983
      28A     -0.677245    29A     -0.662801    30A     -0.653118
      31A     -0.629725    32A     -0.626809    33A     -0.592101
      34A     -0.579649    35A     -0.564059    36A     -0.561669
      37A     -0.546779    38A     -0.537949    39A     -0.524443
      40A     -0.518072    41A     -0.443492    42A     -0.427170
      43A     -0.418652    44A     -0.406971    45A     -0.359929
      46A     -0.336846

  @DF-RHF Final Energy:  -568.44325984639840

   => Energetics <=

    Nuclear Repulsion Energy =            761.6758165959689677
    One-Electron Energy =               -2283.2512978055565327
    Two-Electron Energy =                 953.1322213631890463
    Total Energy =                       -568.4432598463984050
  Basis Set: (AUG-CC-PVTZ AUX)
    Blend: AUG-CC-PVTZ-RI
    Molecular point group: c1

    Geometry (in Angstrom), charge = 0, multiplicity = 1:

       Center              X                  Y                   Z               Mass
    ------------   -----------------  -----------------  -----------------  -----------------
         O            3.117238634328    -1.424607098849    -0.214972007281    15.994914619570
         N            0.875781634328    -1.226533098849    -0.590017007281    14.003074004430
         N            1.524019634328     1.489762901151     0.334508992719    14.003074004430
         C           -0.726624365672     0.531414901151     0.033074992719    12.000000000000
         C           -0.421622365672    -0.821374098849    -0.236982007281    12.000000000000
         C            0.303988634328     1.589338901151    -0.084518007281    12.000000000000
         C            1.889602634328     0.262784901151     1.039151992719    12.000000000000
         C           -2.058802365672     0.866470901151     0.336534992719    12.000000000000
         C           -1.443116365672    -1.784609098849    -0.231750007281    12.000000000000
         C            1.970134434328    -0.822149398849     0.065085692719    12.000000000000
         C           -0.088966365672     2.872194901151    -0.769669007281    12.000000000000
         C           -3.062467365672    -0.095497098849     0.361677992719    12.000000000000
         C           -2.753592365672    -1.426399098849     0.060990992719    12.000000000000
         H            0.966952634328    -2.065190098849    -1.158285007281     1.007825032230
         H            1.134579634328    -0.021765098849     1.788300992719     1.007825032230
         H            2.851636634328     0.408581901151     1.531600992719     1.007825032230
         H           -2.305919365672     1.901707901151     0.556741992719     1.007825032230
         H           -1.191421365672    -2.821903098849    -0.445334007281     1.007825032230
         H           -0.825066365672     3.428572901151    -0.179717007281     1.007825032230
         H           -0.534261365672     2.672622901151    -1.749175007281     1.007825032230
         H            0.802702634328     3.490226901151    -0.886155007281     1.007825032230
         H           -4.082298365672     0.188380901151     0.607600992719     1.007825032230
         H           -3.531334365672    -2.185989098849     0.066571992719     1.007825032230

  Basis Set: AUG-CC-PVTZ
    Blend: AUG-CC-PVTZ
  Basis Set: (AUG-CC-PVTZ AUX)
    Blend: AUG-CC-PVTZ-JKFIT
	 Reference Energy          =    -568.4432598463984050 [Eh]
	 Singles Energy            =      -0.0000000000000000 [Eh]
	 Same-Spin Energy          =      -0.6168730371046367 [Eh]
	 Opposite-Spin Energy      =      -1.8917896057863710 [Eh]
	 Correlation Energy        =      -2.5086626428910077 [Eh]
	 Total Energy              =    -570.9519224892893590 [Eh]

	 ================> DF-SCS-MP2 Energies <==================
	-----------------------------------------------------------
	 SCS Same-Spin Scale       =       0.3333333333333333 [-]
	 SCS Opposite-Spin Scale   =       1.2000000000000000 [-]
	 SCS Same-Spin Energy      =      -0.2056243457015456 [Eh]
	 SCS Opposite-Spin Energy  =      -2.2701475269436453 [Eh]
	 SCS Correlation Energy    =      -2.4757718726451907 [Eh]
	 SCS Total Energy          =    -570.9190317190435735 [Eh]
	-----------------------------------------------------------

  Dipole Moment: [D]
     X:    -5.9827      Y:     0.0734      Z:     0.2602     Total:     5.9888

*** Psi4 exiting successfully. Buy a developer a beer!
