                               Psi4 1.3.2 release

  ==> Input File <==

--------------------------------------------------------------------------
#psi4
#
memory 32 gb

molecule  {
0 1
  O        3.1477550    -1.4485350    -0.2143050
  N        0.9062980    -1.2504610    -0.5893500
  N        1.5545360     1.4658350     0.3351760
  C       -0.7615278     0.5708231    -0.0152841
  C       -0.3911060    -0.8453020    -0.2363150
  C        0.3345050     1.5654110    -0.0838510
  C        1.9201190     0.2388570     1.0398190
  C       -2.0282860     0.8425430     0.3372020
  C       -1.4126000    -1.8085370    -0.2310830
  C        2.0871850    -0.8915250     0.0446260
  C       -0.0584500     2.8482670    -0.7690020
  C       -3.0319510    -0.1194250     0.3623450
  C       -2.7230760    -1.4503270     0.0616580
  H        0.9974690    -2.0891180    -1.1576180
  H        1.1650960    -0.0456930     1.7889680
  H        2.8821530     0.3846540     1.5322680
  H       -2.2754030     1.8777800     0.5574090
  H       -1.1609050    -2.8458310    -0.4446670
  H       -0.7945500     3.4046450    -0.1790500
  H       -0.5037450     2.6486950    -1.7485080
  H        0.8332190     3.4662990    -0.8854880
  H       -4.0517820     0.1644530     0.6082680
  H       -3.5008180    -2.2099170     0.0672390
units angstrom
no_reorient  #important for SAPT in psi4, default
symmetry c1  #important for SAPT in psi4, default
}

set PROPERTIES_ORIGIN ["COM"]
properties('MP2/aug-cc-pvtz', properties = ['dipole'])
--------------------------------------------------------------------------

    Molecular point group: c1
  Charge       = 0
  Multiplicity = 1
  Basis Set: AUG-CC-PVTZ
    Blend: AUG-CC-PVTZ
  Basis Set: (AUG-CC-PVTZ AUX)
    Blend: AUG-CC-PVTZ-JKFIT

    Orbital Energies [Eh]
    ---------------------

    Doubly Occupied:

       1A    -20.533510     2A    -15.608976     3A    -15.569310
       4A    -11.363389     5A    -11.319701     6A    -11.303516
       7A    -11.268068     8A    -11.267579     9A    -11.265093
      10A    -11.260067    11A    -11.257165    12A    -11.253265
      13A    -11.231492    14A     -1.388417    15A     -1.274333
      16A     -1.233330    17A     -1.168014    18A     -1.069935
      19A     -1.037807    20A     -1.006140    21A     -0.952266
      22A     -0.884716    23A     -0.857632    24A     -0.796027
      25A     -0.768038    26A     -0.730478    27A     -0.692985
      28A     -0.678739    29A     -0.659958    30A     -0.642842
      31A     -0.630748    32A     -0.616517    33A     -0.604972
      34A     -0.586009    35A     -0.567277    36A     -0.559133
      37A     -0.546852    38A     -0.538865    39A     -0.527669
      40A     -0.505809    41A     -0.459127    42A     -0.445216
      43A     -0.417146    44A     -0.408393    45A     -0.361537
      46A     -0.326554

  @DF-RHF Final Energy:  -568.45599085368178

   => Energetics <=

    Nuclear Repulsion Energy =            760.0834634829259358
    One-Electron Energy =               -2280.1896877397080061
    Two-Electron Energy =                 951.6502334031002874
    Total Energy =                       -568.4559908536817829
  Basis Set: (AUG-CC-PVTZ AUX)
    Blend: AUG-CC-PVTZ-RI
    Molecular point group: c1

    Geometry (in Angstrom), charge = 0, multiplicity = 1:

       Center              X                  Y                   Z               Mass
    ------------   -----------------  -----------------  -----------------  -----------------
         O            3.115783132260    -1.425840219524    -0.210136087460    15.994914619570
         N            0.874326132260    -1.227766219524    -0.585181087460    14.003074004430
         N            1.522564132260     1.488529780476     0.339344912540    14.003074004430
         C           -0.793499667740     0.593517880476    -0.011115187460    12.000000000000
         C           -0.423077867740    -0.822607219524    -0.232146087460    12.000000000000
         C            0.302533132260     1.588105780476    -0.079682087460    12.000000000000
         C            1.888147132260     0.261551780476     1.043987912540    12.000000000000
         C           -2.060257867740     0.865237780476     0.341370912540    12.000000000000
         C           -1.444571867740    -1.785842219524    -0.226914087460    12.000000000000
         C            2.055213132260    -0.868830219524     0.048794912540    12.000000000000
         C           -0.090421867740     2.870961780476    -0.764833087460    12.000000000000
         C           -3.063922867740    -0.096730219524     0.366513912540    12.000000000000
         C           -2.755047867740    -1.427632219524     0.065826912540    12.000000000000
         H            0.965497132260    -2.066423219524    -1.153449087460     1.007825032230
         H            1.133124132260    -0.022998219524     1.793136912540     1.007825032230
         H            2.850181132260     0.407348780476     1.536436912540     1.007825032230
         H           -2.307374867740     1.900474780476     0.561577912540     1.007825032230
         H           -1.192876867740    -2.823136219524    -0.440498087460     1.007825032230
         H           -0.826521867740     3.427339780476    -0.174881087460     1.007825032230
         H           -0.535716867740     2.671389780476    -1.744339087460     1.007825032230
         H            0.801247132260     3.488993780476    -0.881319087460     1.007825032230
         H           -4.083753867740     0.187147780476     0.612436912540     1.007825032230
         H           -3.532789867740    -2.187222219524     0.071407912540     1.007825032230

  Basis Set: AUG-CC-PVTZ
    Blend: AUG-CC-PVTZ
  Basis Set: (AUG-CC-PVTZ AUX)
    Blend: AUG-CC-PVTZ-JKFIT
	 Reference Energy          =    -568.4559908536817829 [Eh]
	 Singles Energy            =      -0.0000000000000000 [Eh]
	 Same-Spin Energy          =      -0.6146062582630832 [Eh]
	 Opposite-Spin Energy      =      -1.8877093104918399 [Eh]
	 Correlation Energy        =      -2.5023155687549230 [Eh]
	 Total Energy              =    -570.9583064224367490 [Eh]

	 ================> DF-SCS-MP2 Energies <==================
	-----------------------------------------------------------
	 SCS Same-Spin Scale       =       0.3333333333333333 [-]
	 SCS Opposite-Spin Scale   =       1.2000000000000000 [-]
	 SCS Same-Spin Energy      =      -0.2048687527543611 [Eh]
	 SCS Opposite-Spin Energy  =      -2.2652511725902076 [Eh]
	 SCS Correlation Energy    =      -2.4701199253445685 [Eh]
	 SCS Total Energy          =    -570.9261107790263168 [Eh]
	-----------------------------------------------------------

  Dipole Moment: [D]
     X:    -5.0471      Y:    -0.2872      Z:     0.2640     Total:     5.0622

*** Psi4 exiting successfully. Buy a developer a beer!
