                               Psi4 1.3.2 release

  ==> Input File <==

--------------------------------------------------------------------------
#psi4
#
memory 32 gb

molecule  {
0 1
  O        3.1477550    -1.4485350    -0.2143050
  N        0.9062980    -1.2504610    -0.5893500
  N        1.5545360     1.4658350     0.3351760
  C       -0.6483931     0.5185050     0.0279366
  C       -0.3911060    -0.8453020    -0.2363150
  C        0.3345050     1.5654110    -0.0838510
  C        1.9201190     0.2388570     1.0398190
  C       -2.0282860     0.8425430     0.3372020
  C       -1.4126000    -1.8085370    -0.2310830
  C        2.0871850    -0.8915250     0.0446260
  C       -0.0584500     2.8482670    -0.7690020
  C       -3.0319510    -0.1194250     0.3623450
  C       -2.7230760    -1.4503270     0.0616580
  H        0.9974690    -2.0891180    -1.1576180
  H        1.1650960    -0.0456930     1.7889680
  H        2.8821530     0.3846540     1.5322680
  H       -2.2754030     1.8777800     0.5574090
  H       -1.1609050    -2.8458310    -0.4446670
  H       -0.7945500     3.4046450    -0.1790500
  H       -0.5037450     2.6486950    -1.7485080
  H        0.8332190     3.4662990    -0.8854880
  H       -4.0517820     0.1644530     0.6082680
  H       -3.5008180    -2.2099170     0.0672390
units angstrom
no_reorient  #important for SAPT in psi4, default
symmetry c1  #important for SAPT in psi4, default
}

set PROPERTIES_ORIGIN ["COM"]
properties('MP2/aug-cc-pvtz', properties = ['dipole'])
--------------------------------------------------------------------------

    Molecular point group: c1
  Charge       = 0
  Multiplicity = 1
  Basis Set: AUG-CC-PVTZ
    Blend: AUG-CC-PVTZ
  Basis Set: (AUG-CC-PVTZ AUX)
    Blend: AUG-CC-PVTZ-JKFIT

    Orbital Energies [Eh]
    ---------------------

    Doubly Occupied:

       1A    -20.531704     2A    -15.606140     3A    -15.566276
       4A    -11.362250     5A    -11.315853     6A    -11.299302
       7A    -11.271468     8A    -11.267397     9A    -11.266793
      10A    -11.266556    11A    -11.259131    12A    -11.254407
      13A    -11.234469    14A     -1.387110    15A     -1.277012
      16A     -1.233973    17A     -1.161009    18A     -1.067343
      19A     -1.033393    20A     -1.010505    21A     -0.951648
      22A     -0.890877    23A     -0.856250    24A     -0.796341
      25A     -0.768513    26A     -0.730199    27A     -0.691359
      28A     -0.677687    29A     -0.658678    30A     -0.649464
      31A     -0.622110    32A     -0.618709    33A     -0.604507
      34A     -0.586861    35A     -0.566417    36A     -0.558455
      37A     -0.545048    38A     -0.538215    39A     -0.526506
      40A     -0.516348    41A     -0.456649    42A     -0.444114
      43A     -0.419697    44A     -0.404898    45A     -0.350469
      46A     -0.333466

  @DF-RHF Final Energy:  -568.46120976394889

   => Energetics <=

    Nuclear Repulsion Energy =            760.9282827711538175
    One-Electron Energy =               -2281.9078322038208171
    Two-Electron Energy =                 952.5183396687181130
    Total Energy =                       -568.4612097639488866
  Basis Set: (AUG-CC-PVTZ AUX)
    Blend: AUG-CC-PVTZ-RI
    Molecular point group: c1

    Geometry (in Angstrom), charge = 0, multiplicity = 1:

       Center              X                  Y                   Z               Mass
    ------------   -----------------  -----------------  -----------------  -----------------
         O            3.107984294035    -1.422233718618    -0.213115467325    15.994914619570
         N            0.866527294035    -1.224159718618    -0.588160467325    14.003074004430
         N            1.514765294035     1.492136281382     0.336365532675    14.003074004430
         C           -0.688163805965     0.544806281382     0.029126132675    12.000000000000
         C           -0.430876705965    -0.819000718618    -0.235125467325    12.000000000000
         C            0.294734294035     1.591712281382    -0.082661467325    12.000000000000
         C            1.880348294035     0.265158281382     1.041008532675    12.000000000000
         C           -2.068056705965     0.868844281382     0.338391532675    12.000000000000
         C           -1.452370705965    -1.782235718618    -0.229893467325    12.000000000000
         C            2.047414294035    -0.865223718618     0.045815532675    12.000000000000
         C           -0.098220705965     2.874568281382    -0.767812467325    12.000000000000
         C           -3.071721705965    -0.093123718618     0.363534532675    12.000000000000
         C           -2.762846705965    -1.424025718618     0.062847532675    12.000000000000
         H            0.957698294035    -2.062816718618    -1.156428467325     1.007825032230
         H            1.125325294035    -0.019391718618     1.790157532675     1.007825032230
         H            2.842382294035     0.410955281382     1.533457532675     1.007825032230
         H           -2.315173705965     1.904081281382     0.558598532675     1.007825032230
         H           -1.200675705965    -2.819529718618    -0.443477467325     1.007825032230
         H           -0.834320705965     3.430946281382    -0.177860467325     1.007825032230
         H           -0.543515705965     2.674996281382    -1.747318467325     1.007825032230
         H            0.793448294035     3.492600281382    -0.884298467325     1.007825032230
         H           -4.091552705965     0.190754281382     0.609457532675     1.007825032230
         H           -3.540588705965    -2.183615718618     0.068428532675     1.007825032230

  Basis Set: AUG-CC-PVTZ
    Blend: AUG-CC-PVTZ
  Basis Set: (AUG-CC-PVTZ AUX)
    Blend: AUG-CC-PVTZ-JKFIT
	 Reference Energy          =    -568.4612097639488866 [Eh]
	 Singles Energy            =      -0.0000000000000000 [Eh]
	 Same-Spin Energy          =      -0.6150900236117265 [Eh]
	 Opposite-Spin Energy      =      -1.8881837362306830 [Eh]
	 Correlation Energy        =      -2.5032737598424095 [Eh]
	 Total Energy              =    -570.9644835237912730 [Eh]

	 ================> DF-SCS-MP2 Energies <==================
	-----------------------------------------------------------
	 SCS Same-Spin Scale       =       0.3333333333333333 [-]
	 SCS Opposite-Spin Scale   =       1.2000000000000000 [-]
	 SCS Same-Spin Energy      =      -0.2050300078705755 [Eh]
	 SCS Opposite-Spin Energy  =      -2.2658204834768196 [Eh]
	 SCS Correlation Energy    =      -2.4708504913473952 [Eh]
	 SCS Total Energy          =    -570.9320602552962782 [Eh]
	-----------------------------------------------------------

  Dipole Moment: [D]
     X:    -5.1641      Y:    -0.2782      Z:     0.2126     Total:     5.1760

*** Psi4 exiting successfully. Buy a developer a beer!
