                               Psi4 1.3.2 release

  ==> Input File <==

--------------------------------------------------------------------------
#psi4
#
memory 32 gb

molecule  {
0 1
  O        3.1477550    -1.4485350    -0.2143050
  N        0.9062980    -1.2504610    -0.5893500
  N        1.5545360     1.4658350     0.3351760
  C       -0.6961080     0.5074870     0.0337420
  C       -0.3911060    -0.8453020    -0.2363150
  C        0.3345050     1.5654110    -0.0838510
  C        1.9201190     0.2388570     1.0398190
  C       -2.0282860     0.8425430     0.3372020
  C       -1.4126000    -1.8085370    -0.2310830
  C        2.0871850    -0.8915250     0.0446260
  C       -0.0584500     2.8482670    -0.7690020
  C       -3.0319510    -0.1194250     0.3623450
  C       -2.7230760    -1.4503270     0.0616580
  H        0.9974690    -2.0891180    -1.1576180
  H        1.1922130    -0.0435712     1.8161178
  H        2.8821530     0.3846540     1.5322680
  H       -2.2754030     1.8777800     0.5574090
  H       -1.1609050    -2.8458310    -0.4446670
  H       -0.7945500     3.4046450    -0.1790500
  H       -0.5037450     2.6486950    -1.7485080
  H        0.8332190     3.4662990    -0.8854880
  H       -4.0517820     0.1644530     0.6082680
  H       -3.5008180    -2.2099170     0.0672390
units angstrom
no_reorient  #important for SAPT in psi4, default
symmetry c1  #important for SAPT in psi4, default
}

set PROPERTIES_ORIGIN ["COM"]
properties('MP2/aug-cc-pvtz', properties = ['dipole'])
--------------------------------------------------------------------------

    Molecular point group: c1
  Charge       = 0
  Multiplicity = 1
  Basis Set: AUG-CC-PVTZ
    Blend: AUG-CC-PVTZ
  Basis Set: (AUG-CC-PVTZ AUX)
    Blend: AUG-CC-PVTZ-JKFIT

    Orbital Energies [Eh]
    ---------------------

    Doubly Occupied:

       1A    -20.532351     2A    -15.607002     3A    -15.567217
       4A    -11.362838     5A    -11.314312     6A    -11.302629
       7A    -11.266845     8A    -11.266742     9A    -11.265566
      10A    -11.265328    11A    -11.258159    12A    -11.253654
      13A    -11.234298    14A     -1.387524    15A     -1.275905
      16A     -1.232839    17A     -1.164440    18A     -1.065481
      19A     -1.035119    20A     -1.011100    21A     -0.951770
      22A     -0.885683    23A     -0.857961    24A     -0.795739
      25A     -0.768013    26A     -0.729056    27A     -0.691488
      28A     -0.677510    29A     -0.657328    30A     -0.648622
      31A     -0.626142    32A     -0.617832    33A     -0.604755
      34A     -0.586506    35A     -0.566988    36A     -0.558799
      37A     -0.543779    38A     -0.538005    39A     -0.527728
      40A     -0.514834    41A     -0.457658    42A     -0.444499
      43A     -0.418125    44A     -0.405481    45A     -0.354902
      46A     -0.332092

  @DF-RHF Final Energy:  -568.46546987382214

   => Energetics <=

    Nuclear Repulsion Energy =            760.6293497864262463
    One-Electron Energy =               -2281.3283474719351034
    Two-Electron Energy =                 952.2335278116867130
    Total Energy =                       -568.4654698738221441
  Basis Set: (AUG-CC-PVTZ AUX)
    Blend: AUG-CC-PVTZ-RI
    Molecular point group: c1

    Geometry (in Angstrom), charge = 0, multiplicity = 1:

       Center              X                  Y                   Z               Mass
    ------------   -----------------  -----------------  -----------------  -----------------
         O            3.111116484755    -1.421486486826    -0.213672839976    15.994914619570
         N            0.869659484755    -1.223412486826    -0.588717839976    14.003074004430
         N            1.517897484755     1.492883513174     0.335808160024    14.003074004430
         C           -0.732746515245     0.534535513174     0.034374160024    12.000000000000
         C           -0.427744515245    -0.818253486826    -0.235682839976    12.000000000000
         C            0.297866484755     1.592459513174    -0.083218839976    12.000000000000
         C            1.883480484755     0.265905513174     1.040451160024    12.000000000000
         C           -2.064924515245     0.869591513174     0.337834160024    12.000000000000
         C           -1.449238515245    -1.781488486826    -0.230450839976    12.000000000000
         C            2.050546484755    -0.864476486826     0.045258160024    12.000000000000
         C           -0.095088515245     2.875315513174    -0.768369839976    12.000000000000
         C           -3.068589515245    -0.092376486826     0.362977160024    12.000000000000
         C           -2.759714515245    -1.423278486826     0.062290160024    12.000000000000
         H            0.960830484755    -2.062069486826    -1.156985839976     1.007825032230
         H            1.155574484755    -0.016522686826     1.816749960024     1.007825032230
         H            2.845514484755     0.411702513174     1.532900160024     1.007825032230
         H           -2.312041515245     1.904828513174     0.558041160024     1.007825032230
         H           -1.197543515245    -2.818782486826    -0.444034839976     1.007825032230
         H           -0.831188515245     3.431693513174    -0.178417839976     1.007825032230
         H           -0.540383515245     2.675743513174    -1.747875839976     1.007825032230
         H            0.796580484755     3.493347513174    -0.884855839976     1.007825032230
         H           -4.088420515245     0.191501513174     0.608900160024     1.007825032230
         H           -3.537456515245    -2.182868486826     0.067871160024     1.007825032230

  Basis Set: AUG-CC-PVTZ
    Blend: AUG-CC-PVTZ
  Basis Set: (AUG-CC-PVTZ AUX)
    Blend: AUG-CC-PVTZ-JKFIT
	 Reference Energy          =    -568.4654698738221441 [Eh]
	 Singles Energy            =      -0.0000000000000000 [Eh]
	 Same-Spin Energy          =      -0.6143900652891077 [Eh]
	 Opposite-Spin Energy      =      -1.8871002975549578 [Eh]
	 Correlation Energy        =      -2.5014903628440655 [Eh]
	 Total Energy              =    -570.9669602366661820 [Eh]

	 ================> DF-SCS-MP2 Energies <==================
	-----------------------------------------------------------
	 SCS Same-Spin Scale       =       0.3333333333333333 [-]
	 SCS Opposite-Spin Scale   =       1.2000000000000000 [-]
	 SCS Same-Spin Energy      =      -0.2047966884297026 [Eh]
	 SCS Opposite-Spin Energy  =      -2.2645203570659493 [Eh]
	 SCS Correlation Energy    =      -2.4693170454956519 [Eh]
	 SCS Total Energy          =    -570.9347869193178440 [Eh]
	-----------------------------------------------------------

  Dipole Moment: [D]
     X:    -5.1054      Y:    -0.2368      Z:     0.2401     Total:     5.1166

*** Psi4 exiting successfully. Buy a developer a beer!
