                               Psi4 1.4a3.dev225

  ==> Input File <==

--------------------------------------------------------------------------
#psi4
#
memory 32 gb

molecule  {
0 1
  O        3.1477550    -1.4485350    -0.2143050
  N        0.9062980    -1.2504610    -0.5893500
  N        1.5545360     1.4658350     0.3351760
  C       -0.6961080     0.5074870     0.0337420
  C       -0.3911060    -0.8453020    -0.2363150
  C        0.3345050     1.5654110    -0.0838510
  C        1.9076109     0.2808370     1.0157103
  C       -2.0282860     0.8425430     0.3372020
  C       -1.4126000    -1.8085370    -0.2310830
  C        2.0871850    -0.8915250     0.0446260
  C       -0.0584500     2.8482670    -0.7690020
  C       -3.0319510    -0.1194250     0.3623450
  C       -2.7230760    -1.4503270     0.0616580
  H        0.9974690    -2.0891180    -1.1576180
  H        1.1650960    -0.0456930     1.7889680
  H        2.8821530     0.3846540     1.5322680
  H       -2.2754030     1.8777800     0.5574090
  H       -1.1609050    -2.8458310    -0.4446670
  H       -0.7945500     3.4046450    -0.1790500
  H       -0.5037450     2.6486950    -1.7485080
  H        0.8332190     3.4662990    -0.8854880
  H       -4.0517820     0.1644530     0.6082680
  H       -3.5008180    -2.2099170     0.0672390
units angstrom
no_reorient  #important for SAPT in psi4, default
symmetry c1  #important for SAPT in psi4, default
}

set PROPERTIES_ORIGIN ["COM"]
properties('MP2/aug-cc-pvtz', properties = ['dipole'])
--------------------------------------------------------------------------

    Molecular point group: c1
  Charge       = 0
  Multiplicity = 1
  Basis Set: AUG-CC-PVTZ
    Blend: AUG-CC-PVTZ
  Basis Set: (AUG-CC-PVTZ AUX)
    Blend: AUG-CC-PVTZ-JKFIT

    Orbital Energies [Eh]
    ---------------------

    Doubly Occupied:

       1A    -20.532727     2A    -15.606928     3A    -15.565068
       4A    -11.362664     5A    -11.314806     6A    -11.303963
       7A    -11.268153     8A    -11.267280     9A    -11.266069
      10A    -11.265832    11A    -11.258428    12A    -11.254013
      13A    -11.234639    14A     -1.387103    15A     -1.278654
      16A     -1.240223    17A     -1.165170    18A     -1.067930
      19A     -1.035044    20A     -1.011610    21A     -0.947762
      22A     -0.886990    23A     -0.858309    24A     -0.795269
      25A     -0.771016    26A     -0.728848    27A     -0.695335
      28A     -0.675603    29A     -0.657625    30A     -0.649847
      31A     -0.626505    32A     -0.618850    33A     -0.605190
      34A     -0.586573    35A     -0.565487    36A     -0.559072
      37A     -0.545376    38A     -0.537068    39A     -0.527586
      40A     -0.513606    41A     -0.460014    42A     -0.444819
      43A     -0.416489    44A     -0.403292    45A     -0.354801
      46A     -0.332660

  @DF-RHF Final Energy:  -568.46316650178301

   => Energetics <=

    Nuclear Repulsion Energy =            761.2679274393727837
    One-Electron Energy =               -2282.5615868280133327
    Two-Electron Energy =                 952.8304928868576553
    Total Energy =                       -568.4631665017830073
  Basis Set: (AUG-CC-PVTZ AUX)
    Blend: AUG-CC-PVTZ-RI
    Molecular point group: c1

    Geometry (in Angstrom), charge = 0, multiplicity = 1:

       Center              X                  Y                   Z               Mass
    ------------   -----------------  -----------------  -----------------  -----------------
         O            3.112135712074    -1.424368056085    -0.211853745893    15.994914619570
         N            0.870678712074    -1.226294056085    -0.586898745893    14.003074004430
         N            1.518916712074     1.490001943915     0.337627254107    14.003074004430
         C           -0.731727287926     0.531653943915     0.036193254107    12.000000000000
         C           -0.426725287926    -0.821135056085    -0.233863745893    12.000000000000
         C            0.298885712074     1.589577943915    -0.081399745893    12.000000000000
         C            1.871991612074     0.305003943915     1.018161554107    12.000000000000
         C           -2.063905287926     0.866709943915     0.339653254107    12.000000000000
         C           -1.448219287926    -1.784370056085    -0.228631745893    12.000000000000
         C            2.051565712074    -0.867358056085     0.047077254107    12.000000000000
         C           -0.094069287926     2.872433943915    -0.766550745893    12.000000000000
         C           -3.067570287926    -0.095258056085     0.364796254107    12.000000000000
         C           -2.758695287926    -1.426160056085     0.064109254107    12.000000000000
         H            0.961849712074    -2.064951056085    -1.155166745893     1.007825032230
         H            1.129476712074    -0.021526056085     1.791419254107     1.007825032230
         H            2.846533712074     0.408820943915     1.534719254107     1.007825032230
         H           -2.311022287926     1.901946943915     0.559860254107     1.007825032230
         H           -1.196524287926    -2.821664056085    -0.442215745893     1.007825032230
         H           -0.830169287926     3.428811943915    -0.176598745893     1.007825032230
         H           -0.539364287926     2.672861943915    -1.746056745893     1.007825032230
         H            0.797599712074     3.490465943915    -0.883036745893     1.007825032230
         H           -4.087401287926     0.188619943915     0.610719254107     1.007825032230
         H           -3.536437287926    -2.185750056085     0.069690254107     1.007825032230

  Basis Set: AUG-CC-PVTZ
    Blend: AUG-CC-PVTZ
  Basis Set: (AUG-CC-PVTZ AUX)
    Blend: AUG-CC-PVTZ-JKFIT
	 Reference Energy          =    -568.4631665017830073 [Eh]
	 Singles Energy            =      -0.0000000000000000 [Eh]
	 Same-Spin Energy          =      -0.6148426756153373 [Eh]
	 Opposite-Spin Energy      =      -1.8871529505547064 [Eh]
	 Correlation Energy        =      -2.5019956261700438 [Eh]
	 Total Energy              =    -570.9651621279530218 [Eh]

	 ================> DF-SCS-MP2 Energies <==================
	-----------------------------------------------------------
	 SCS Same-Spin Scale       =       0.3333333333333333 [-]
	 SCS Opposite-Spin Scale   =       1.2000000000000000 [-]
	 SCS Same-Spin Energy      =      -0.2049475585384458 [Eh]
	 SCS Opposite-Spin Energy  =      -2.2645835406656478 [Eh]
	 SCS Correlation Energy    =      -2.4695310992040937 [Eh]
	 SCS Total Energy          =    -570.9326976009871260 [Eh]
	-----------------------------------------------------------

  Dipole Moment: [D]
     X:    -5.1297      Y:    -0.2360      Z:     0.1659     Total:     5.1378

*** Psi4 exiting successfully. Buy a developer a beer!
