                               Psi4 1.3.2 release

  ==> Input File <==

--------------------------------------------------------------------------
#psi4
#
memory 32 gb

molecule  {
0 1
  O        3.1477550    -1.4485350    -0.2143050
  N        0.9062980    -1.2504610    -0.5893500
  N        1.5545360     1.4658350     0.3351760
  C       -0.6961080     0.5074870     0.0337420
  C       -0.3911060    -0.8453020    -0.2363150
  C        0.3345050     1.5654110    -0.0838510
  C        1.9201190     0.2388570     1.0398190
  C       -2.0282860     0.8425430     0.3372020
  C       -1.4126000    -1.8085370    -0.2310830
  C        2.1474894    -1.0074971    -0.0186775
  C       -0.0584500     2.8482670    -0.7690020
  C       -3.0319510    -0.1194250     0.3623450
  C       -2.7230760    -1.4503270     0.0616580
  H        0.9974690    -2.0891180    -1.1576180
  H        1.1650960    -0.0456930     1.7889680
  H        2.8821530     0.3846540     1.5322680
  H       -2.2754030     1.8777800     0.5574090
  H       -1.1609050    -2.8458310    -0.4446670
  H       -0.7945500     3.4046450    -0.1790500
  H       -0.5037450     2.6486950    -1.7485080
  H        0.8332190     3.4662990    -0.8854880
  H       -4.0517820     0.1644530     0.6082680
  H       -3.5008180    -2.2099170     0.0672390
units angstrom
no_reorient  #important for SAPT in psi4, default
symmetry c1  #important for SAPT in psi4, default
}

set PROPERTIES_ORIGIN ["COM"]
properties('MP2/aug-cc-pvtz', properties = ['dipole'])
--------------------------------------------------------------------------

    Molecular point group: c1
  Charge       = 0
  Multiplicity = 1
  Basis Set: AUG-CC-PVTZ
    Blend: AUG-CC-PVTZ
  Basis Set: (AUG-CC-PVTZ AUX)
    Blend: AUG-CC-PVTZ-JKFIT

    Orbital Energies [Eh]
    ---------------------

    Doubly Occupied:

       1A    -20.550158     2A    -15.601162     3A    -15.560390
       4A    -11.356499     5A    -11.313332     6A    -11.293668
       7A    -11.262918     8A    -11.262094     9A    -11.261768
      10A    -11.256134    11A    -11.256039    12A    -11.251096
      13A    -11.229201    14A     -1.471730    15A     -1.277922
      16A     -1.225389    17A     -1.161820    18A     -1.057520
      19A     -1.031452    20A     -1.002930    21A     -0.927259
      22A     -0.882016    23A     -0.858147    24A     -0.787700
      25A     -0.760987    26A     -0.725930    27A     -0.696904
      28A     -0.684123    29A     -0.657144    30A     -0.647233
      31A     -0.632702    32A     -0.621488    33A     -0.603753
      34A     -0.596906    35A     -0.581900    36A     -0.554686
      37A     -0.540635    38A     -0.537533    39A     -0.530182
      40A     -0.510204    41A     -0.463454    42A     -0.456769
      43A     -0.409608    44A     -0.385197    45A     -0.346219
      46A     -0.331425

  @DF-RHF Final Energy:  -568.44151092857555

   => Energetics <=

    Nuclear Repulsion Energy =            760.2460000402589912
    One-Electron Energy =               -2280.5483633234152876
    Two-Electron Energy =                 951.8608523545808566
    Total Energy =                       -568.4415109285755534
  Basis Set: (AUG-CC-PVTZ AUX)
    Blend: AUG-CC-PVTZ-RI
    Molecular point group: c1

    Geometry (in Angstrom), charge = 0, multiplicity = 1:

       Center              X                  Y                   Z               Mass
    ------------   -----------------  -----------------  -----------------  -----------------
         O            3.107116448239    -1.413479770925    -0.209151887803    15.994914619570
         N            0.865659448239    -1.215405770925    -0.584196887803    14.003074004430
         N            1.513897448239     1.500890229075     0.340329112197    14.003074004430
         C           -0.736746551761     0.542542229075     0.038895112197    12.000000000000
         C           -0.431744551761    -0.810246770925    -0.231161887803    12.000000000000
         C            0.293866448239     1.600466229075    -0.078697887803    12.000000000000
         C            1.879480448239     0.273912229075     1.044972112197    12.000000000000
         C           -2.068924551761     0.877598229075     0.342355112197    12.000000000000
         C           -1.453238551761    -1.773481770925    -0.225929887803    12.000000000000
         C            2.106850848239    -0.972441870925    -0.013524387803    12.000000000000
         C           -0.099088551761     2.883322229075    -0.763848887803    12.000000000000
         C           -3.072589551761    -0.084369770925     0.367498112197    12.000000000000
         C           -2.763714551761    -1.415271770925     0.066811112197    12.000000000000
         H            0.956830448239    -2.054062770925    -1.152464887803     1.007825032230
         H            1.124457448239    -0.010637770925     1.794121112197     1.007825032230
         H            2.841514448239     0.419709229075     1.537421112197     1.007825032230
         H           -2.316041551761     1.912835229075     0.562562112197     1.007825032230
         H           -1.201543551761    -2.810775770925    -0.439513887803     1.007825032230
         H           -0.835188551761     3.439700229075    -0.173896887803     1.007825032230
         H           -0.544383551761     2.683750229075    -1.743354887803     1.007825032230
         H            0.792580448239     3.501354229075    -0.880334887803     1.007825032230
         H           -4.092420551761     0.199508229075     0.613421112197     1.007825032230
         H           -3.541456551761    -2.174861770925     0.072392112197     1.007825032230

  Basis Set: AUG-CC-PVTZ
    Blend: AUG-CC-PVTZ
  Basis Set: (AUG-CC-PVTZ AUX)
    Blend: AUG-CC-PVTZ-JKFIT
	 Reference Energy          =    -568.4415109285755534 [Eh]
	 Singles Energy            =      -0.0000000000000000 [Eh]
	 Same-Spin Energy          =      -0.6127005343636780 [Eh]
	 Opposite-Spin Energy      =      -1.8833010559987275 [Eh]
	 Correlation Energy        =      -2.4960015903624058 [Eh]
	 Total Energy              =    -570.9375125189379787 [Eh]

	 ================> DF-SCS-MP2 Energies <==================
	-----------------------------------------------------------
	 SCS Same-Spin Scale       =       0.3333333333333333 [-]
	 SCS Opposite-Spin Scale   =       1.2000000000000000 [-]
	 SCS Same-Spin Energy      =      -0.2042335114545593 [Eh]
	 SCS Opposite-Spin Energy  =      -2.2599612671984728 [Eh]
	 SCS Correlation Energy    =      -2.4641947786530323 [Eh]
	 SCS Total Energy          =    -570.9057057072285488 [Eh]
	-----------------------------------------------------------

  Dipole Moment: [D]
     X:    -4.3622      Y:    -0.8935      Z:    -0.0459     Total:     4.4530

*** Psi4 exiting successfully. Buy a developer a beer!
