                               Psi4 1.3.2 release

  ==> Input File <==

--------------------------------------------------------------------------
#psi4
#
memory 32 gb

molecule  {
0 1
  O        3.1477550    -1.4485350    -0.2143050
  N        0.9062980    -1.2504610    -0.5893500
  N        1.5760151     1.4641314     0.3215274
  C       -0.6961080     0.5074870     0.0337420
  C       -0.3911060    -0.8453020    -0.2363150
  C        0.3345050     1.5654110    -0.0838510
  C        1.9201190     0.2388570     1.0398190
  C       -2.0282860     0.8425430     0.3372020
  C       -1.4126000    -1.8085370    -0.2310830
  C        2.0871850    -0.8915250     0.0446260
  C       -0.0584500     2.8482670    -0.7690020
  C       -3.0319510    -0.1194250     0.3623450
  C       -2.7230760    -1.4503270     0.0616580
  H        0.9974690    -2.0891180    -1.1576180
  H        1.1650960    -0.0456930     1.7889680
  H        2.8821530     0.3846540     1.5322680
  H       -2.2754030     1.8777800     0.5574090
  H       -1.1609050    -2.8458310    -0.4446670
  H       -0.7945500     3.4046450    -0.1790500
  H       -0.5037450     2.6486950    -1.7485080
  H        0.8332190     3.4662990    -0.8854880
  H       -4.0517820     0.1644530     0.6082680
  H       -3.5008180    -2.2099170     0.0672390
units angstrom
no_reorient  #important for SAPT in psi4, default
symmetry c1  #important for SAPT in psi4, default
}

set PROPERTIES_ORIGIN ["COM"]
properties('MP2/aug-cc-pvtz', properties = ['dipole'])
--------------------------------------------------------------------------

    Molecular point group: c1
  Charge       = 0
  Multiplicity = 1
  Basis Set: AUG-CC-PVTZ
    Blend: AUG-CC-PVTZ
  Basis Set: (AUG-CC-PVTZ AUX)
    Blend: AUG-CC-PVTZ-JKFIT

    Orbital Energies [Eh]
    ---------------------

    Doubly Occupied:

       1A    -20.531637     2A    -15.607038     3A    -15.569269
       4A    -11.361963     5A    -11.315060     6A    -11.305206
       7A    -11.267620     8A    -11.266472     9A    -11.266098
      10A    -11.266063    11A    -11.258620    12A    -11.254158
      13A    -11.234829    14A     -1.386989    15A     -1.275061
      16A     -1.228839    17A     -1.165022    18A     -1.066271
      19A     -1.035356    20A     -1.011020    21A     -0.949898
      22A     -0.886189    23A     -0.858439    24A     -0.795016
      25A     -0.768459    26A     -0.729311    27A     -0.690050
      28A     -0.678094    29A     -0.657497    30A     -0.648394
      31A     -0.626489    32A     -0.617065    33A     -0.604145
      34A     -0.586482    35A     -0.567148    36A     -0.559297
      37A     -0.543376    38A     -0.538224    39A     -0.527331
      40A     -0.514901    41A     -0.455989    42A     -0.444491
      43A     -0.420111    44A     -0.403850    45A     -0.354543
      46A     -0.332580

  @DF-RHF Final Energy:  -568.46335158779812

   => Energetics <=

    Nuclear Repulsion Energy =            760.3748274358237040
    One-Electron Energy =               -2280.8164347925639959
    Two-Electron Energy =                 951.9782557689422902
    Total Energy =                       -568.4633515877981154
  Basis Set: (AUG-CC-PVTZ AUX)
    Blend: AUG-CC-PVTZ-RI
    Molecular point group: c1

    Geometry (in Angstrom), charge = 0, multiplicity = 1:

       Center              X                  Y                   Z               Mass
    ------------   -----------------  -----------------  -----------------  -----------------
         O            3.109545682167    -1.421337163856    -0.212417753428    15.994914619570
         N            0.868088682167    -1.223263163856    -0.587462753428    14.003074004430
         N            1.537805782167     1.491329236144     0.323414646572    14.003074004430
         C           -0.734317317833     0.534684836144     0.035629246572    12.000000000000
         C           -0.429315317833    -0.818104163856    -0.234427753428    12.000000000000
         C            0.296295682167     1.592608836144    -0.081963753428    12.000000000000
         C            1.881909682167     0.266054836144     1.041706246572    12.000000000000
         C           -2.066495317833     0.869740836144     0.339089246572    12.000000000000
         C           -1.450809317833    -1.781339163856    -0.229195753428    12.000000000000
         C            2.048975682167    -0.864327163856     0.046513246572    12.000000000000
         C           -0.096659317833     2.875464836144    -0.767114753428    12.000000000000
         C           -3.070160317833    -0.092227163856     0.364232246572    12.000000000000
         C           -2.761285317833    -1.423129163856     0.063545246572    12.000000000000
         H            0.959259682167    -2.061920163856    -1.155730753428     1.007825032230
         H            1.126886682167    -0.018495163856     1.790855246572     1.007825032230
         H            2.843943682167     0.411851836144     1.534155246572     1.007825032230
         H           -2.313612317833     1.904977836144     0.559296246572     1.007825032230
         H           -1.199114317833    -2.818633163856    -0.442779753428     1.007825032230
         H           -0.832759317833     3.431842836144    -0.177162753428     1.007825032230
         H           -0.541954317833     2.675892836144    -1.746620753428     1.007825032230
         H            0.795009682167     3.493496836144    -0.883600753428     1.007825032230
         H           -4.089991317833     0.191650836144     0.610155246572     1.007825032230
         H           -3.539027317833    -2.182719163856     0.069126246572     1.007825032230

  Basis Set: AUG-CC-PVTZ
    Blend: AUG-CC-PVTZ
  Basis Set: (AUG-CC-PVTZ AUX)
    Blend: AUG-CC-PVTZ-JKFIT
	 Reference Energy          =    -568.4633515877981154 [Eh]
	 Singles Energy            =      -0.0000000000000000 [Eh]
	 Same-Spin Energy          =      -0.6149063405788556 [Eh]
	 Opposite-Spin Energy      =      -1.8881736806688392 [Eh]
	 Correlation Energy        =      -2.5030800212476949 [Eh]
	 Total Energy              =    -570.9664316090457987 [Eh]

	 ================> DF-SCS-MP2 Energies <==================
	-----------------------------------------------------------
	 SCS Same-Spin Scale       =       0.3333333333333333 [-]
	 SCS Opposite-Spin Scale   =       1.2000000000000000 [-]
	 SCS Same-Spin Energy      =      -0.2049687801929519 [Eh]
	 SCS Opposite-Spin Energy  =      -2.2658084168026069 [Eh]
	 SCS Correlation Energy    =      -2.4707771969955590 [Eh]
	 SCS Total Energy          =    -570.9341287847936428 [Eh]
	-----------------------------------------------------------

  Dipole Moment: [D]
     X:    -5.1638      Y:    -0.2451      Z:     0.2443     Total:     5.1754

*** Psi4 exiting successfully. Buy a developer a beer!
