                               Psi4 1.3.2 release

  ==> Input File <==

--------------------------------------------------------------------------
#psi4
#
memory 32 gb

molecule  {
0 1
  O        3.1477550    -1.4485350    -0.2143050
  N        0.9062980    -1.2504610    -0.5893500
  N        1.5545360     1.4658350     0.3351760
  C       -0.6961080     0.5074870     0.0337420
  C       -0.3911060    -0.8453020    -0.2363150
  C        0.2649451     1.4940078    -0.0759142
  C        1.9201190     0.2388570     1.0398190
  C       -2.0282860     0.8425430     0.3372020
  C       -1.4126000    -1.8085370    -0.2310830
  C        2.0871850    -0.8915250     0.0446260
  C       -0.0584500     2.8482670    -0.7690020
  C       -3.0319510    -0.1194250     0.3623450
  C       -2.7230760    -1.4503270     0.0616580
  H        0.9974690    -2.0891180    -1.1576180
  H        1.1650960    -0.0456930     1.7889680
  H        2.8821530     0.3846540     1.5322680
  H       -2.2754030     1.8777800     0.5574090
  H       -1.1609050    -2.8458310    -0.4446670
  H       -0.7945500     3.4046450    -0.1790500
  H       -0.5037450     2.6486950    -1.7485080
  H        0.8332190     3.4662990    -0.8854880
  H       -4.0517820     0.1644530     0.6082680
  H       -3.5008180    -2.2099170     0.0672390
units angstrom
no_reorient  #important for SAPT in psi4, default
symmetry c1  #important for SAPT in psi4, default
}

set PROPERTIES_ORIGIN ["COM"]
properties('MP2/aug-cc-pvtz', properties = ['dipole'])
--------------------------------------------------------------------------

    Molecular point group: c1
  Charge       = 0
  Multiplicity = 1
  Basis Set: AUG-CC-PVTZ
    Blend: AUG-CC-PVTZ
  Basis Set: (AUG-CC-PVTZ AUX)
    Blend: AUG-CC-PVTZ-JKFIT

    Orbital Energies [Eh]
    ---------------------

    Doubly Occupied:

       1A    -20.531291     2A    -15.609020     3A    -15.570279
       4A    -11.361385     5A    -11.319778     6A    -11.303282
       7A    -11.271381     8A    -11.270494     9A    -11.262455
      10A    -11.261904    11A    -11.261185    12A    -11.256795
      13A    -11.235468    14A     -1.386833    15A     -1.276913
      16A     -1.218509    17A     -1.169422    18A     -1.075950
      19A     -1.037324    20A     -1.003835    21A     -0.939832
      22A     -0.900132    23A     -0.862123    24A     -0.800033
      25A     -0.772641    26A     -0.733035    27A     -0.688445
      28A     -0.676913    29A     -0.661123    30A     -0.649751
      31A     -0.628444    32A     -0.612318    33A     -0.602068
      34A     -0.582292    35A     -0.568295    36A     -0.559742
      37A     -0.547856    38A     -0.537005    39A     -0.529310
      40A     -0.504647    41A     -0.453690    42A     -0.445657
      43A     -0.421915    44A     -0.404033    45A     -0.350123
      46A     -0.334365

  @DF-RHF Final Energy:  -568.44598597986601

   => Energetics <=

    Nuclear Repulsion Energy =            761.5752357377573389
    One-Electron Energy =               -2283.1438580369945157
    Two-Electron Energy =                 953.1226363193711677
    Total Energy =                       -568.4459859798660091
  Basis Set: (AUG-CC-PVTZ AUX)
    Blend: AUG-CC-PVTZ-RI
    Molecular point group: c1

    Geometry (in Angstrom), charge = 0, multiplicity = 1:

       Center              X                  Y                   Z               Mass
    ------------   -----------------  -----------------  -----------------  -----------------
         O            3.116068526309    -1.416552087738    -0.214062773454    15.994914619570
         N            0.874611526309    -1.218478087738    -0.589107773454    14.003074004430
         N            1.522849526309     1.497817912262     0.335418226546    14.003074004430
         C           -0.727794473691     0.539469912262     0.033984226546    12.000000000000
         C           -0.422792473691    -0.813319087738    -0.236072773454    12.000000000000
         C            0.233258626309     1.525990712262    -0.075671973454    12.000000000000
         C            1.888432526309     0.270839912262     1.040061226546    12.000000000000
         C           -2.059972473691     0.874525912262     0.337444226546    12.000000000000
         C           -1.444286473691    -1.776554087738    -0.230840773454    12.000000000000
         C            2.055498526309    -0.859542087738     0.044868226546    12.000000000000
         C           -0.090136473691     2.880249912262    -0.768759773454    12.000000000000
         C           -3.063637473691    -0.087442087738     0.362587226546    12.000000000000
         C           -2.754762473691    -1.418344087738     0.061900226546    12.000000000000
         H            0.965782526309    -2.057135087738    -1.157375773454     1.007825032230
         H            1.133409526309    -0.013710087738     1.789210226546     1.007825032230
         H            2.850466526309     0.416636912262     1.532510226546     1.007825032230
         H           -2.307089473691     1.909762912262     0.557651226546     1.007825032230
         H           -1.192591473691    -2.813848087738    -0.444424773454     1.007825032230
         H           -0.826236473691     3.436627912262    -0.178807773454     1.007825032230
         H           -0.535431473691     2.680677912262    -1.748265773454     1.007825032230
         H            0.801532526309     3.498281912262    -0.885245773454     1.007825032230
         H           -4.083468473691     0.196435912262     0.608510226546     1.007825032230
         H           -3.532504473691    -2.177934087738     0.067481226546     1.007825032230

  Basis Set: AUG-CC-PVTZ
    Blend: AUG-CC-PVTZ
  Basis Set: (AUG-CC-PVTZ AUX)
    Blend: AUG-CC-PVTZ-JKFIT
	 Reference Energy          =    -568.4459859798660091 [Eh]
	 Singles Energy            =      -0.0000000000000000 [Eh]
	 Same-Spin Energy          =      -0.6173179459376379 [Eh]
	 Opposite-Spin Energy      =      -1.8921950923065607 [Eh]
	 Correlation Energy        =      -2.5095130382441986 [Eh]
	 Total Energy              =    -570.9554990181102312 [Eh]

	 ================> DF-SCS-MP2 Energies <==================
	-----------------------------------------------------------
	 SCS Same-Spin Scale       =       0.3333333333333333 [-]
	 SCS Opposite-Spin Scale   =       1.2000000000000000 [-]
	 SCS Same-Spin Energy      =      -0.2057726486458793 [Eh]
	 SCS Opposite-Spin Energy  =      -2.2706341107678729 [Eh]
	 SCS Correlation Energy    =      -2.4764067594137522 [Eh]
	 SCS Total Energy          =    -570.9223927392797577 [Eh]
	-----------------------------------------------------------

  Dipole Moment: [D]
     X:    -5.2701      Y:    -0.5026      Z:     0.2596     Total:     5.3003

*** Psi4 exiting successfully. Buy a developer a beer!
