                               Psi4 1.3.2 release

  ==> Input File <==

--------------------------------------------------------------------------
#psi4
#
memory 32 gb

molecule  {
0 1
  O        3.1477550    -1.4485350    -0.2143050
  N        0.9062980    -1.2504610    -0.5893500
  N        1.5119183     1.4681205     0.3631128
  C       -0.6961080     0.5074870     0.0337420
  C       -0.3911060    -0.8453020    -0.2363150
  C        0.3345050     1.5654110    -0.0838510
  C        1.9201190     0.2388570     1.0398190
  C       -2.0282860     0.8425430     0.3372020
  C       -1.4126000    -1.8085370    -0.2310830
  C        2.0871850    -0.8915250     0.0446260
  C       -0.0584500     2.8482670    -0.7690020
  C       -3.0319510    -0.1194250     0.3623450
  C       -2.7230760    -1.4503270     0.0616580
  H        0.9974690    -2.0891180    -1.1576180
  H        1.1650960    -0.0456930     1.7889680
  H        2.8821530     0.3846540     1.5322680
  H       -2.2754030     1.8777800     0.5574090
  H       -1.1609050    -2.8458310    -0.4446670
  H       -0.7945500     3.4046450    -0.1790500
  H       -0.5037450     2.6486950    -1.7485080
  H        0.8332190     3.4662990    -0.8854880
  H       -4.0517820     0.1644530     0.6082680
  H       -3.5008180    -2.2099170     0.0672390
units angstrom
no_reorient  #important for SAPT in psi4, default
symmetry c1  #important for SAPT in psi4, default
}

set PROPERTIES_ORIGIN ["COM"]
properties('MP2/aug-cc-pvtz', properties = ['dipole'])
--------------------------------------------------------------------------

    Molecular point group: c1
  Charge       = 0
  Multiplicity = 1
  Basis Set: AUG-CC-PVTZ
    Blend: AUG-CC-PVTZ
  Basis Set: (AUG-CC-PVTZ AUX)
    Blend: AUG-CC-PVTZ-JKFIT

    Orbital Energies [Eh]
    ---------------------

    Doubly Occupied:

       1A    -20.533464     2A    -15.607083     3A    -15.562617
       4A    -11.363857     5A    -11.313114     6A    -11.296969
       7A    -11.268978     8A    -11.265312     9A    -11.264241
      10A    -11.263931    11A    -11.257554    12A    -11.252983
      13A    -11.233029    14A     -1.388494    15A     -1.278632
      16A     -1.240412    17A     -1.163606    18A     -1.064181
      19A     -1.035022    20A     -1.011615    21A     -0.954997
      22A     -0.884770    23A     -0.857348    24A     -0.796296
      25A     -0.767400    26A     -0.727985    27A     -0.694496
      28A     -0.677030    29A     -0.657444    30A     -0.648080
      31A     -0.625690    32A     -0.620848    33A     -0.605753
      34A     -0.586591    35A     -0.566391    36A     -0.557931
      37A     -0.544917    38A     -0.540107    39A     -0.528577
      40A     -0.516165    41A     -0.461121    42A     -0.444704
      43A     -0.415351    44A     -0.405493    45A     -0.355366
      46A     -0.331484

  @DF-RHF Final Energy:  -568.46745534273180

   => Energetics <=

    Nuclear Repulsion Energy =            761.4691376712888768
    One-Electron Energy =               -2282.9983301956835930
    Two-Electron Energy =                 953.0617371816628065
    Total Energy =                       -568.4674553427317960
  Basis Set: (AUG-CC-PVTZ AUX)
    Blend: AUG-CC-PVTZ-RI
    Molecular point group: c1

    Geometry (in Angstrom), charge = 0, multiplicity = 1:

       Center              X                  Y                   Z               Mass
    ------------   -----------------  -----------------  -----------------  -----------------
         O            3.114701678124    -1.421658050133    -0.215762915032    15.994914619570
         N            0.873244678124    -1.223584050133    -0.590807915032    14.003074004430
         N            1.478864978124     1.494997449867     0.361654884968    14.003074004430
         C           -0.729161321876     0.534363949867     0.032284084968    12.000000000000
         C           -0.424159321876    -0.818425050133    -0.237772915032    12.000000000000
         C            0.301451678124     1.592287949867    -0.085308915032    12.000000000000
         C            1.887065678124     0.265733949867     1.038361084968    12.000000000000
         C           -2.061339321876     0.869419949867     0.335744084968    12.000000000000
         C           -1.445653321876    -1.781660050133    -0.232540915032    12.000000000000
         C            2.054131678124    -0.864648050133     0.043168084968    12.000000000000
         C           -0.091503321876     2.875143949867    -0.770459915032    12.000000000000
         C           -3.065004321876    -0.092548050133     0.360887084968    12.000000000000
         C           -2.756129321876    -1.423450050133     0.060200084968    12.000000000000
         H            0.964415678124    -2.062241050133    -1.159075915032     1.007825032230
         H            1.132042678124    -0.018816050133     1.787510084968     1.007825032230
         H            2.849099678124     0.411530949867     1.530810084968     1.007825032230
         H           -2.308456321876     1.904656949867     0.555951084968     1.007825032230
         H           -1.193958321876    -2.818954050133    -0.446124915032     1.007825032230
         H           -0.827603321876     3.431521949867    -0.180507915032     1.007825032230
         H           -0.536798321876     2.675571949867    -1.749965915032     1.007825032230
         H            0.800165678124     3.493175949867    -0.886945915032     1.007825032230
         H           -4.084835321876     0.191329949867     0.606810084968     1.007825032230
         H           -3.533871321876    -2.183040050133     0.065781084968     1.007825032230

  Basis Set: AUG-CC-PVTZ
    Blend: AUG-CC-PVTZ
  Basis Set: (AUG-CC-PVTZ AUX)
    Blend: AUG-CC-PVTZ-JKFIT
	 Reference Energy          =    -568.4674553427317960 [Eh]
	 Singles Energy            =      -0.0000000000000000 [Eh]
	 Same-Spin Energy          =      -0.6137197057921290 [Eh]
	 Opposite-Spin Energy      =      -1.8854575405941758 [Eh]
	 Correlation Energy        =      -2.4991772463863047 [Eh]
	 Total Energy              =    -570.9666325891181486 [Eh]

	 ================> DF-SCS-MP2 Energies <==================
	-----------------------------------------------------------
	 SCS Same-Spin Scale       =       0.3333333333333333 [-]
	 SCS Opposite-Spin Scale   =       1.2000000000000000 [-]
	 SCS Same-Spin Energy      =      -0.2045732352640430 [Eh]
	 SCS Opposite-Spin Energy  =      -2.2625490487130109 [Eh]
	 SCS Correlation Energy    =      -2.4671222839770537 [Eh]
	 SCS Total Energy          =    -570.9345776267088013 [Eh]
	-----------------------------------------------------------

  Dipole Moment: [D]
     X:    -5.0053      Y:    -0.2338      Z:     0.1939     Total:     5.0145

*** Psi4 exiting successfully. Buy a developer a beer!
