                               Psi4 1.3.2 release

  ==> Input File <==

--------------------------------------------------------------------------
#psi4
#
memory 32 gb

molecule  {
0 1
  O        3.1477550    -1.4485350    -0.2143050
  N        0.9062980    -1.2504610    -0.5893500
  N        1.5545360     1.4658350     0.3351760
  C       -0.6961080     0.5074870     0.0337420
  C       -0.3911060    -0.8453020    -0.2363150
  C        0.3345050     1.5654110    -0.0838510
  C        1.9201190     0.2388570     1.0398190
  C       -2.0282860     0.8425430     0.3372020
  C       -1.4126000    -1.8085370    -0.2310830
  C        2.1087597    -0.9298074     0.0242639
  C       -0.0584500     2.8482670    -0.7690020
  C       -3.0319510    -0.1194250     0.3623450
  C       -2.7230760    -1.4503270     0.0616580
  H        0.9974690    -2.0891180    -1.1576180
  H        1.1650960    -0.0456930     1.7889680
  H        2.8821530     0.3846540     1.5322680
  H       -2.2754030     1.8777800     0.5574090
  H       -1.1609050    -2.8458310    -0.4446670
  H       -0.7945500     3.4046450    -0.1790500
  H       -0.5037450     2.6486950    -1.7485080
  H        0.8332190     3.4662990    -0.8854880
  H       -4.0517820     0.1644530     0.6082680
  H       -3.5008180    -2.2099170     0.0672390
units angstrom
no_reorient  #important for SAPT in psi4, default
symmetry c1  #important for SAPT in psi4, default
}

set PROPERTIES_ORIGIN ["COM"]
properties('MP2/aug-cc-pvtz', properties = ['dipole'])
--------------------------------------------------------------------------

    Molecular point group: c1
  Charge       = 0
  Multiplicity = 1
  Basis Set: AUG-CC-PVTZ
    Blend: AUG-CC-PVTZ
  Basis Set: (AUG-CC-PVTZ AUX)
    Blend: AUG-CC-PVTZ-JKFIT

    Orbital Energies [Eh]
    ---------------------

    Doubly Occupied:

       1A    -20.537855     2A    -15.604412     3A    -15.564824
       4A    -11.359879     5A    -11.313972     6A    -11.299738
       7A    -11.265504     8A    -11.264521     9A    -11.264350
      10A    -11.264300    11A    -11.257466    12A    -11.252817
      13A    -11.232640    14A     -1.413265    15A     -1.277446
      16A     -1.230442    17A     -1.163636    18A     -1.062568
      19A     -1.033585    20A     -1.008400    21A     -0.943671
      22A     -0.884345    23A     -0.858012    24A     -0.792540
      25A     -0.765717    26A     -0.727652    27A     -0.690398
      28A     -0.678800    29A     -0.656690    30A     -0.647586
      31A     -0.628013    32A     -0.620124    33A     -0.604267
      34A     -0.586230    35A     -0.573489    36A     -0.557423
      37A     -0.542140    38A     -0.537985    39A     -0.531089
      40A     -0.513811    41A     -0.461392    42A     -0.449940
      43A     -0.415073    44A     -0.399904    45A     -0.352710
      46A     -0.331958

  @DF-RHF Final Energy:  -568.46557239266861

   => Energetics <=

    Nuclear Repulsion Energy =            760.5253311859219139
    One-Electron Energy =               -2281.1366499708701667
    Two-Electron Energy =                 952.1457463922796478
    Total Energy =                       -568.4655723926686051
  Basis Set: (AUG-CC-PVTZ AUX)
    Blend: AUG-CC-PVTZ-RI
    Molecular point group: c1

    Geometry (in Angstrom), charge = 0, multiplicity = 1:

       Center              X                  Y                   Z               Mass
    ------------   -----------------  -----------------  -----------------  -----------------
         O            3.109786245081    -1.418835240131    -0.212112014376    15.994914619570
         N            0.868329245081    -1.220761240131    -0.587157014376    14.003074004430
         N            1.516567245081     1.495534759869     0.337368985624    14.003074004430
         C           -0.734076754919     0.537186759869     0.035934985624    12.000000000000
         C           -0.429074754919    -0.815602240131    -0.234122014376    12.000000000000
         C            0.296536245081     1.595110759869    -0.081658014376    12.000000000000
         C            1.882150245081     0.268556759869     1.042011985624    12.000000000000
         C           -2.066254754919     0.872242759869     0.339394985624    12.000000000000
         C           -1.450568754919    -1.778837240131    -0.228890014376    12.000000000000
         C            2.070790945081    -0.900107640131     0.026456885624    12.000000000000
         C           -0.096418754919     2.877966759869    -0.766809014376    12.000000000000
         C           -3.069919754919    -0.089725240131     0.364537985624    12.000000000000
         C           -2.761044754919    -1.420627240131     0.063850985624    12.000000000000
         H            0.959500245081    -2.059418240131    -1.155425014376     1.007825032230
         H            1.127127245081    -0.015993240131     1.791160985624     1.007825032230
         H            2.844184245081     0.414353759869     1.534460985624     1.007825032230
         H           -2.313371754919     1.907479759869     0.559601985624     1.007825032230
         H           -1.198873754919    -2.816131240131    -0.442474014376     1.007825032230
         H           -0.832518754919     3.434344759869    -0.176857014376     1.007825032230
         H           -0.541713754919     2.678394759869    -1.746315014376     1.007825032230
         H            0.795250245081     3.495998759869    -0.883295014376     1.007825032230
         H           -4.089750754919     0.194152759869     0.610460985624     1.007825032230
         H           -3.538786754919    -2.180217240131     0.069431985624     1.007825032230

  Basis Set: AUG-CC-PVTZ
    Blend: AUG-CC-PVTZ
  Basis Set: (AUG-CC-PVTZ AUX)
    Blend: AUG-CC-PVTZ-JKFIT
	 Reference Energy          =    -568.4655723926686051 [Eh]
	 Singles Energy            =      -0.0000000000000000 [Eh]
	 Same-Spin Energy          =      -0.6135798289258260 [Eh]
	 Opposite-Spin Energy      =      -1.8853997702963563 [Eh]
	 Correlation Energy        =      -2.4989795992221824 [Eh]
	 Total Energy              =    -570.9645519918907439 [Eh]

	 ================> DF-SCS-MP2 Energies <==================
	-----------------------------------------------------------
	 SCS Same-Spin Scale       =       0.3333333333333333 [-]
	 SCS Opposite-Spin Scale   =       1.2000000000000000 [-]
	 SCS Same-Spin Energy      =      -0.2045266096419420 [Eh]
	 SCS Opposite-Spin Energy  =      -2.2624797243556274 [Eh]
	 SCS Correlation Energy    =      -2.4670063339975692 [Eh]
	 SCS Total Energy          =    -570.9325787266661791 [Eh]
	-----------------------------------------------------------

  Dipole Moment: [D]
     X:    -4.8732      Y:    -0.4354      Z:     0.1512     Total:     4.8949

*** Psi4 exiting successfully. Buy a developer a beer!
