                               Psi4 1.4a3.dev225

  ==> Input File <==

--------------------------------------------------------------------------
#psi4
#
memory 32 gb

molecule  {
0 1
  O        3.1477550    -1.4485350    -0.2143050
  N        0.9062980    -1.2504610    -0.5893500
  N        1.5545360     1.4658350     0.3351760
  C       -0.6961080     0.5074870     0.0337420
  C       -0.3911060    -0.8453020    -0.2363150
  C        0.3345050     1.5654110    -0.0838510
  C        1.9201190     0.2388570     1.0398190
  C       -2.0282860     0.8425430     0.3372020
  C       -1.4126000    -1.8085370    -0.2310830
  C        2.0439179    -0.8688012     0.0551894
  C       -0.0584500     2.8482670    -0.7690020
  C       -3.0319510    -0.1194250     0.3623450
  C       -2.7230760    -1.4503270     0.0616580
  H        0.9974690    -2.0891180    -1.1576180
  H        1.1650960    -0.0456930     1.7889680
  H        2.8821530     0.3846540     1.5322680
  H       -2.2754030     1.8777800     0.5574090
  H       -1.1609050    -2.8458310    -0.4446670
  H       -0.7945500     3.4046450    -0.1790500
  H       -0.5037450     2.6486950    -1.7485080
  H        0.8332190     3.4662990    -0.8854880
  H       -4.0517820     0.1644530     0.6082680
  H       -3.5008180    -2.2099170     0.0672390
units angstrom
no_reorient  #important for SAPT in psi4, default
symmetry c1  #important for SAPT in psi4, default
}

set PROPERTIES_ORIGIN ["COM"]
properties('MP2/aug-cc-pvtz', properties = ['dipole'])
--------------------------------------------------------------------------

    Molecular point group: c1
  Charge       = 0
  Multiplicity = 1
  Basis Set: AUG-CC-PVTZ
    Blend: AUG-CC-PVTZ
  Basis Set: (AUG-CC-PVTZ AUX)
    Blend: AUG-CC-PVTZ-JKFIT

    Orbital Energies [Eh]
    ---------------------

    Doubly Occupied:

       1A    -20.522080     2A    -15.613699     3A    -15.569262
       4A    -11.363285     5A    -11.316552     6A    -11.304596
       7A    -11.269515     8A    -11.268300     9A    -11.268294
      10A    -11.267716    11A    -11.261015    12A    -11.256353
      13A    -11.235809    14A     -1.362700    15A     -1.273653
      16A     -1.236979    17A     -1.167543    18A     -1.068712
      19A     -1.038879    20A     -1.015025    21A     -0.956752
      22A     -0.889722    23A     -0.860941    24A     -0.801846
      25A     -0.771527    26A     -0.732542    27A     -0.693395
      28A     -0.676574    29A     -0.659934    30A     -0.650577
      31A     -0.627262    32A     -0.621181    33A     -0.596110
      34A     -0.585402    35A     -0.564630    36A     -0.560619
      37A     -0.545263    38A     -0.539981    39A     -0.524617
      40A     -0.517524    41A     -0.450611    42A     -0.436154
      43A     -0.419024    44A     -0.407317    45A     -0.357537
      46A     -0.334792

  @DF-RHF Final Energy:  -568.45773767051992

   => Energetics <=

    Nuclear Repulsion Energy =            761.1756827610879554
    One-Electron Energy =               -2282.3432398200925491
    Two-Electron Energy =                 952.7098193884846751
    Total Energy =                       -568.4577376705199185
  Basis Set: (AUG-CC-PVTZ AUX)
    Blend: AUG-CC-PVTZ-RI
    Molecular point group: c1

    Geometry (in Angstrom), charge = 0, multiplicity = 1:

       Center              X                  Y                   Z               Mass
    ------------   -----------------  -----------------  -----------------  -----------------
         O            3.114256055921    -1.423040647354    -0.214243835749    15.994914619570
         N            0.872799055921    -1.224966647354    -0.589288835749    14.003074004430
         N            1.521037055921     1.491329352646     0.335237164251    14.003074004430
         C           -0.729606944079     0.532981352646     0.033803164251    12.000000000000
         C           -0.424604944079    -0.819807647354    -0.236253835749    12.000000000000
         C            0.301006055921     1.590905352646    -0.083789835749    12.000000000000
         C            1.886620055921     0.264351352646     1.039880164251    12.000000000000
         C           -2.061784944079     0.868037352646     0.337263164251    12.000000000000
         C           -1.446098944079    -1.783042647354    -0.231021835749    12.000000000000
         C            2.010418955921    -0.843306847354     0.055250564251    12.000000000000
         C           -0.091948944079     2.873761352646    -0.768940835749    12.000000000000
         C           -3.065449944079    -0.093930647354     0.362406164251    12.000000000000
         C           -2.756574944079    -1.424832647354     0.061719164251    12.000000000000
         H            0.963970055921    -2.063623647354    -1.157556835749     1.007825032230
         H            1.131597055921    -0.020198647354     1.789029164251     1.007825032230
         H            2.848654055921     0.410148352646     1.532329164251     1.007825032230
         H           -2.308901944079     1.903274352646     0.557470164251     1.007825032230
         H           -1.194403944079    -2.820336647354    -0.444605835749     1.007825032230
         H           -0.828048944079     3.430139352646    -0.178988835749     1.007825032230
         H           -0.537243944079     2.674189352646    -1.748446835749     1.007825032230
         H            0.799720055921     3.491793352646    -0.885426835749     1.007825032230
         H           -4.085280944079     0.189947352646     0.608329164251     1.007825032230
         H           -3.534316944079    -2.184422647354     0.067300164251     1.007825032230

  Basis Set: AUG-CC-PVTZ
    Blend: AUG-CC-PVTZ
  Basis Set: (AUG-CC-PVTZ AUX)
    Blend: AUG-CC-PVTZ-JKFIT
	 Reference Energy          =    -568.4577376705199185 [Eh]
	 Singles Energy            =      -0.0000000000000000 [Eh]
	 Same-Spin Energy          =      -0.6156168992830751 [Eh]
	 Opposite-Spin Energy      =      -1.8894236436993515 [Eh]
	 Correlation Energy        =      -2.5050405429824263 [Eh]
	 Total Energy              =    -570.9627782135023608 [Eh]

	 ================> DF-SCS-MP2 Energies <==================
	-----------------------------------------------------------
	 SCS Same-Spin Scale       =       0.3333333333333333 [-]
	 SCS Opposite-Spin Scale   =       1.2000000000000000 [-]
	 SCS Same-Spin Energy      =      -0.2052056330943584 [Eh]
	 SCS Opposite-Spin Energy  =      -2.2673083724392216 [Eh]
	 SCS Correlation Energy    =      -2.4725140055335797 [Eh]
	 SCS Total Energy          =    -570.9302516760534445 [Eh]
	-----------------------------------------------------------

  Dipole Moment: [D]
     X:    -5.5653      Y:    -0.0789      Z:     0.2458     Total:     5.5713

*** Psi4 exiting successfully. Buy a developer a beer!
