                               Psi4 1.4a3.dev225

  ==> Input File <==

--------------------------------------------------------------------------
#psi4
#
memory 32 gb

molecule  {
0 1
  O        3.1477550    -1.4485350    -0.2143050
  N        0.9062980    -1.2504610    -0.5893500
  N        1.5545360     1.4658350     0.3351760
  C       -0.6961080     0.5074870     0.0337420
  C       -0.3954237    -0.8261515    -0.2324920
  C        0.3345050     1.5654110    -0.0838510
  C        1.9201190     0.2388570     1.0398190
  C       -2.0282860     0.8425430     0.3372020
  C       -1.4126000    -1.8085370    -0.2310830
  C        2.0871850    -0.8915250     0.0446260
  C       -0.0584500     2.8482670    -0.7690020
  C       -3.0319510    -0.1194250     0.3623450
  C       -2.7230760    -1.4503270     0.0616580
  H        0.9974690    -2.0891180    -1.1576180
  H        1.1650960    -0.0456930     1.7889680
  H        2.8821530     0.3846540     1.5322680
  H       -2.2754030     1.8777800     0.5574090
  H       -1.1609050    -2.8458310    -0.4446670
  H       -0.7945500     3.4046450    -0.1790500
  H       -0.5037450     2.6486950    -1.7485080
  H        0.8332190     3.4662990    -0.8854880
  H       -4.0517820     0.1644530     0.6082680
  H       -3.5008180    -2.2099170     0.0672390
units angstrom
no_reorient  #important for SAPT in psi4, default
symmetry c1  #important for SAPT in psi4, default
}

set PROPERTIES_ORIGIN ["COM"]
properties('MP2/aug-cc-pvtz', properties = ['dipole'])
--------------------------------------------------------------------------

    Molecular point group: c1
  Charge       = 0
  Multiplicity = 1
  Basis Set: AUG-CC-PVTZ
    Blend: AUG-CC-PVTZ
  Basis Set: (AUG-CC-PVTZ AUX)
    Blend: AUG-CC-PVTZ-JKFIT

    Orbital Energies [Eh]
    ---------------------

    Doubly Occupied:

       1A    -20.531230     2A    -15.606288     3A    -15.567326
       4A    -11.361539     5A    -11.314014     6A    -11.302561
       7A    -11.266815     8A    -11.266742     9A    -11.265410
      10A    -11.264523    11A    -11.259740    12A    -11.254237
      13A    -11.234410    14A     -1.386409    15A     -1.274402
      16A     -1.231789    17A     -1.165514    18A     -1.066610
      19A     -1.033948    20A     -1.013006    21A     -0.951419
      22A     -0.884683    23A     -0.858740    24A     -0.794323
      25A     -0.769129    26A     -0.726938    27A     -0.691440
      28A     -0.677323    29A     -0.656772    30A     -0.650690
      31A     -0.626190    32A     -0.618152    33A     -0.603380
      34A     -0.586542    35A     -0.566078    36A     -0.558924
      37A     -0.543377    38A     -0.539257    39A     -0.528490
      40A     -0.516820    41A     -0.456984    42A     -0.443169
      43A     -0.417695    44A     -0.405026    45A     -0.355526
      46A     -0.333677

  @DF-RHF Final Energy:  -568.46532587613717

   => Energetics <=

    Nuclear Repulsion Energy =            760.8858514245046081
    One-Electron Energy =               -2281.8478405805326474
    Two-Electron Energy =                 952.4966632798908677
    Total Energy =                       -568.4653258761371717
  Basis Set: (AUG-CC-PVTZ AUX)
    Blend: AUG-CC-PVTZ-RI
    Molecular point group: c1

    Geometry (in Angstrom), charge = 0, multiplicity = 1:

       Center              X                  Y                   Z               Mass
    ------------   -----------------  -----------------  -----------------  -----------------
         O            3.111571114258    -1.422794325150    -0.213779192371    15.994914619570
         N            0.870114114258    -1.224720325150    -0.588824192371    14.003074004430
         N            1.518352114258     1.491575674850     0.335701807629    14.003074004430
         C           -0.732291885742     0.533227674850     0.034267807629    12.000000000000
         C           -0.431607585742    -0.800410825150    -0.231966192371    12.000000000000
         C            0.298321114258     1.591151674850    -0.083325192371    12.000000000000
         C            1.883935114258     0.264597674850     1.040344807629    12.000000000000
         C           -2.064469885742     0.868283674850     0.337727807629    12.000000000000
         C           -1.448783885742    -1.782796325150    -0.230557192371    12.000000000000
         C            2.051001114258    -0.865784325150     0.045151807629    12.000000000000
         C           -0.094633885742     2.874007674850    -0.768476192371    12.000000000000
         C           -3.068134885742    -0.093684325150     0.362870807629    12.000000000000
         C           -2.759259885742    -1.424586325150     0.062183807629    12.000000000000
         H            0.961285114258    -2.063377325150    -1.157092192371     1.007825032230
         H            1.128912114258    -0.019952325150     1.789493807629     1.007825032230
         H            2.845969114258     0.410394674850     1.532793807629     1.007825032230
         H           -2.311586885742     1.903520674850     0.557934807629     1.007825032230
         H           -1.197088885742    -2.820090325150    -0.444141192371     1.007825032230
         H           -0.830733885742     3.430385674850    -0.178524192371     1.007825032230
         H           -0.539928885742     2.674435674850    -1.747982192371     1.007825032230
         H            0.797035114258     3.492039674850    -0.884962192371     1.007825032230
         H           -4.087965885742     0.190193674850     0.608793807629     1.007825032230
         H           -3.537001885742    -2.184176325150     0.067764807629     1.007825032230

  Basis Set: AUG-CC-PVTZ
    Blend: AUG-CC-PVTZ
  Basis Set: (AUG-CC-PVTZ AUX)
    Blend: AUG-CC-PVTZ-JKFIT
	 Reference Energy          =    -568.4653258761371717 [Eh]
	 Singles Energy            =      -0.0000000000000000 [Eh]
	 Same-Spin Energy          =      -0.6142978621229456 [Eh]
	 Opposite-Spin Energy      =      -1.8870943343889972 [Eh]
	 Correlation Energy        =      -2.5013921965119428 [Eh]
	 Total Energy              =    -570.9667180726490869 [Eh]

	 ================> DF-SCS-MP2 Energies <==================
	-----------------------------------------------------------
	 SCS Same-Spin Scale       =       0.3333333333333333 [-]
	 SCS Opposite-Spin Scale   =       1.2000000000000000 [-]
	 SCS Same-Spin Energy      =      -0.2047659540409819 [Eh]
	 SCS Opposite-Spin Energy  =      -2.2645132012667966 [Eh]
	 SCS Correlation Energy    =      -2.4692791553077784 [Eh]
	 SCS Total Energy          =    -570.9346050314449030 [Eh]
	-----------------------------------------------------------

  Dipole Moment: [D]
     X:    -5.1681      Y:    -0.2235      Z:     0.2328     Total:     5.1782

*** Psi4 exiting successfully. Buy a developer a beer!
