                               Psi4 1.4a3.dev225

  ==> Input File <==

--------------------------------------------------------------------------
#psi4
#
memory 32 gb

molecule  {
0 1
  O        3.1477550    -1.4485350    -0.2143050
  N        0.9062980    -1.2504610    -0.5893500
  N        1.5545360     1.4658350     0.3351760
  C       -0.6961080     0.5074870     0.0337420
  C       -0.3911060    -0.8453020    -0.2363150
  C        0.3484170     1.5796916    -0.0854384
  C        1.9201190     0.2388570     1.0398190
  C       -2.0282860     0.8425430     0.3372020
  C       -1.4126000    -1.8085370    -0.2310830
  C        2.0871850    -0.8915250     0.0446260
  C       -0.0584500     2.8482670    -0.7690020
  C       -3.0319510    -0.1194250     0.3623450
  C       -2.7230760    -1.4503270     0.0616580
  H        0.9974690    -2.0891180    -1.1576180
  H        1.1650960    -0.0456930     1.7889680
  H        2.8821530     0.3846540     1.5322680
  H       -2.2754030     1.8777800     0.5574090
  H       -1.1609050    -2.8458310    -0.4446670
  H       -0.7945500     3.4046450    -0.1790500
  H       -0.5037450     2.6486950    -1.7485080
  H        0.8332190     3.4662990    -0.8854880
  H       -4.0517820     0.1644530     0.6082680
  H       -3.5008180    -2.2099170     0.0672390
units angstrom
no_reorient  #important for SAPT in psi4, default
symmetry c1  #important for SAPT in psi4, default
}

set PROPERTIES_ORIGIN ["COM"]
properties('MP2/aug-cc-pvtz', properties = ['dipole'])
--------------------------------------------------------------------------

    Molecular point group: c1
  Charge       = 0
  Multiplicity = 1
  Basis Set: AUG-CC-PVTZ
    Blend: AUG-CC-PVTZ
  Basis Set: (AUG-CC-PVTZ AUX)
    Blend: AUG-CC-PVTZ-JKFIT

    Orbital Energies [Eh]
    ---------------------

    Doubly Occupied:

       1A    -20.532452     2A    -15.606697     3A    -15.566267
       4A    -11.362838     5A    -11.313389     6A    -11.302146
       7A    -11.268095     8A    -11.266616     9A    -11.265146
      10A    -11.264501    11A    -11.257682    12A    -11.253154
      13A    -11.234088    14A     -1.387634    15A     -1.276181
      16A     -1.235797    17A     -1.163559    18A     -1.064066
      19A     -1.034939    20A     -1.012204    21A     -0.954195
      22A     -0.883122    23A     -0.857280    24A     -0.794713
      25A     -0.766905    26A     -0.728086    27A     -0.692007
      28A     -0.677956    29A     -0.656838    30A     -0.647966
      31A     -0.625789    32A     -0.620019    33A     -0.604994
      34A     -0.587446    35A     -0.566734    36A     -0.558461
      37A     -0.545020    38A     -0.538583    39A     -0.527594
      40A     -0.515615    41A     -0.458606    42A     -0.444342
      43A     -0.416795    44A     -0.405377    45A     -0.355408
      46A     -0.331644

  @DF-RHF Final Energy:  -568.46637470358007

   => Energetics <=

    Nuclear Repulsion Energy =            760.5901901696470304
    One-Electron Energy =               -2281.2552352009661263
    Two-Electron Energy =                 952.1986703277390234
    Total Energy =                       -568.4663747035800725
  Basis Set: (AUG-CC-PVTZ AUX)
    Blend: AUG-CC-PVTZ-RI
    Molecular point group: c1

    Geometry (in Angstrom), charge = 0, multiplicity = 1:

       Center              X                  Y                   Z               Mass
    ------------   -----------------  -----------------  -----------------  -----------------
         O            3.110314466375    -1.422458622998    -0.213406231340    15.994914619570
         N            0.868857466375    -1.224384622998    -0.588451231340    14.003074004430
         N            1.517095466375     1.491911377002     0.336074768660    14.003074004430
         C           -0.733548533625     0.533563377002     0.034640768660    12.000000000000
         C           -0.428546533625    -0.819225622998    -0.235416231340    12.000000000000
         C            0.310976466375     1.605767977002    -0.084539631340    12.000000000000
         C            1.882678466375     0.264933377002     1.040717768660    12.000000000000
         C           -2.065726533625     0.868619377002     0.338100768660    12.000000000000
         C           -1.450040533625    -1.782460622998    -0.230184231340    12.000000000000
         C            2.049744466375    -0.865448622998     0.045524768660    12.000000000000
         C           -0.095890533625     2.874343377002    -0.768103231340    12.000000000000
         C           -3.069391533625    -0.093348622998     0.363243768660    12.000000000000
         C           -2.760516533625    -1.424250622998     0.062556768660    12.000000000000
         H            0.960028466375    -2.063041622998    -1.156719231340     1.007825032230
         H            1.127655466375    -0.019616622998     1.789866768660     1.007825032230
         H            2.844712466375     0.410730377002     1.533166768660     1.007825032230
         H           -2.312843533625     1.903856377002     0.558307768660     1.007825032230
         H           -1.198345533625    -2.819754622998    -0.443768231340     1.007825032230
         H           -0.831990533625     3.430721377002    -0.178151231340     1.007825032230
         H           -0.541185533625     2.674771377002    -1.747609231340     1.007825032230
         H            0.795778466375     3.492375377002    -0.884589231340     1.007825032230
         H           -4.089222533625     0.190529377002     0.609166768660     1.007825032230
         H           -3.538258533625    -2.183840622998     0.068137768660     1.007825032230

  Basis Set: AUG-CC-PVTZ
    Blend: AUG-CC-PVTZ
  Basis Set: (AUG-CC-PVTZ AUX)
    Blend: AUG-CC-PVTZ-JKFIT
	 Reference Energy          =    -568.4663747035800725 [Eh]
	 Singles Energy            =      -0.0000000000000000 [Eh]
	 Same-Spin Energy          =      -0.6140657904496585 [Eh]
	 Opposite-Spin Energy      =      -1.8864500957558916 [Eh]
	 Correlation Energy        =      -2.5005158862055499 [Eh]
	 Total Energy              =    -570.9668905897856348 [Eh]

	 ================> DF-SCS-MP2 Energies <==================
	-----------------------------------------------------------
	 SCS Same-Spin Scale       =       0.3333333333333333 [-]
	 SCS Opposite-Spin Scale   =       1.2000000000000000 [-]
	 SCS Same-Spin Energy      =      -0.2046885968165528 [Eh]
	 SCS Opposite-Spin Energy  =      -2.2637401149070699 [Eh]
	 SCS Correlation Energy    =      -2.4684287117236225 [Eh]
	 SCS Total Energy          =    -570.9348034153036906 [Eh]
	-----------------------------------------------------------

  Dipole Moment: [D]
     X:    -5.0724      Y:    -0.1866      Z:     0.2215     Total:     5.0807

*** Psi4 exiting successfully. Buy a developer a beer!
