                               Psi4 1.3.2 release

  ==> Input File <==

--------------------------------------------------------------------------
#psi4
#
memory 32 gb

molecule  {
0 1
  O        3.1477550    -1.4485350    -0.2143050
  N        0.9062980    -1.2504610    -0.5893500
  N        1.5545360     1.4658350     0.3351760
  C       -0.6838541     0.5547018     0.0393784
  C       -0.3911060    -0.8453020    -0.2363150
  C        0.3345050     1.5654110    -0.0838510
  C        1.9201190     0.2388570     1.0398190
  C       -2.0282860     0.8425430     0.3372020
  C       -1.4126000    -1.8085370    -0.2310830
  C        2.0871850    -0.8915250     0.0446260
  C       -0.0584500     2.8482670    -0.7690020
  C       -3.0319510    -0.1194250     0.3623450
  C       -2.7230760    -1.4503270     0.0616580
  H        0.9974690    -2.0891180    -1.1576180
  H        1.1650960    -0.0456930     1.7889680
  H        2.8821530     0.3846540     1.5322680
  H       -2.2754030     1.8777800     0.5574090
  H       -1.1609050    -2.8458310    -0.4446670
  H       -0.7945500     3.4046450    -0.1790500
  H       -0.5037450     2.6486950    -1.7485080
  H        0.8332190     3.4662990    -0.8854880
  H       -4.0517820     0.1644530     0.6082680
  H       -3.5008180    -2.2099170     0.0672390
units angstrom
no_reorient  #important for SAPT in psi4, default
symmetry c1  #important for SAPT in psi4, default
}

set PROPERTIES_ORIGIN ["COM"]
properties('MP2/aug-cc-pvtz', properties = ['dipole'])
--------------------------------------------------------------------------

    Molecular point group: c1
  Charge       = 0
  Multiplicity = 1
  Basis Set: AUG-CC-PVTZ
    Blend: AUG-CC-PVTZ
  Basis Set: (AUG-CC-PVTZ AUX)
    Blend: AUG-CC-PVTZ-JKFIT

    Orbital Energies [Eh]
    ---------------------

    Doubly Occupied:

       1A    -20.532634     2A    -15.607965     3A    -15.567155
       4A    -11.362952     5A    -11.319995     6A    -11.299692
       7A    -11.268288     8A    -11.267142     9A    -11.267069
      10A    -11.267039    11A    -11.258275    12A    -11.253795
      13A    -11.233386    14A     -1.387841    15A     -1.275982
      16A     -1.234281    17A     -1.162612    18A     -1.069058
      19A     -1.035002    20A     -1.007696    21A     -0.951939
      22A     -0.890415    23A     -0.856049    24A     -0.796455
      25A     -0.768645    26A     -0.730884    27A     -0.692297
      28A     -0.678186    29A     -0.659561    30A     -0.645968
      31A     -0.625488    32A     -0.618159    33A     -0.604772
      34A     -0.586677    35A     -0.566807    36A     -0.558797
      37A     -0.546253    38A     -0.538855    39A     -0.526417
      40A     -0.512007    41A     -0.458002    42A     -0.444923
      43A     -0.418693    44A     -0.407431    45A     -0.354531
      46A     -0.328908

  @DF-RHF Final Energy:  -568.46098830699998

   => Energetics <=

    Nuclear Repulsion Energy =            760.5337442863354909
    One-Electron Energy =               -2281.0995026723917363
    Two-Electron Energy =                 952.1047700790561521
    Total Energy =                       -568.4609883069999796
  Basis Set: (AUG-CC-PVTZ AUX)
    Blend: AUG-CC-PVTZ-RI
    Molecular point group: c1

    Geometry (in Angstrom), charge = 0, multiplicity = 1:

       Center              X                  Y                   Z               Mass
    ------------   -----------------  -----------------  -----------------  -----------------
         O            3.110428765999    -1.424728912289    -0.213904197460    15.994914619570
         N            0.868971765999    -1.226654912289    -0.588949197460    14.003074004430
         N            1.517209765999     1.489641087711     0.335576802540    14.003074004430
         C           -0.721180334001     0.578507887711     0.039779202540    12.000000000000
         C           -0.428432234001    -0.821495912289    -0.235914197460    12.000000000000
         C            0.297178765999     1.589217087711    -0.083450197460    12.000000000000
         C            1.882792765999     0.262663087711     1.040219802540    12.000000000000
         C           -2.065612234001     0.866349087711     0.337602802540    12.000000000000
         C           -1.449926234001    -1.784730912289    -0.230682197460    12.000000000000
         C            2.049858765999    -0.867718912289     0.045026802540    12.000000000000
         C           -0.095776234001     2.872073087711    -0.768601197460    12.000000000000
         C           -3.069277234001    -0.095618912289     0.362745802540    12.000000000000
         C           -2.760402234001    -1.426520912289     0.062058802540    12.000000000000
         H            0.960142765999    -2.065311912289    -1.157217197460     1.007825032230
         H            1.127769765999    -0.021886912289     1.789368802540     1.007825032230
         H            2.844826765999     0.408460087711     1.532668802540     1.007825032230
         H           -2.312729234001     1.901586087711     0.557809802540     1.007825032230
         H           -1.198231234001    -2.822024912289    -0.444266197460     1.007825032230
         H           -0.831876234001     3.428451087711    -0.178649197460     1.007825032230
         H           -0.541071234001     2.672501087711    -1.748107197460     1.007825032230
         H            0.795892765999     3.490105087711    -0.885087197460     1.007825032230
         H           -4.089108234001     0.188259087711     0.608668802540     1.007825032230
         H           -3.538144234001    -2.186110912289     0.067639802540     1.007825032230

  Basis Set: AUG-CC-PVTZ
    Blend: AUG-CC-PVTZ
  Basis Set: (AUG-CC-PVTZ AUX)
    Blend: AUG-CC-PVTZ-JKFIT
	 Reference Energy          =    -568.4609883069999796 [Eh]
	 Singles Energy            =      -0.0000000000000000 [Eh]
	 Same-Spin Energy          =      -0.6152447747713412 [Eh]
	 Opposite-Spin Energy      =      -1.8882117116528503 [Eh]
	 Correlation Energy        =      -2.5034564864241915 [Eh]
	 Total Energy              =    -570.9644447934241498 [Eh]

	 ================> DF-SCS-MP2 Energies <==================
	-----------------------------------------------------------
	 SCS Same-Spin Scale       =       0.3333333333333333 [-]
	 SCS Opposite-Spin Scale   =       1.2000000000000000 [-]
	 SCS Same-Spin Energy      =      -0.2050815915904471 [Eh]
	 SCS Opposite-Spin Energy  =      -2.2658540539834204 [Eh]
	 SCS Correlation Energy    =      -2.4709356455738676 [Eh]
	 SCS Total Energy          =    -570.9319239525738112 [Eh]
	-----------------------------------------------------------

  Dipole Moment: [D]
     X:    -5.1123      Y:    -0.2959      Z:     0.2271     Total:     5.1259

*** Psi4 exiting successfully. Buy a developer a beer!
