                               Psi4 1.3.2 release

  ==> Input File <==

--------------------------------------------------------------------------
#psi4
#
memory 32 gb

molecule  {
0 1
  O        3.1477550    -1.4485350    -0.2143050
  N        0.9062980    -1.2504610    -0.5893500
  N        1.5545360     1.4658350     0.3351760
  C       -0.6961080     0.5074870     0.0337420
  C       -0.4342830    -0.6537969    -0.1980849
  C        0.3345050     1.5654110    -0.0838510
  C        1.9201190     0.2388570     1.0398190
  C       -2.0282860     0.8425430     0.3372020
  C       -1.4126000    -1.8085370    -0.2310830
  C        2.0871850    -0.8915250     0.0446260
  C       -0.0584500     2.8482670    -0.7690020
  C       -3.0319510    -0.1194250     0.3623450
  C       -2.7230760    -1.4503270     0.0616580
  H        0.9974690    -2.0891180    -1.1576180
  H        1.1650960    -0.0456930     1.7889680
  H        2.8821530     0.3846540     1.5322680
  H       -2.2754030     1.8777800     0.5574090
  H       -1.1609050    -2.8458310    -0.4446670
  H       -0.7945500     3.4046450    -0.1790500
  H       -0.5037450     2.6486950    -1.7485080
  H        0.8332190     3.4662990    -0.8854880
  H       -4.0517820     0.1644530     0.6082680
  H       -3.5008180    -2.2099170     0.0672390
units angstrom
no_reorient  #important for SAPT in psi4, default
symmetry c1  #important for SAPT in psi4, default
}

set PROPERTIES_ORIGIN ["COM"]
properties('MP2/aug-cc-pvtz', properties = ['dipole'])
--------------------------------------------------------------------------

    Molecular point group: c1
  Charge       = 0
  Multiplicity = 1
  Basis Set: AUG-CC-PVTZ
    Blend: AUG-CC-PVTZ
  Basis Set: (AUG-CC-PVTZ AUX)
    Blend: AUG-CC-PVTZ-JKFIT

    Orbital Energies [Eh]
    ---------------------

    Doubly Occupied:

       1A    -20.522561     2A    -15.598226     3A    -15.570258
       4A    -11.352429     5A    -11.306931     6A    -11.305100
       7A    -11.271930     8A    -11.268359     9A    -11.265268
      10A    -11.264302    11A    -11.259031    12A    -11.247458
      13A    -11.236651    14A     -1.377307    15A     -1.269713
      16A     -1.218628    17A     -1.176381    18A     -1.082442
      19A     -1.028008    20A     -1.022719    21A     -0.949790
      22A     -0.880362    23A     -0.860304    24A     -0.787054
      25A     -0.774724    26A     -0.714028    27A     -0.692804
      28A     -0.674207    29A     -0.666575    30A     -0.650679
      31A     -0.623941    32A     -0.617128    33A     -0.591053
      34A     -0.587519    35A     -0.561494    36A     -0.560433
      37A     -0.547706    38A     -0.535927    39A     -0.533979
      40A     -0.517200    41A     -0.452427    42A     -0.430555
      43A     -0.417704    44A     -0.401692    45A     -0.372557
      46A     -0.338210

  @DF-RHF Final Energy:  -568.40789646794417

   => Energetics <=

    Nuclear Repulsion Energy =            762.4669083934255696
    One-Electron Energy =               -2284.9821005851736118
    Two-Electron Energy =                 954.1072957238039862
    Total Energy =                       -568.4078964679441697
  Basis Set: (AUG-CC-PVTZ AUX)
    Blend: AUG-CC-PVTZ-RI
    Molecular point group: c1

    Geometry (in Angstrom), charge = 0, multiplicity = 1:

       Center              X                  Y                   Z               Mass
    ------------   -----------------  -----------------  -----------------  -----------------
         O            3.114249844959    -1.434675433623    -0.216151014692    15.994914619570
         N            0.872792844959    -1.236601433623    -0.591196014692    14.003074004430
         N            1.521030844959     1.479694566377     0.333329985308    14.003074004430
         C           -0.729613155041     0.521346566377     0.031895985308    12.000000000000
         C           -0.467788155041    -0.639937333623    -0.199930914692    12.000000000000
         C            0.300999844959     1.579270566377    -0.085697014692    12.000000000000
         C            1.886613844959     0.252716566377     1.037972985308    12.000000000000
         C           -2.061791155041     0.856402566377     0.335355985308    12.000000000000
         C           -1.446105155041    -1.794677433623    -0.232929014692    12.000000000000
         C            2.053679844959    -0.877665433623     0.042779985308    12.000000000000
         C           -0.091955155041     2.862126566377    -0.770848014692    12.000000000000
         C           -3.065456155041    -0.105565433623     0.360498985308    12.000000000000
         C           -2.756581155041    -1.436467433623     0.059811985308    12.000000000000
         H            0.963963844959    -2.075258433623    -1.159464014692     1.007825032230
         H            1.131590844959    -0.031833433623     1.787121985308     1.007825032230
         H            2.848647844959     0.398513566377     1.530421985308     1.007825032230
         H           -2.308908155041     1.891639566377     0.555562985308     1.007825032230
         H           -1.194410155041    -2.831971433623    -0.446513014692     1.007825032230
         H           -0.828055155041     3.418504566377    -0.180896014692     1.007825032230
         H           -0.537250155041     2.662554566377    -1.750354014692     1.007825032230
         H            0.799713844959     3.480158566377    -0.887334014692     1.007825032230
         H           -4.085287155041     0.178312566377     0.606421985308     1.007825032230
         H           -3.534323155041    -2.196057433623     0.065392985308     1.007825032230

  Basis Set: AUG-CC-PVTZ
    Blend: AUG-CC-PVTZ
  Basis Set: (AUG-CC-PVTZ AUX)
    Blend: AUG-CC-PVTZ-JKFIT
	 Reference Energy          =    -568.4078964679441697 [Eh]
	 Singles Energy            =      -0.0000000000000000 [Eh]
	 Same-Spin Energy          =      -0.6124590076165770 [Eh]
	 Opposite-Spin Energy      =      -1.8882835600038523 [Eh]
	 Correlation Energy        =      -2.5007425676204296 [Eh]
	 Total Energy              =    -570.9086390355646472 [Eh]

	 ================> DF-SCS-MP2 Energies <==================
	-----------------------------------------------------------
	 SCS Same-Spin Scale       =       0.3333333333333333 [-]
	 SCS Opposite-Spin Scale   =       1.2000000000000000 [-]
	 SCS Same-Spin Energy      =      -0.2041530025388590 [Eh]
	 SCS Opposite-Spin Energy  =      -2.2659402720046229 [Eh]
	 SCS Correlation Energy    =      -2.4700932745434820 [Eh]
	 SCS Total Energy          =    -570.8779897424876708 [Eh]
	-----------------------------------------------------------

  Dipole Moment: [D]
     X:    -5.6200      Y:     0.0085      Z:     0.2928     Total:     5.6276

*** Psi4 exiting successfully. Buy a developer a beer!
