                               Psi4 1.3.2 release

  ==> Input File <==

--------------------------------------------------------------------------
#psi4
#
memory 32 gb

molecule  {
0 1
  O        3.1477550    -1.4485350    -0.2143050
  N        0.9062980    -1.2504610    -0.5893500
  N        1.5545360     1.4658350     0.3351760
  C       -0.6961080     0.5074870     0.0337420
  C       -0.3911060    -0.8453020    -0.2363150
  C        0.3345050     1.5654110    -0.0838510
  C        1.8951028     0.3228169     0.9916015
  C       -2.0282860     0.8425430     0.3372020
  C       -1.4126000    -1.8085370    -0.2310830
  C        2.0871850    -0.8915250     0.0446260
  C       -0.0584500     2.8482670    -0.7690020
  C       -3.0319510    -0.1194250     0.3623450
  C       -2.7230760    -1.4503270     0.0616580
  H        0.9974690    -2.0891180    -1.1576180
  H        1.1650960    -0.0456930     1.7889680
  H        2.8821530     0.3846540     1.5322680
  H       -2.2754030     1.8777800     0.5574090
  H       -1.1609050    -2.8458310    -0.4446670
  H       -0.7945500     3.4046450    -0.1790500
  H       -0.5037450     2.6486950    -1.7485080
  H        0.8332190     3.4662990    -0.8854880
  H       -4.0517820     0.1644530     0.6082680
  H       -3.5008180    -2.2099170     0.0672390
units angstrom
no_reorient  #important for SAPT in psi4, default
symmetry c1  #important for SAPT in psi4, default
}

set PROPERTIES_ORIGIN ["COM"]
properties('MP2/aug-cc-pvtz', properties = ['dipole'])
--------------------------------------------------------------------------

    Molecular point group: c1
  Charge       = 0
  Multiplicity = 1
  Basis Set: AUG-CC-PVTZ
    Blend: AUG-CC-PVTZ
  Basis Set: (AUG-CC-PVTZ AUX)
    Blend: AUG-CC-PVTZ-JKFIT

    Orbital Energies [Eh]
    ---------------------

    Doubly Occupied:

       1A    -20.533189     2A    -15.606807     3A    -15.562872
       4A    -11.362761     5A    -11.315282     6A    -11.305863
       7A    -11.269646     8A    -11.267819     9A    -11.266578
      10A    -11.266278    11A    -11.258618    12A    -11.254302
      13A    -11.235226    14A     -1.386737    15A     -1.283210
      16A     -1.247631    17A     -1.165818    18A     -1.070665
      19A     -1.034945    20A     -1.012298    21A     -0.943365
      22A     -0.888572    23A     -0.858580    24A     -0.795930
      25A     -0.774046    26A     -0.728722    27A     -0.699573
      28A     -0.673548    29A     -0.657881    30A     -0.651076
      31A     -0.627057    32A     -0.619769    33A     -0.606202
      34A     -0.586826    35A     -0.564062    36A     -0.559425
      37A     -0.547115    38A     -0.535903    39A     -0.527270
      40A     -0.511006    41A     -0.462720    42A     -0.445077
      43A     -0.414280    44A     -0.399815    45A     -0.354390
      46A     -0.333115

  @DF-RHF Final Energy:  -568.45536761344465

   => Energetics <=

    Nuclear Repulsion Energy =            761.8171480496361028
    One-Electron Energy =               -2283.6012909110240798
    Two-Electron Energy =                 953.3287752479432129
    Total Energy =                       -568.4553676134446505
  Basis Set: (AUG-CC-PVTZ AUX)
    Blend: AUG-CC-PVTZ-RI
    Molecular point group: c1

    Geometry (in Angstrom), charge = 0, multiplicity = 1:

       Center              X                  Y                   Z               Mass
    ------------   -----------------  -----------------  -----------------  -----------------
         O            3.112997946635    -1.427261902525    -0.210191827569    15.994914619570
         N            0.871540946635    -1.229187902525    -0.585236827569    14.003074004430
         N            1.519778946635     1.487108097475     0.339289172431    14.003074004430
         C           -0.730865053365     0.528760097475     0.037855172431    12.000000000000
         C           -0.425863053365    -0.824028902525    -0.232201827569    12.000000000000
         C            0.299747946635     1.586684097475    -0.079737827569    12.000000000000
         C            1.860345746635     0.344089997475     0.995714672431    12.000000000000
         C           -2.063043053365     0.863816097475     0.341315172431    12.000000000000
         C           -1.447357053365    -1.787263902525    -0.226969827569    12.000000000000
         C            2.052427946635    -0.870251902525     0.048739172431    12.000000000000
         C           -0.093207053365     2.869540097475    -0.764888827569    12.000000000000
         C           -3.066708053365    -0.098151902525     0.366458172431    12.000000000000
         C           -2.757833053365    -1.429053902525     0.065771172431    12.000000000000
         H            0.962711946635    -2.067844902525    -1.153504827569     1.007825032230
         H            1.130338946635    -0.024419902525     1.793081172431     1.007825032230
         H            2.847395946635     0.405927097475     1.536381172431     1.007825032230
         H           -2.310160053365     1.899053097475     0.561522172431     1.007825032230
         H           -1.195662053365    -2.824557902525    -0.440553827569     1.007825032230
         H           -0.829307053365     3.425918097475    -0.174936827569     1.007825032230
         H           -0.538502053365     2.669968097475    -1.744394827569     1.007825032230
         H            0.798461946635     3.487572097475    -0.881374827569     1.007825032230
         H           -4.086539053365     0.185726097475     0.612381172431     1.007825032230
         H           -3.535575053365    -2.188643902525     0.071352172431     1.007825032230

  Basis Set: AUG-CC-PVTZ
    Blend: AUG-CC-PVTZ
  Basis Set: (AUG-CC-PVTZ AUX)
    Blend: AUG-CC-PVTZ-JKFIT
	 Reference Energy          =    -568.4553676134446505 [Eh]
	 Singles Energy            =      -0.0000000000000000 [Eh]
	 Same-Spin Energy          =      -0.6154979051500344 [Eh]
	 Opposite-Spin Energy      =      -1.8875300047111683 [Eh]
	 Correlation Energy        =      -2.5030279098612027 [Eh]
	 Total Energy              =    -570.9583955233058532 [Eh]

	 ================> DF-SCS-MP2 Energies <==================
	-----------------------------------------------------------
	 SCS Same-Spin Scale       =       0.3333333333333333 [-]
	 SCS Opposite-Spin Scale   =       1.2000000000000000 [-]
	 SCS Same-Spin Energy      =      -0.2051659683833448 [Eh]
	 SCS Opposite-Spin Energy  =      -2.2650360056534020 [Eh]
	 SCS Correlation Energy    =      -2.4702019740367467 [Eh]
	 SCS Total Energy          =    -570.9255695874813910 [Eh]
	-----------------------------------------------------------

  Dipole Moment: [D]
     X:    -5.1506      Y:    -0.2229      Z:     0.0910     Total:     5.1563

*** Psi4 exiting successfully. Buy a developer a beer!
