                               Psi4 1.4a3.dev225

  ==> Input File <==

--------------------------------------------------------------------------
#psi4
#
memory 32 gb

molecule  {
0 1
  O        3.1477550    -1.4485350    -0.2143050
  N        0.9062980    -1.2504610    -0.5893500
  N        1.5545360     1.4658350     0.3351760
  C       -0.6961080     0.5074870     0.0337420
  C       -0.3726283    -0.8510723    -0.2413429
  C        0.3345050     1.5654110    -0.0838510
  C        1.9201190     0.2388570     1.0398190
  C       -2.0282860     0.8425430     0.3372020
  C       -1.4126000    -1.8085370    -0.2310830
  C        2.0871850    -0.8915250     0.0446260
  C       -0.0584500     2.8482670    -0.7690020
  C       -3.0319510    -0.1194250     0.3623450
  C       -2.7230760    -1.4503270     0.0616580
  H        0.9974690    -2.0891180    -1.1576180
  H        1.1650960    -0.0456930     1.7889680
  H        2.8821530     0.3846540     1.5322680
  H       -2.2754030     1.8777800     0.5574090
  H       -1.1609050    -2.8458310    -0.4446670
  H       -0.7945500     3.4046450    -0.1790500
  H       -0.5037450     2.6486950    -1.7485080
  H        0.8332190     3.4662990    -0.8854880
  H       -4.0517820     0.1644530     0.6082680
  H       -3.5008180    -2.2099170     0.0672390
units angstrom
no_reorient  #important for SAPT in psi4, default
symmetry c1  #important for SAPT in psi4, default
}

set PROPERTIES_ORIGIN ["COM"]
properties('MP2/aug-cc-pvtz', properties = ['dipole'])
--------------------------------------------------------------------------

    Molecular point group: c1
  Charge       = 0
  Multiplicity = 1
  Basis Set: AUG-CC-PVTZ
    Blend: AUG-CC-PVTZ
  Basis Set: (AUG-CC-PVTZ AUX)
    Blend: AUG-CC-PVTZ-JKFIT

    Orbital Energies [Eh]
    ---------------------

    Doubly Occupied:

       1A    -20.533880     2A    -15.608918     3A    -15.566659
       4A    -11.364065     5A    -11.315470     6A    -11.301896
       7A    -11.267470     8A    -11.266658     9A    -11.265490
      10A    -11.265015    11A    -11.258352    12A    -11.252946
      13A    -11.233854    14A     -1.389465    15A     -1.280312
      16A     -1.234520    17A     -1.162769    18A     -1.064677
      19A     -1.034149    20A     -1.010085    21A     -0.952122
      22A     -0.886233    23A     -0.858908    24A     -0.796667
      25A     -0.767131    26A     -0.731783    27A     -0.692399
      28A     -0.678552    29A     -0.657805    30A     -0.646765
      31A     -0.625261    32A     -0.618609    33A     -0.606393
      34A     -0.586336    35A     -0.568312    36A     -0.558643
      37A     -0.543254    38A     -0.539146    39A     -0.526937
      40A     -0.513501    41A     -0.458762    42A     -0.446757
      43A     -0.417074    44A     -0.405696    45A     -0.354397
      46A     -0.329531

  @DF-RHF Final Energy:  -568.46472693033752

   => Energetics <=

    Nuclear Repulsion Energy =            760.7466966289055108
    One-Electron Energy =               -2281.5356038904405978
    Two-Electron Energy =                 952.3241803311975673
    Total Energy =                       -568.4647269303375197
  Basis Set: (AUG-CC-PVTZ AUX)
    Blend: AUG-CC-PVTZ-RI
    Molecular point group: c1

    Geometry (in Angstrom), charge = 0, multiplicity = 1:

       Center              X                  Y                   Z               Mass
    ------------   -----------------  -----------------  -----------------  -----------------
         O            3.109999733975    -1.421076432341    -0.213169063585    15.994914619570
         N            0.868542733975    -1.223002432341    -0.588214063585    14.003074004430
         N            1.516780733975     1.493293567659     0.336311936415    14.003074004430
         C           -0.733863266025     0.534945567659     0.034877936415    12.000000000000
         C           -0.410383566025    -0.823613732341    -0.240206963585    12.000000000000
         C            0.296749733975     1.592869567659    -0.082715063585    12.000000000000
         C            1.882363733975     0.266315567659     1.040954936415    12.000000000000
         C           -2.066041266025     0.870001567659     0.338337936415    12.000000000000
         C           -1.450355266025    -1.781078432341    -0.229947063585    12.000000000000
         C            2.049429733975    -0.864066432341     0.045761936415    12.000000000000
         C           -0.096205266025     2.875725567659    -0.767866063585    12.000000000000
         C           -3.069706266025    -0.091966432341     0.363480936415    12.000000000000
         C           -2.760831266025    -1.422868432341     0.062793936415    12.000000000000
         H            0.959713733975    -2.061659432341    -1.156482063585     1.007825032230
         H            1.127340733975    -0.018234432341     1.790103936415     1.007825032230
         H            2.844397733975     0.412112567659     1.533403936415     1.007825032230
         H           -2.313158266025     1.905238567659     0.558544936415     1.007825032230
         H           -1.198660266025    -2.818372432341    -0.443531063585     1.007825032230
         H           -0.832305266025     3.432103567659    -0.177914063585     1.007825032230
         H           -0.541500266025     2.676153567659    -1.747372063585     1.007825032230
         H            0.795463733975     3.493757567659    -0.884352063585     1.007825032230
         H           -4.089537266025     0.191911567659     0.609403936415     1.007825032230
         H           -3.538573266025    -2.182458432341     0.068374936415     1.007825032230

  Basis Set: AUG-CC-PVTZ
    Blend: AUG-CC-PVTZ
  Basis Set: (AUG-CC-PVTZ AUX)
    Blend: AUG-CC-PVTZ-JKFIT
	 Reference Energy          =    -568.4647269303375197 [Eh]
	 Singles Energy            =      -0.0000000000000000 [Eh]
	 Same-Spin Energy          =      -0.6146974226398234 [Eh]
	 Opposite-Spin Energy      =      -1.8873840063853478 [Eh]
	 Correlation Energy        =      -2.5020814290251714 [Eh]
	 Total Energy              =    -570.9668083593627443 [Eh]

	 ================> DF-SCS-MP2 Energies <==================
	-----------------------------------------------------------
	 SCS Same-Spin Scale       =       0.3333333333333333 [-]
	 SCS Opposite-Spin Scale   =       1.2000000000000000 [-]
	 SCS Same-Spin Energy      =      -0.2048991408799411 [Eh]
	 SCS Opposite-Spin Energy  =      -2.2648608076624170 [Eh]
	 SCS Correlation Energy    =      -2.4697599485423583 [Eh]
	 SCS Total Energy          =    -570.9344868788798522 [Eh]
	-----------------------------------------------------------

  Dipole Moment: [D]
     X:    -5.0136      Y:    -0.2718      Z:     0.2091     Total:     5.0253

*** Psi4 exiting successfully. Buy a developer a beer!
