                               Psi4 1.3.2 release

  ==> Input File <==

--------------------------------------------------------------------------
#psi4
#
memory 32 gb

molecule  {
0 1
  O        3.1672451    -1.4228538    -0.1861855
  N        0.9062980    -1.2504610    -0.5893500
  N        1.5545360     1.4658350     0.3351760
  C       -0.6961080     0.5074870     0.0337420
  C       -0.3911060    -0.8453020    -0.2363150
  C        0.3345050     1.5654110    -0.0838510
  C        1.9201190     0.2388570     1.0398190
  C       -2.0282860     0.8425430     0.3372020
  C       -1.4126000    -1.8085370    -0.2310830
  C        2.0871850    -0.8915250     0.0446260
  C       -0.0584500     2.8482670    -0.7690020
  C       -3.0319510    -0.1194250     0.3623450
  C       -2.7230760    -1.4503270     0.0616580
  H        0.9974690    -2.0891180    -1.1576180
  H        1.1650960    -0.0456930     1.7889680
  H        2.8821530     0.3846540     1.5322680
  H       -2.2754030     1.8777800     0.5574090
  H       -1.1609050    -2.8458310    -0.4446670
  H       -0.7945500     3.4046450    -0.1790500
  H       -0.5037450     2.6486950    -1.7485080
  H        0.8332190     3.4662990    -0.8854880
  H       -4.0517820     0.1644530     0.6082680
  H       -3.5008180    -2.2099170     0.0672390
units angstrom
no_reorient  #important for SAPT in psi4, default
symmetry c1  #important for SAPT in psi4, default
}

set PROPERTIES_ORIGIN ["COM"]
properties('MP2/aug-cc-pvtz', properties = ['dipole'])
--------------------------------------------------------------------------

    Molecular point group: c1
  Charge       = 0
  Multiplicity = 1
  Basis Set: AUG-CC-PVTZ
    Blend: AUG-CC-PVTZ
  Basis Set: (AUG-CC-PVTZ AUX)
    Blend: AUG-CC-PVTZ-JKFIT

    Orbital Energies [Eh]
    ---------------------

    Doubly Occupied:

       1A    -20.532656     2A    -15.609055     3A    -15.566514
       4A    -11.362572     5A    -11.315129     6A    -11.301740
       7A    -11.267045     8A    -11.265899     9A    -11.265683
      10A    -11.264972    11A    -11.258816    12A    -11.254130
      13A    -11.233917    14A     -1.386946    15A     -1.277269
      16A     -1.232911    17A     -1.165026    18A     -1.065315
      19A     -1.035556    20A     -1.011114    21A     -0.950708
      22A     -0.886038    23A     -0.858650    24A     -0.795760
      25A     -0.768112    26A     -0.729333    27A     -0.691480
      28A     -0.677540    29A     -0.657698    30A     -0.648576
      31A     -0.626354    32A     -0.618272    33A     -0.604121
      34A     -0.586310    35A     -0.566993    36A     -0.558772
      37A     -0.543521    38A     -0.538764    39A     -0.527835
      40A     -0.515429    41A     -0.457605    42A     -0.445640
      43A     -0.416851    44A     -0.404312    45A     -0.354874
      46A     -0.332986

  @DF-RHF Final Energy:  -568.46512269705363

   => Energetics <=

    Nuclear Repulsion Energy =            760.6875430939996932
    One-Electron Energy =               -2281.4357361267625492
    Two-Electron Energy =                 952.2830703357092261
    Total Energy =                       -568.4651226970536300
  Basis Set: (AUG-CC-PVTZ AUX)
    Blend: AUG-CC-PVTZ-RI
    Molecular point group: c1

    Geometry (in Angstrom), charge = 0, multiplicity = 1:

       Center              X                  Y                   Z               Mass
    ------------   -----------------  -----------------  -----------------  -----------------
         O            3.128972770322    -1.398152666255    -0.187979858937    15.994914619570
         N            0.868025670322    -1.225759866255    -0.591144358937    14.003074004430
         N            1.516263670322     1.490536133745     0.333381641063    14.003074004430
         C           -0.734380329678     0.532188133745     0.031947641063    12.000000000000
         C           -0.429378329678    -0.820600866255    -0.238109358937    12.000000000000
         C            0.296232670322     1.590112133745    -0.085645358937    12.000000000000
         C            1.881846670322     0.263558133745     1.038024641063    12.000000000000
         C           -2.066558329678     0.867244133745     0.335407641063    12.000000000000
         C           -1.450872329678    -1.783835866255    -0.232877358937    12.000000000000
         C            2.048912670322    -0.866823866255     0.042831641063    12.000000000000
         C           -0.096722329678     2.872968133745    -0.770796358937    12.000000000000
         C           -3.070223329678    -0.094723866255     0.360550641063    12.000000000000
         C           -2.761348329678    -1.425625866255     0.059863641063    12.000000000000
         H            0.959196670322    -2.064416866255    -1.159412358937     1.007825032230
         H            1.126823670322    -0.020991866255     1.787173641063     1.007825032230
         H            2.843880670322     0.409355133745     1.530473641063     1.007825032230
         H           -2.313675329678     1.902481133745     0.555614641063     1.007825032230
         H           -1.199177329678    -2.821129866255    -0.446461358937     1.007825032230
         H           -0.832822329678     3.429346133745    -0.180844358937     1.007825032230
         H           -0.542017329678     2.673396133745    -1.750302358937     1.007825032230
         H            0.794946670322     3.491000133745    -0.887282358937     1.007825032230
         H           -4.090054329678     0.189154133745     0.606473641063     1.007825032230
         H           -3.539090329678    -2.185215866255     0.065444641063     1.007825032230

  Basis Set: AUG-CC-PVTZ
    Blend: AUG-CC-PVTZ
  Basis Set: (AUG-CC-PVTZ AUX)
    Blend: AUG-CC-PVTZ-JKFIT
	 Reference Energy          =    -568.4651226970536300 [Eh]
	 Singles Energy            =      -0.0000000000000000 [Eh]
	 Same-Spin Energy          =      -0.6144969268317273 [Eh]
	 Opposite-Spin Energy      =      -1.8872938532880186 [Eh]
	 Correlation Energy        =      -2.5017907801197459 [Eh]
	 Total Energy              =    -570.9669134771734207 [Eh]

	 ================> DF-SCS-MP2 Energies <==================
	-----------------------------------------------------------
	 SCS Same-Spin Scale       =       0.3333333333333333 [-]
	 SCS Opposite-Spin Scale   =       1.2000000000000000 [-]
	 SCS Same-Spin Energy      =      -0.2048323089439091 [Eh]
	 SCS Opposite-Spin Energy  =      -2.2647526239456224 [Eh]
	 SCS Correlation Energy    =      -2.4695849328895316 [Eh]
	 SCS Total Energy          =    -570.9347076299432047 [Eh]
	-----------------------------------------------------------

  Dipole Moment: [D]
     X:    -5.1629      Y:    -0.3074      Z:     0.1662     Total:     5.1748

*** Psi4 exiting successfully. Buy a developer a beer!
