                               Psi4 1.3.2 release

  ==> Input File <==

--------------------------------------------------------------------------
#psi4
#
memory 32 gb

molecule  {
0 1
  O        3.1477550    -1.4485350    -0.2143050
  N        0.9062980    -1.2504610    -0.5893500
  N        1.5533561     1.4901623     0.3799950
  C       -0.6961080     0.5074870     0.0337420
  C       -0.3911060    -0.8453020    -0.2363150
  C        0.3345050     1.5654110    -0.0838510
  C        1.9201190     0.2388570     1.0398190
  C       -2.0282860     0.8425430     0.3372020
  C       -1.4126000    -1.8085370    -0.2310830
  C        2.0871850    -0.8915250     0.0446260
  C       -0.0584500     2.8482670    -0.7690020
  C       -3.0319510    -0.1194250     0.3623450
  C       -2.7230760    -1.4503270     0.0616580
  H        0.9974690    -2.0891180    -1.1576180
  H        1.1650960    -0.0456930     1.7889680
  H        2.8821530     0.3846540     1.5322680
  H       -2.2754030     1.8777800     0.5574090
  H       -1.1609050    -2.8458310    -0.4446670
  H       -0.7945500     3.4046450    -0.1790500
  H       -0.5037450     2.6486950    -1.7485080
  H        0.8332190     3.4662990    -0.8854880
  H       -4.0517820     0.1644530     0.6082680
  H       -3.5008180    -2.2099170     0.0672390
units angstrom
no_reorient  #important for SAPT in psi4, default
symmetry c1  #important for SAPT in psi4, default
}

set PROPERTIES_ORIGIN ["COM"]
properties('MP2/aug-cc-pvtz', properties = ['dipole'])
--------------------------------------------------------------------------

    Molecular point group: c1
  Charge       = 0
  Multiplicity = 1
  Basis Set: AUG-CC-PVTZ
    Blend: AUG-CC-PVTZ
  Basis Set: (AUG-CC-PVTZ AUX)
    Blend: AUG-CC-PVTZ-JKFIT

    Orbital Energies [Eh]
    ---------------------

    Doubly Occupied:

       1A    -20.533016     2A    -15.607419     3A    -15.568917
       4A    -11.363296     5A    -11.314730     6A    -11.304565
       7A    -11.267557     8A    -11.266412     9A    -11.266104
      10A    -11.265764    11A    -11.258562    12A    -11.254201
      13A    -11.234633    14A     -1.387972    15A     -1.275317
      16A     -1.230011    17A     -1.164874    18A     -1.065957
      19A     -1.035323    20A     -1.011078    21A     -0.950548
      22A     -0.886430    23A     -0.858510    24A     -0.795531
      25A     -0.769205    26A     -0.728903    27A     -0.691571
      28A     -0.676449    29A     -0.657900    30A     -0.647450
      31A     -0.626515    32A     -0.617820    33A     -0.605290
      34A     -0.586742    35A     -0.567034    36A     -0.559125
      37A     -0.543223    38A     -0.538093    39A     -0.527931
      40A     -0.514859    41A     -0.458045    42A     -0.444928
      43A     -0.416048    44A     -0.406917    45A     -0.354976
      46A     -0.332454

  @DF-RHF Final Energy:  -568.46365198629746

   => Energetics <=

    Nuclear Repulsion Energy =            760.0973635941193152
    One-Electron Energy =               -2280.2456209203023718
    Two-Electron Energy =                 951.6846053398855929
    Total Energy =                       -568.4636519862974637
  Basis Set: (AUG-CC-PVTZ AUX)
    Blend: AUG-CC-PVTZ-RI
    Molecular point group: c1

    Geometry (in Angstrom), charge = 0, multiplicity = 1:

       Center              X                  Y                   Z               Mass
    ------------   -----------------  -----------------  -----------------  -----------------
         O            3.111368389578    -1.423431109501    -0.217120932202    15.994914619570
         N            0.869911389578    -1.225357109501    -0.592165932202    14.003074004430
         N            1.516969489578     1.515266190499     0.377179067798    14.003074004430
         C           -0.732494610422     0.532590890499     0.030926067798    12.000000000000
         C           -0.427492610422    -0.820198109501    -0.239130932202    12.000000000000
         C            0.298118389578     1.590514890499    -0.086666932202    12.000000000000
         C            1.883732389578     0.263960890499     1.037003067798    12.000000000000
         C           -2.064672610422     0.867646890499     0.334386067798    12.000000000000
         C           -1.448986610422    -1.783433109501    -0.233898932202    12.000000000000
         C            2.050798389578    -0.866421109501     0.041810067798    12.000000000000
         C           -0.094836610422     2.873370890499    -0.771817932202    12.000000000000
         C           -3.068337610422    -0.094321109501     0.359529067798    12.000000000000
         C           -2.759462610422    -1.425223109501     0.058842067798    12.000000000000
         H            0.961082389578    -2.064014109501    -1.160433932202     1.007825032230
         H            1.128709389578    -0.020589109501     1.786152067798     1.007825032230
         H            2.845766389578     0.409757890499     1.529452067798     1.007825032230
         H           -2.311789610422     1.902883890499     0.554593067798     1.007825032230
         H           -1.197291610422    -2.820727109501    -0.447482932202     1.007825032230
         H           -0.830936610422     3.429748890499    -0.181865932202     1.007825032230
         H           -0.540131610422     2.673798890499    -1.751323932202     1.007825032230
         H            0.796832389578     3.491402890499    -0.888303932202     1.007825032230
         H           -4.088168610422     0.189556890499     0.605452067798     1.007825032230
         H           -3.537204610422    -2.184813109501     0.064423067798     1.007825032230

  Basis Set: AUG-CC-PVTZ
    Blend: AUG-CC-PVTZ
  Basis Set: (AUG-CC-PVTZ AUX)
    Blend: AUG-CC-PVTZ-JKFIT
	 Reference Energy          =    -568.4636519862974637 [Eh]
	 Singles Energy            =      -0.0000000000000000 [Eh]
	 Same-Spin Energy          =      -0.6146783565160977 [Eh]
	 Opposite-Spin Energy      =      -1.8879146493025374 [Eh]
	 Correlation Energy        =      -2.5025930058186350 [Eh]
	 Total Energy              =    -570.9662449921161169 [Eh]

	 ================> DF-SCS-MP2 Energies <==================
	-----------------------------------------------------------
	 SCS Same-Spin Scale       =       0.3333333333333333 [-]
	 SCS Opposite-Spin Scale   =       1.2000000000000000 [-]
	 SCS Same-Spin Energy      =      -0.2048927855053659 [Eh]
	 SCS Opposite-Spin Energy  =      -2.2654975791630449 [Eh]
	 SCS Correlation Energy    =      -2.4703903646684107 [Eh]
	 SCS Total Energy          =    -570.9340423509659104 [Eh]
	-----------------------------------------------------------

  Dipole Moment: [D]
     X:    -5.1277      Y:    -0.2798      Z:     0.1465     Total:     5.1374

*** Psi4 exiting successfully. Buy a developer a beer!
