                               Psi4 1.3.2 release

  ==> Input File <==

--------------------------------------------------------------------------
#psi4
#
memory 32 gb

molecule  {
0 1
  O        3.1477550    -1.4485350    -0.2143050
  N        0.9062980    -1.2504610    -0.5893500
  N        1.5545360     1.4658350     0.3351760
  C       -0.6961080     0.5074870     0.0337420
  C       -0.3479290    -1.0368071    -0.2745451
  C        0.3345050     1.5654110    -0.0838510
  C        1.9201190     0.2388570     1.0398190
  C       -2.0282860     0.8425430     0.3372020
  C       -1.4126000    -1.8085370    -0.2310830
  C        2.0871850    -0.8915250     0.0446260
  C       -0.0584500     2.8482670    -0.7690020
  C       -3.0319510    -0.1194250     0.3623450
  C       -2.7230760    -1.4503270     0.0616580
  H        0.9974690    -2.0891180    -1.1576180
  H        1.1650960    -0.0456930     1.7889680
  H        2.8821530     0.3846540     1.5322680
  H       -2.2754030     1.8777800     0.5574090
  H       -1.1609050    -2.8458310    -0.4446670
  H       -0.7945500     3.4046450    -0.1790500
  H       -0.5037450     2.6486950    -1.7485080
  H        0.8332190     3.4662990    -0.8854880
  H       -4.0517820     0.1644530     0.6082680
  H       -3.5008180    -2.2099170     0.0672390
units angstrom
no_reorient  #important for SAPT in psi4, default
symmetry c1  #important for SAPT in psi4, default
}

set PROPERTIES_ORIGIN ["COM"]
properties('MP2/aug-cc-pvtz', properties = ['dipole'])
--------------------------------------------------------------------------

    Molecular point group: c1
  Charge       = 0
  Multiplicity = 1
  Basis Set: AUG-CC-PVTZ
    Blend: AUG-CC-PVTZ
  Basis Set: (AUG-CC-PVTZ AUX)
    Blend: AUG-CC-PVTZ-JKFIT

    Orbital Energies [Eh]
    ---------------------

    Doubly Occupied:

       1A    -20.542996     2A    -15.614332     3A    -15.564702
       4A    -11.373487     5A    -11.316617     6A    -11.301076
       7A    -11.273545     8A    -11.269400     9A    -11.265438
      10A    -11.263689    11A    -11.250370    12A    -11.244578
      13A    -11.232458    14A     -1.399108    15A     -1.300261
      16A     -1.238476    17A     -1.157847    18A     -1.060901
      19A     -1.047283    20A     -0.996137    21A     -0.955369
      22A     -0.895485    23A     -0.857018    24A     -0.806678
      25A     -0.757707    26A     -0.746237    27A     -0.694576
      28A     -0.682450    29A     -0.662979    30A     -0.630303
      31A     -0.623727    32A     -0.617852    33A     -0.615079
      34A     -0.586546    35A     -0.573989    36A     -0.557797
      37A     -0.544666    38A     -0.537327    39A     -0.523606
      40A     -0.489237    41A     -0.466639    42A     -0.453715
      43A     -0.413186    44A     -0.408532    45A     -0.357143
      46A     -0.316325

  @DF-RHF Final Energy:  -568.42064909231453

   => Energetics <=

    Nuclear Repulsion Energy =            759.4680141477955431
    One-Electron Energy =               -2278.8035854075187672
    Two-Electron Energy =                 950.9149221674085766
    Total Energy =                       -568.4206490923145338
  Basis Set: (AUG-CC-PVTZ AUX)
    Blend: AUG-CC-PVTZ-RI
    Molecular point group: c1

    Geometry (in Angstrom), charge = 0, multiplicity = 1:

       Center              X                  Y                   Z               Mass
    ------------   -----------------  -----------------  -----------------  -----------------
         O            3.108297110068    -1.408272971882    -0.210880299956    15.994914619570
         N            0.866840110068    -1.210198971882    -0.585925299956    14.003074004430
         N            1.515078110068     1.506097028118     0.338600700044    14.003074004430
         C           -0.735565889932     0.547749028118     0.037166700044    12.000000000000
         C           -0.387386889932    -0.996545071882    -0.271120399956    12.000000000000
         C            0.295047110068     1.605673028118    -0.080426299956    12.000000000000
         C            1.880661110068     0.279119028118     1.043243700044    12.000000000000
         C           -2.067743889932     0.882805028118     0.340626700044    12.000000000000
         C           -1.452057889932    -1.768274971882    -0.227658299956    12.000000000000
         C            2.047727110068    -0.851262971882     0.048050700044    12.000000000000
         C           -0.097907889932     2.888529028118    -0.765577299956    12.000000000000
         C           -3.071408889932    -0.079162971882     0.365769700044    12.000000000000
         C           -2.762533889932    -1.410064971882     0.065082700044    12.000000000000
         H            0.958011110068    -2.048855971882    -1.154193299956     1.007825032230
         H            1.125638110068    -0.005430971882     1.792392700044     1.007825032230
         H            2.842695110068     0.424916028118     1.535692700044     1.007825032230
         H           -2.314860889932     1.918042028118     0.560833700044     1.007825032230
         H           -1.200362889932    -2.805568971882    -0.441242299956     1.007825032230
         H           -0.834007889932     3.444907028118    -0.175625299956     1.007825032230
         H           -0.543202889932     2.688957028118    -1.745083299956     1.007825032230
         H            0.793761110068     3.506561028118    -0.882063299956     1.007825032230
         H           -4.091239889932     0.204715028118     0.611692700044     1.007825032230
         H           -3.540275889932    -2.169654971882     0.070663700044     1.007825032230

  Basis Set: AUG-CC-PVTZ
    Blend: AUG-CC-PVTZ
  Basis Set: (AUG-CC-PVTZ AUX)
    Blend: AUG-CC-PVTZ-JKFIT
	 Reference Energy          =    -568.4206490923145338 [Eh]
	 Singles Energy            =      -0.0000000000000000 [Eh]
	 Same-Spin Energy          =      -0.6159195892504599 [Eh]
	 Opposite-Spin Energy      =      -1.8905206434263420 [Eh]
	 Correlation Energy        =      -2.5064402326768018 [Eh]
	 Total Energy              =    -570.9270893249913570 [Eh]

	 ================> DF-SCS-MP2 Energies <==================
	-----------------------------------------------------------
	 SCS Same-Spin Scale       =       0.3333333333333333 [-]
	 SCS Opposite-Spin Scale   =       1.2000000000000000 [-]
	 SCS Same-Spin Energy      =      -0.2053065297501533 [Eh]
	 SCS Opposite-Spin Energy  =      -2.2686247721116102 [Eh]
	 SCS Correlation Energy    =      -2.4739313018617635 [Eh]
	 SCS Total Energy          =    -570.8945803941762733 [Eh]
	-----------------------------------------------------------

  Dipole Moment: [D]
     X:    -4.5651      Y:    -0.4078      Z:     0.1833     Total:     4.5869

*** Psi4 exiting successfully. Buy a developer a beer!
