                               Psi4 1.3.2 release

  ==> Input File <==

--------------------------------------------------------------------------
#psi4
#
memory 32 gb

molecule  {
0 1
  O        3.1477550    -1.4485350    -0.2143050
  N        0.9062980    -1.2504610    -0.5893500
  N        1.5545360     1.4658350     0.3351760
  C       -0.6961080     0.5074870     0.0337420
  C       -0.3911060    -0.8453020    -0.2363150
  C        0.3345050     1.5654110    -0.0838510
  C        1.9201190     0.2388570     1.0398190
  C       -2.0282860     0.8425430     0.3372020
  C       -1.4126000    -1.8085370    -0.2310830
  C        2.0871850    -0.8915250     0.0446260
  C       -0.1106177     3.0185756    -0.8599609
  C       -3.0319510    -0.1194250     0.3623450
  C       -2.7230760    -1.4503270     0.0616580
  H        0.9974690    -2.0891180    -1.1576180
  H        1.1650960    -0.0456930     1.7889680
  H        2.8821530     0.3846540     1.5322680
  H       -2.2754030     1.8777800     0.5574090
  H       -1.1609050    -2.8458310    -0.4446670
  H       -0.7945500     3.4046450    -0.1790500
  H       -0.5037450     2.6486950    -1.7485080
  H        0.8332190     3.4662990    -0.8854880
  H       -4.0517820     0.1644530     0.6082680
  H       -3.5008180    -2.2099170     0.0672390
units angstrom
no_reorient  #important for SAPT in psi4, default
symmetry c1  #important for SAPT in psi4, default
}

set PROPERTIES_ORIGIN ["COM"]
properties('MP2/aug-cc-pvtz', properties = ['dipole'])
--------------------------------------------------------------------------

    Molecular point group: c1
  Charge       = 0
  Multiplicity = 1
  Basis Set: AUG-CC-PVTZ
    Blend: AUG-CC-PVTZ
  Basis Set: (AUG-CC-PVTZ AUX)
    Blend: AUG-CC-PVTZ-JKFIT

    Orbital Energies [Eh]
    ---------------------

    Doubly Occupied:

       1A    -20.532147     2A    -15.606938     3A    -15.567510
       4A    -11.362496     5A    -11.314200     6A    -11.307386
       7A    -11.267515     8A    -11.267076     9A    -11.265931
      10A    -11.265335    11A    -11.258296    12A    -11.253840
      13A    -11.235415    14A     -1.387385    15A     -1.274799
      16A     -1.228183    17A     -1.164200    18A     -1.059251
      19A     -1.034347    20A     -1.002366    21A     -0.954936
      22A     -0.887444    23A     -0.858303    24A     -0.794149
      25A     -0.766872    26A     -0.726854    27A     -0.687452
      28A     -0.677442    29A     -0.656732    30A     -0.647054
      31A     -0.627954    32A     -0.610291    33A     -0.606427
      34A     -0.600924    35A     -0.581720    36A     -0.566160
      37A     -0.548405    38A     -0.533163    39A     -0.530302
      40A     -0.491531    41A     -0.459969    42A     -0.444481
      43A     -0.413823    44A     -0.399700    45A     -0.353729
      46A     -0.331976

  @DF-RHF Final Energy:  -568.43863571952386

   => Energetics <=

    Nuclear Repulsion Energy =            756.8549557517220592
    One-Electron Energy =               -2273.7623717009360007
    Two-Electron Energy =                 948.4687802296899690
    Total Energy =                       -568.4386357195238588
  Basis Set: (AUG-CC-PVTZ AUX)
    Blend: AUG-CC-PVTZ-RI
    Molecular point group: c1

    Geometry (in Angstrom), charge = 0, multiplicity = 1:

       Center              X                  Y                   Z               Mass
    ------------   -----------------  -----------------  -----------------  -----------------
         O            3.114869610732    -1.433214272065    -0.207245487816    15.994914619570
         N            0.873412610732    -1.235140272065    -0.582290487816    14.003074004430
         N            1.521650610732     1.481155727935     0.342235512184    14.003074004430
         C           -0.728993389268     0.522807727935     0.040801512184    12.000000000000
         C           -0.423991389268    -0.829981272065    -0.229255487816    12.000000000000
         C            0.301619610732     1.580731727935    -0.076791487816    12.000000000000
         C            1.887233610732     0.254177727935     1.046878512184    12.000000000000
         C           -2.061171389268     0.857863727935     0.344261512184    12.000000000000
         C           -1.445485389268    -1.793216272065    -0.224023487816    12.000000000000
         C            2.054299610732    -0.876204272065     0.051685512184    12.000000000000
         C           -0.143503089268     3.033896327935    -0.852901387816    12.000000000000
         C           -3.064836389268    -0.104104272065     0.369404512184    12.000000000000
         C           -2.755961389268    -1.435006272065     0.068717512184    12.000000000000
         H            0.964583610732    -2.073797272065    -1.150558487816     1.007825032230
         H            1.132210610732    -0.030372272065     1.796027512184     1.007825032230
         H            2.849267610732     0.399974727935     1.539327512184     1.007825032230
         H           -2.308288389268     1.893100727935     0.564468512184     1.007825032230
         H           -1.193790389268    -2.830510272065    -0.437607487816     1.007825032230
         H           -0.827435389268     3.419965727935    -0.171990487816     1.007825032230
         H           -0.536630389268     2.664015727935    -1.741448487816     1.007825032230
         H            0.800333610732     3.481619727935    -0.878428487816     1.007825032230
         H           -4.084667389268     0.179773727935     0.615327512184     1.007825032230
         H           -3.533703389268    -2.194596272065     0.074298512184     1.007825032230

  Basis Set: AUG-CC-PVTZ
    Blend: AUG-CC-PVTZ
  Basis Set: (AUG-CC-PVTZ AUX)
    Blend: AUG-CC-PVTZ-JKFIT
	 Reference Energy          =    -568.4386357195238588 [Eh]
	 Singles Energy            =      -0.0000000000000000 [Eh]
	 Same-Spin Energy          =      -0.6143899233138175 [Eh]
	 Opposite-Spin Energy      =      -1.8883893993407450 [Eh]
	 Correlation Energy        =      -2.5027793226545625 [Eh]
	 Total Energy              =    -570.9414150421783916 [Eh]

	 ================> DF-SCS-MP2 Energies <==================
	-----------------------------------------------------------
	 SCS Same-Spin Scale       =       0.3333333333333333 [-]
	 SCS Opposite-Spin Scale   =       1.2000000000000000 [-]
	 SCS Same-Spin Energy      =      -0.2047966411046058 [Eh]
	 SCS Opposite-Spin Energy  =      -2.2660672792088938 [Eh]
	 SCS Correlation Energy    =      -2.4708639203134997 [Eh]
	 SCS Total Energy          =    -570.9094996398373496 [Eh]
	-----------------------------------------------------------

  Dipole Moment: [D]
     X:    -5.0551      Y:    -0.4042      Z:     0.3021     Total:     5.0803

*** Psi4 exiting successfully. Buy a developer a beer!
