                               Psi4 1.3.2 release

  ==> Input File <==

--------------------------------------------------------------------------
#psi4
#
memory 32 gb

molecule  {
0 1
  O        3.1576631    -1.4357773    -0.2002826
  N        0.9062980    -1.2504610    -0.5893500
  N        1.5545360     1.4658350     0.3351760
  C       -0.6961080     0.5074870     0.0337420
  C       -0.3911060    -0.8453020    -0.2363150
  C        0.3345050     1.5654110    -0.0838510
  C        1.9201190     0.2388570     1.0398190
  C       -2.0282860     0.8425430     0.3372020
  C       -1.4126000    -1.8085370    -0.2310830
  C        2.0871850    -0.8915250     0.0446260
  C       -0.0584500     2.8482670    -0.7690020
  C       -3.0319510    -0.1194250     0.3623450
  C       -2.7230760    -1.4503270     0.0616580
  H        0.9974690    -2.0891180    -1.1576180
  H        1.1650960    -0.0456930     1.7889680
  H        2.8821530     0.3846540     1.5322680
  H       -2.2754030     1.8777800     0.5574090
  H       -1.1609050    -2.8458310    -0.4446670
  H       -0.7945500     3.4046450    -0.1790500
  H       -0.5037450     2.6486950    -1.7485080
  H        0.8332190     3.4662990    -0.8854880
  H       -4.0517820     0.1644530     0.6082680
  H       -3.5008180    -2.2099170     0.0672390
units angstrom
no_reorient  #important for SAPT in psi4, default
symmetry c1  #important for SAPT in psi4, default
}

set PROPERTIES_ORIGIN ["COM"]
properties('MP2/aug-cc-pvtz', properties = ['dipole'])
--------------------------------------------------------------------------

    Molecular point group: c1
  Charge       = 0
  Multiplicity = 1
  Basis Set: AUG-CC-PVTZ
    Blend: AUG-CC-PVTZ
  Basis Set: (AUG-CC-PVTZ AUX)
    Blend: AUG-CC-PVTZ-JKFIT

    Orbital Energies [Eh]
    ---------------------

    Doubly Occupied:

       1A    -20.532466     2A    -15.608061     3A    -15.566789
       4A    -11.362584     5A    -11.314778     6A    -11.302070
       7A    -11.266940     8A    -11.266005     9A    -11.265779
      10A    -11.265572    11A    -11.258545    12A    -11.253950
      13A    -11.234067    14A     -1.387207    15A     -1.276652
      16A     -1.232913    17A     -1.164796    18A     -1.065435
      19A     -1.035396    20A     -1.011166    21A     -0.951201
      22A     -0.885875    23A     -0.858367    24A     -0.795590
      25A     -0.768111    26A     -0.729103    27A     -0.691492
      28A     -0.677655    29A     -0.657587    30A     -0.648468
      31A     -0.626270    32A     -0.618305    33A     -0.604416
      34A     -0.586395    35A     -0.566951    36A     -0.558802
      37A     -0.543553    38A     -0.538863    39A     -0.527845
      40A     -0.515457    41A     -0.457648    42A     -0.445114
      43A     -0.417220    44A     -0.404866    45A     -0.354925
      46A     -0.332616

  @DF-RHF Final Energy:  -568.46542150868095

   => Energetics <=

    Nuclear Repulsion Energy =            760.7110501304787249
    One-Electron Energy =               -2281.4852132612718378
    Two-Electron Energy =                 952.3087416221121657
    Total Energy =                       -568.4654215086809472
  Basis Set: (AUG-CC-PVTZ AUX)
    Blend: AUG-CC-PVTZ-RI
    Molecular point group: c1

    Geometry (in Angstrom), charge = 0, multiplicity = 1:

       Center              X                  Y                   Z               Mass
    ------------   -----------------  -----------------  -----------------  -----------------
         O            3.120271192408    -1.409888717410    -0.200781676303    15.994914619570
         N            0.868906092408    -1.224572417410    -0.589849076303    14.003074004430
         N            1.517144092408     1.491723582590     0.334676923697    14.003074004430
         C           -0.733499907592     0.533375582590     0.033242923697    12.000000000000
         C           -0.428497907592    -0.819413417410    -0.236814076303    12.000000000000
         C            0.297113092408     1.591299582590    -0.084350076303    12.000000000000
         C            1.882727092408     0.264745582590     1.039319923697    12.000000000000
         C           -2.065677907592     0.868431582590     0.336702923697    12.000000000000
         C           -1.449991907592    -1.782648417410    -0.231582076303    12.000000000000
         C            2.049793092408    -0.865636417410     0.044126923697    12.000000000000
         C           -0.095841907592     2.874155582590    -0.769501076303    12.000000000000
         C           -3.069342907592    -0.093536417410     0.361845923697    12.000000000000
         C           -2.760467907592    -1.424438417410     0.061158923697    12.000000000000
         H            0.960077092408    -2.063229417410    -1.158117076303     1.007825032230
         H            1.127704092408    -0.019804417410     1.788468923697     1.007825032230
         H            2.844761092408     0.410542582590     1.531768923697     1.007825032230
         H           -2.312794907592     1.903668582590     0.556909923697     1.007825032230
         H           -1.198296907592    -2.819942417410    -0.445166076303     1.007825032230
         H           -0.831941907592     3.430533582590    -0.179549076303     1.007825032230
         H           -0.541136907592     2.674583582590    -1.749007076303     1.007825032230
         H            0.795827092408     3.492187582590    -0.885987076303     1.007825032230
         H           -4.089173907592     0.190341582590     0.607768923697     1.007825032230
         H           -3.538209907592    -2.184028417410     0.066739923697     1.007825032230

  Basis Set: AUG-CC-PVTZ
    Blend: AUG-CC-PVTZ
  Basis Set: (AUG-CC-PVTZ AUX)
    Blend: AUG-CC-PVTZ-JKFIT
	 Reference Energy          =    -568.4654215086809472 [Eh]
	 Singles Energy            =      -0.0000000000000000 [Eh]
	 Same-Spin Energy          =      -0.6144785301986149 [Eh]
	 Opposite-Spin Energy      =      -1.8872329525885345 [Eh]
	 Correlation Energy        =      -2.5017114827871492 [Eh]
	 Total Energy              =    -570.9671329914681337 [Eh]

	 ================> DF-SCS-MP2 Energies <==================
	-----------------------------------------------------------
	 SCS Same-Spin Scale       =       0.3333333333333333 [-]
	 SCS Opposite-Spin Scale   =       1.2000000000000000 [-]
	 SCS Same-Spin Energy      =      -0.2048261767328716 [Eh]
	 SCS Opposite-Spin Energy  =      -2.2646795431062414 [Eh]
	 SCS Correlation Energy    =      -2.4695057198391130 [Eh]
	 SCS Total Energy          =    -570.9349272285201096 [Eh]
	-----------------------------------------------------------

  Dipole Moment: [D]
     X:    -5.1392      Y:    -0.2746      Z:     0.1969     Total:     5.1503

*** Psi4 exiting successfully. Buy a developer a beer!
