                               Psi4 1.3.2 release

  ==> Input File <==

--------------------------------------------------------------------------
#psi4
#
memory 32 gb

molecule  {
0 1
  O        3.1477550    -1.4485350    -0.2143050
  N        0.9062980    -1.2504610    -0.5893500
  N        1.5545360     1.4658350     0.3351760
  C       -0.6961080     0.5074870     0.0337420
  C       -0.3911060    -0.8453020    -0.2363150
  C        0.3345050     1.5654110    -0.0838510
  C        1.9201190     0.2388570     1.0398190
  C       -2.0282860     0.8425430     0.3372020
  C       -1.4126000    -1.8085370    -0.2310830
  C        2.0758564    -0.8725449     0.0545189
  C       -0.0584500     2.8482670    -0.7690020
  C       -3.0319510    -0.1194250     0.3623450
  C       -2.7230760    -1.4503270     0.0616580
  H        0.9974690    -2.0891180    -1.1576180
  H        1.1650960    -0.0456930     1.7889680
  H        2.8821530     0.3846540     1.5322680
  H       -2.2754030     1.8777800     0.5574090
  H       -1.1609050    -2.8458310    -0.4446670
  H       -0.7945500     3.4046450    -0.1790500
  H       -0.5037450     2.6486950    -1.7485080
  H        0.8332190     3.4662990    -0.8854880
  H       -4.0517820     0.1644530     0.6082680
  H       -3.5008180    -2.2099170     0.0672390
units angstrom
no_reorient  #important for SAPT in psi4, default
symmetry c1  #important for SAPT in psi4, default
}

set PROPERTIES_ORIGIN ["COM"]
properties('MP2/aug-cc-pvtz', properties = ['dipole'])
--------------------------------------------------------------------------

    Molecular point group: c1
  Charge       = 0
  Multiplicity = 1
  Basis Set: AUG-CC-PVTZ
    Blend: AUG-CC-PVTZ
  Basis Set: (AUG-CC-PVTZ AUX)
    Blend: AUG-CC-PVTZ-JKFIT

    Orbital Energies [Eh]
    ---------------------

    Doubly Occupied:

       1A    -20.529476     2A    -15.608562     3A    -15.568205
       4A    -11.364055     5A    -11.314661     6A    -11.303671
       7A    -11.267932     8A    -11.267506     9A    -11.266319
      10A    -11.266029    11A    -11.258689    12A    -11.254256
      13A    -11.234984    14A     -1.375978    15A     -1.274670
      16A     -1.234098    17A     -1.164995    18A     -1.067219
      19A     -1.036220    20A     -1.012622    21A     -0.955560
      22A     -0.886425    23A     -0.858136    24A     -0.796924
      25A     -0.769292    26A     -0.729544    27A     -0.692348
      28A     -0.678238    29A     -0.657937    30A     -0.648893
      31A     -0.626079    32A     -0.618545    33A     -0.602986
      34A     -0.586542    35A     -0.564589    36A     -0.559542
      37A     -0.544362    38A     -0.539301    39A     -0.525918
      40A     -0.516144    41A     -0.455181    42A     -0.441433
      43A     -0.418743    44A     -0.407616    45A     -0.355971
      46A     -0.332357

  @DF-RHF Final Energy:  -568.46273174099451

   => Energetics <=

    Nuclear Repulsion Energy =            760.8703905800964549
    One-Electron Energy =               -2281.7887363544509753
    Two-Electron Energy =                 952.4556140333600069
    Total Energy =                       -568.4627317409945135
  Basis Set: (AUG-CC-PVTZ AUX)
    Blend: AUG-CC-PVTZ-RI
    Molecular point group: c1

    Geometry (in Angstrom), charge = 0, multiplicity = 1:

       Center              X                  Y                   Z               Mass
    ------------   -----------------  -----------------  -----------------  -----------------
         O            3.112054404308    -1.422782578780    -0.214197615438    15.994914619570
         N            0.870597404308    -1.224708578780    -0.589242615438    14.003074004430
         N            1.518835404308     1.491587421220     0.335283384562    14.003074004430
         C           -0.731808595692     0.533239421220     0.033849384562    12.000000000000
         C           -0.426806595692    -0.819549578780    -0.236207615438    12.000000000000
         C            0.298804404308     1.591163421220    -0.083743615438    12.000000000000
         C            1.884418404308     0.264609421220     1.039926384562    12.000000000000
         C           -2.063986595692     0.868295421220     0.337309384562    12.000000000000
         C           -1.448300595692    -1.782784578780    -0.230975615438    12.000000000000
         C            2.040155804308    -0.846792478780     0.054626284562    12.000000000000
         C           -0.094150595692     2.874019421220    -0.768894615438    12.000000000000
         C           -3.067651595692    -0.093672578780     0.362452384562    12.000000000000
         C           -2.758776595692    -1.424574578780     0.061765384562    12.000000000000
         H            0.961768404308    -2.063365578780    -1.157510615438     1.007825032230
         H            1.129395404308    -0.019940578780     1.789075384562     1.007825032230
         H            2.846452404308     0.410406421220     1.532375384562     1.007825032230
         H           -2.311103595692     1.903532421220     0.557516384562     1.007825032230
         H           -1.196605595692    -2.820078578780    -0.444559615438     1.007825032230
         H           -0.830250595692     3.430397421220    -0.178942615438     1.007825032230
         H           -0.539445595692     2.674447421220    -1.748400615438     1.007825032230
         H            0.797518404308     3.492051421220    -0.885380615438     1.007825032230
         H           -4.087482595692     0.190205421220     0.608375384562     1.007825032230
         H           -3.536518595692    -2.184164578780     0.067346384562     1.007825032230

  Basis Set: AUG-CC-PVTZ
    Blend: AUG-CC-PVTZ
  Basis Set: (AUG-CC-PVTZ AUX)
    Blend: AUG-CC-PVTZ-JKFIT
	 Reference Energy          =    -568.4627317409945135 [Eh]
	 Singles Energy            =      -0.0000000000000000 [Eh]
	 Same-Spin Energy          =      -0.6150172421710756 [Eh]
	 Opposite-Spin Energy      =      -1.8882503284768815 [Eh]
	 Correlation Energy        =      -2.5032675706479570 [Eh]
	 Total Energy              =    -570.9659993116424630 [Eh]

	 ================> DF-SCS-MP2 Energies <==================
	-----------------------------------------------------------
	 SCS Same-Spin Scale       =       0.3333333333333333 [-]
	 SCS Opposite-Spin Scale   =       1.2000000000000000 [-]
	 SCS Same-Spin Energy      =      -0.2050057473903585 [Eh]
	 SCS Opposite-Spin Energy  =      -2.2659003941722577 [Eh]
	 SCS Correlation Energy    =      -2.4709061415626161 [Eh]
	 SCS Total Energy          =    -570.9336378825571501 [Eh]
	-----------------------------------------------------------

  Dipole Moment: [D]
     X:    -5.2305      Y:    -0.1529      Z:     0.2609     Total:     5.2392

*** Psi4 exiting successfully. Buy a developer a beer!
