                               Psi4 1.3.2 release

  ==> Input File <==

--------------------------------------------------------------------------
#psi4
#
memory 32 gb

molecule  {
0 1
  O        3.1477550    -1.4485350    -0.2143050
  N        0.9062980    -1.2504610    -0.5893500
  N        1.5545360     1.4658350     0.3351760
  C       -0.6961080     0.5074870     0.0337420
  C       -0.4863746    -0.8661146    -0.2216513
  C        0.3345050     1.5654110    -0.0838510
  C        1.9201190     0.2388570     1.0398190
  C       -2.0282860     0.8425430     0.3372020
  C       -1.4126000    -1.8085370    -0.2310830
  C        2.0871850    -0.8915250     0.0446260
  C       -0.0584500     2.8482670    -0.7690020
  C       -3.0319510    -0.1194250     0.3623450
  C       -2.7230760    -1.4503270     0.0616580
  H        0.9974690    -2.0891180    -1.1576180
  H        1.1650960    -0.0456930     1.7889680
  H        2.8821530     0.3846540     1.5322680
  H       -2.2754030     1.8777800     0.5574090
  H       -1.1609050    -2.8458310    -0.4446670
  H       -0.7945500     3.4046450    -0.1790500
  H       -0.5037450     2.6486950    -1.7485080
  H        0.8332190     3.4662990    -0.8854880
  H       -4.0517820     0.1644530     0.6082680
  H       -3.5008180    -2.2099170     0.0672390
units angstrom
no_reorient  #important for SAPT in psi4, default
symmetry c1  #important for SAPT in psi4, default
}

set PROPERTIES_ORIGIN ["COM"]
properties('MP2/aug-cc-pvtz', properties = ['dipole'])
--------------------------------------------------------------------------

    Molecular point group: c1
  Charge       = 0
  Multiplicity = 1
  Basis Set: AUG-CC-PVTZ
    Blend: AUG-CC-PVTZ
  Basis Set: (AUG-CC-PVTZ AUX)
    Blend: AUG-CC-PVTZ-JKFIT

    Orbital Energies [Eh]
    ---------------------

    Doubly Occupied:

       1A    -20.526372     2A    -15.598238     3A    -15.568256
       4A    -11.357395     5A    -11.310176     6A    -11.304700
       7A    -11.269822     8A    -11.268351     9A    -11.268238
      10A    -11.265160    11A    -11.256648    12A    -11.252742
      13A    -11.235590    14A     -1.380318    15A     -1.263361
      16A     -1.224758    17A     -1.171194    18A     -1.069170
      19A     -1.045085    20A     -1.011902    21A     -0.950054
      22A     -0.888208    23A     -0.851592    24A     -0.790693
      25A     -0.772329    26A     -0.719869    27A     -0.685928
      28A     -0.675372    29A     -0.660313    30A     -0.649204
      31A     -0.629924    32A     -0.616862    33A     -0.597669
      34A     -0.586951    35A     -0.562556    36A     -0.559099
      37A     -0.547239    38A     -0.535992    39A     -0.530469
      40A     -0.519756    41A     -0.452921    42A     -0.435689
      43A     -0.419623    44A     -0.404857    45A     -0.358516
      46A     -0.341204

  @DF-RHF Final Energy:  -568.45414909589317

   => Energetics <=

    Nuclear Repulsion Energy =            760.4079544300363978
    One-Electron Energy =               -2280.9434821406853189
    Two-Electron Energy =                 952.0813786147557494
    Total Energy =                       -568.4541490958931718
  Basis Set: (AUG-CC-PVTZ AUX)
    Blend: AUG-CC-PVTZ-RI
    Molecular point group: c1

    Geometry (in Angstrom), charge = 0, multiplicity = 1:

       Center              X                  Y                   Z               Mass
    ------------   -----------------  -----------------  -----------------  -----------------
         O            3.117840732293    -1.420039504994    -0.214526486221    15.994914619570
         N            0.876383732293    -1.221965504994    -0.589571486221    14.003074004430
         N            1.524621732293     1.494330495006     0.334954513779    14.003074004430
         C           -0.726022267707     0.535982495006     0.033520513779    12.000000000000
         C           -0.516288867707    -0.837619104994    -0.221872786221    12.000000000000
         C            0.304590732293     1.593906495006    -0.084072486221    12.000000000000
         C            1.890204732293     0.267352495006     1.039597513779    12.000000000000
         C           -2.058200267707     0.871038495006     0.336980513779    12.000000000000
         C           -1.442514267707    -1.780041504994    -0.231304486221    12.000000000000
         C            2.057270732293    -0.863029504994     0.044404513779    12.000000000000
         C           -0.088364267707     2.876762495006    -0.769223486221    12.000000000000
         C           -3.061865267707    -0.090929504994     0.362123513779    12.000000000000
         C           -2.752990267707    -1.421831504994     0.061436513779    12.000000000000
         H            0.967554732293    -2.060622504994    -1.157839486221     1.007825032230
         H            1.135181732293    -0.017197504994     1.788746513779     1.007825032230
         H            2.852238732293     0.413149495006     1.532046513779     1.007825032230
         H           -2.305317267707     1.906275495006     0.557187513779     1.007825032230
         H           -1.190819267707    -2.817335504994    -0.444888486221     1.007825032230
         H           -0.824464267707     3.433140495006    -0.179271486221     1.007825032230
         H           -0.533659267707     2.677190495006    -1.748729486221     1.007825032230
         H            0.803304732293     3.494794495006    -0.885709486221     1.007825032230
         H           -4.081696267707     0.192948495006     0.608046513779     1.007825032230
         H           -3.530732267707    -2.181421504994     0.067017513779     1.007825032230

  Basis Set: AUG-CC-PVTZ
    Blend: AUG-CC-PVTZ
  Basis Set: (AUG-CC-PVTZ AUX)
    Blend: AUG-CC-PVTZ-JKFIT
	 Reference Energy          =    -568.4541490958931718 [Eh]
	 Singles Energy            =      -0.0000000000000000 [Eh]
	 Same-Spin Energy          =      -0.6139881968938796 [Eh]
	 Opposite-Spin Energy      =      -1.8872372729177473 [Eh]
	 Correlation Energy        =      -2.5012254698116267 [Eh]
	 Total Energy              =    -570.9553745657048012 [Eh]

	 ================> DF-SCS-MP2 Energies <==================
	-----------------------------------------------------------
	 SCS Same-Spin Scale       =       0.3333333333333333 [-]
	 SCS Opposite-Spin Scale   =       1.2000000000000000 [-]
	 SCS Same-Spin Energy      =      -0.2046627322979599 [Eh]
	 SCS Opposite-Spin Energy  =      -2.2646847275012969 [Eh]
	 SCS Correlation Energy    =      -2.4693474597992568 [Eh]
	 SCS Total Energy          =    -570.9234965556923953 [Eh]
	-----------------------------------------------------------

  Dipole Moment: [D]
     X:    -5.5228      Y:    -0.1378      Z:     0.3107     Total:     5.5333

*** Psi4 exiting successfully. Buy a developer a beer!
