                               Psi4 1.3.2 release

  ==> Input File <==

--------------------------------------------------------------------------
#psi4
#
memory 32 gb

molecule  {
0 1
  O        3.1477550    -1.4485350    -0.2143050
  N        0.9062980    -1.2504610    -0.5893500
  N        1.5545360     1.4658350     0.3351760
  C       -0.6961080     0.5074870     0.0337420
  C       -0.3911060    -0.8453020    -0.2363150
  C        0.3191689     1.4835576    -0.0489186
  C        1.9201190     0.2388570     1.0398190
  C       -2.0282860     0.8425430     0.3372020
  C       -1.4126000    -1.8085370    -0.2310830
  C        2.0871850    -0.8915250     0.0446260
  C       -0.0584500     2.8482670    -0.7690020
  C       -3.0319510    -0.1194250     0.3623450
  C       -2.7230760    -1.4503270     0.0616580
  H        0.9974690    -2.0891180    -1.1576180
  H        1.1650960    -0.0456930     1.7889680
  H        2.8821530     0.3846540     1.5322680
  H       -2.2754030     1.8777800     0.5574090
  H       -1.1609050    -2.8458310    -0.4446670
  H       -0.7945500     3.4046450    -0.1790500
  H       -0.5037450     2.6486950    -1.7485080
  H        0.8332190     3.4662990    -0.8854880
  H       -4.0517820     0.1644530     0.6082680
  H       -3.5008180    -2.2099170     0.0672390
units angstrom
no_reorient  #important for SAPT in psi4, default
symmetry c1  #important for SAPT in psi4, default
}

set PROPERTIES_ORIGIN ["COM"]
properties('MP2/aug-cc-pvtz', properties = ['dipole'])
--------------------------------------------------------------------------

    Molecular point group: c1
  Charge       = 0
  Multiplicity = 1
  Basis Set: AUG-CC-PVTZ
    Blend: AUG-CC-PVTZ
  Basis Set: (AUG-CC-PVTZ AUX)
    Blend: AUG-CC-PVTZ-JKFIT

    Orbital Energies [Eh]
    ---------------------

    Doubly Occupied:

       1A    -20.532571     2A    -15.609014     3A    -15.568484
       4A    -11.362790     5A    -11.317237     6A    -11.299666
       7A    -11.270250     8A    -11.268715     9A    -11.264616
      10A    -11.263892    11A    -11.260045    12A    -11.255999
      13A    -11.233473    14A     -1.388092    15A     -1.279761
      16A     -1.234662    17A     -1.168352    18A     -1.070694
      19A     -1.036766    20A     -1.002370    21A     -0.944026
      22A     -0.895672    23A     -0.860896    24A     -0.799694
      25A     -0.771458    26A     -0.731708    27A     -0.691342
      28A     -0.679097    29A     -0.660703    30A     -0.649129
      31A     -0.627587    32A     -0.613058    33A     -0.605067
      34A     -0.578825    35A     -0.569068    36A     -0.555508
      37A     -0.547370    38A     -0.536848    39A     -0.529221
      40A     -0.503960    41A     -0.459546    42A     -0.446047
      43A     -0.420427    44A     -0.409719    45A     -0.354596
      46A     -0.334517

  @DF-RHF Final Energy:  -568.45558809765691

   => Energetics <=

    Nuclear Repulsion Energy =            761.8687364644055151
    One-Electron Energy =               -2283.7235741379704450
    Two-Electron Energy =                 953.3992495759079020
    Total Energy =                       -568.4555880976569142
  Basis Set: (AUG-CC-PVTZ AUX)
    Blend: AUG-CC-PVTZ-RI
    Molecular point group: c1

    Geometry (in Angstrom), charge = 0, multiplicity = 1:

       Center              X                  Y                   Z               Mass
    ------------   -----------------  -----------------  -----------------  -----------------
         O            3.112330657697    -1.415831712652    -0.215923690725    15.994914619570
         N            0.870873657697    -1.217757712652    -0.590968690725    14.003074004430
         N            1.519111657697     1.498538287348     0.333557309275    14.003074004430
         C           -0.731532342303     0.540190287348     0.032123309275    12.000000000000
         C           -0.426530342303    -0.812598712652    -0.237933690725    12.000000000000
         C            0.283744557697     1.516260887348    -0.050537290725    12.000000000000
         C            1.884694657697     0.271560287348     1.038200309275    12.000000000000
         C           -2.063710342303     0.875246287348     0.335583309275    12.000000000000
         C           -1.448024342303    -1.775833712652    -0.232701690725    12.000000000000
         C            2.051760657697    -0.858821712652     0.043007309275    12.000000000000
         C           -0.093874342303     2.880970287348    -0.770620690725    12.000000000000
         C           -3.067375342303    -0.086721712652     0.360726309275    12.000000000000
         C           -2.758500342303    -1.417623712652     0.060039309275    12.000000000000
         H            0.962044657697    -2.056414712652    -1.159236690725     1.007825032230
         H            1.129671657697    -0.012989712652     1.787349309275     1.007825032230
         H            2.846728657697     0.417357287348     1.530649309275     1.007825032230
         H           -2.310827342303     1.910483287348     0.555790309275     1.007825032230
         H           -1.196329342303    -2.813127712652    -0.446285690725     1.007825032230
         H           -0.829974342303     3.437348287348    -0.180668690725     1.007825032230
         H           -0.539169342303     2.681398287348    -1.750126690725     1.007825032230
         H            0.797794657697     3.499002287348    -0.887106690725     1.007825032230
         H           -4.087206342303     0.197156287348     0.606649309275     1.007825032230
         H           -3.536242342303    -2.177213712652     0.065620309275     1.007825032230

  Basis Set: AUG-CC-PVTZ
    Blend: AUG-CC-PVTZ
  Basis Set: (AUG-CC-PVTZ AUX)
    Blend: AUG-CC-PVTZ-JKFIT
	 Reference Energy          =    -568.4555880976569142 [Eh]
	 Singles Energy            =      -0.0000000000000000 [Eh]
	 Same-Spin Energy          =      -0.6153102239769429 [Eh]
	 Opposite-Spin Energy      =      -1.8887598347875281 [Eh]
	 Correlation Energy        =      -2.5040700587644711 [Eh]
	 Total Energy              =    -570.9596581564213693 [Eh]

	 ================> DF-SCS-MP2 Energies <==================
	-----------------------------------------------------------
	 SCS Same-Spin Scale       =       0.3333333333333333 [-]
	 SCS Opposite-Spin Scale   =       1.2000000000000000 [-]
	 SCS Same-Spin Energy      =      -0.2051034079923143 [Eh]
	 SCS Opposite-Spin Energy  =      -2.2665118017450334 [Eh]
	 SCS Correlation Energy    =      -2.4716152097373478 [Eh]
	 SCS Total Energy          =    -570.9272033073942794 [Eh]
	-----------------------------------------------------------

  Dipole Moment: [D]
     X:    -5.1832      Y:    -0.5275      Z:     0.3200     Total:     5.2198

*** Psi4 exiting successfully. Buy a developer a beer!
