                               Psi4 1.3.2 release

  ==> Input File <==

--------------------------------------------------------------------------
#psi4
#
memory 32 gb

molecule  {
0 1
  O        3.1477550    -1.4485350    -0.2143050
  N        0.9062980    -1.2504610    -0.5893500
  N        1.5545360     1.4658350     0.3351760
  C       -0.6961080     0.5074870     0.0337420
  C       -0.4834943    -0.8164506    -0.2111753
  C        0.3345050     1.5654110    -0.0838510
  C        1.9201190     0.2388570     1.0398190
  C       -2.0282860     0.8425430     0.3372020
  C       -1.4126000    -1.8085370    -0.2310830
  C        2.0871850    -0.8915250     0.0446260
  C       -0.0584500     2.8482670    -0.7690020
  C       -3.0319510    -0.1194250     0.3623450
  C       -2.7230760    -1.4503270     0.0616580
  H        0.9974690    -2.0891180    -1.1576180
  H        1.1650960    -0.0456930     1.7889680
  H        2.8821530     0.3846540     1.5322680
  H       -2.2754030     1.8777800     0.5574090
  H       -1.1609050    -2.8458310    -0.4446670
  H       -0.7945500     3.4046450    -0.1790500
  H       -0.5037450     2.6486950    -1.7485080
  H        0.8332190     3.4662990    -0.8854880
  H       -4.0517820     0.1644530     0.6082680
  H       -3.5008180    -2.2099170     0.0672390
units angstrom
no_reorient  #important for SAPT in psi4, default
symmetry c1  #important for SAPT in psi4, default
}

set PROPERTIES_ORIGIN ["COM"]
properties('MP2/aug-cc-pvtz', properties = ['dipole'])
--------------------------------------------------------------------------

    Molecular point group: c1
  Charge       = 0
  Multiplicity = 1
  Basis Set: AUG-CC-PVTZ
    Blend: AUG-CC-PVTZ
  Basis Set: (AUG-CC-PVTZ AUX)
    Blend: AUG-CC-PVTZ-JKFIT

    Orbital Energies [Eh]
    ---------------------

    Doubly Occupied:

       1A    -20.524879     2A    -15.597450     3A    -15.568840
       4A    -11.355652     5A    -11.310663     6A    -11.304913
       7A    -11.268909     8A    -11.267890     9A    -11.265323
      10A    -11.264967    11A    -11.257922    12A    -11.257063
      13A    -11.235954    14A     -1.378972    15A     -1.263649
      16A     -1.222532    17A     -1.171842    18A     -1.070912
      19A     -1.040553    20A     -1.016205    21A     -0.949793
      22A     -0.885964    23A     -0.855079    24A     -0.788796
      25A     -0.773532    26A     -0.717967    27A     -0.685525
      28A     -0.674477    29A     -0.660421    30A     -0.652937
      31A     -0.629152    32A     -0.616800    33A     -0.596069
      34A     -0.587069    35A     -0.561098    36A     -0.559586
      37A     -0.546807    38A     -0.536019    39A     -0.531057
      40A     -0.523114    41A     -0.452273    42A     -0.433558
      43A     -0.419557    44A     -0.403766    45A     -0.357938
      46A     -0.344277

  @DF-RHF Final Energy:  -568.45521817442159

   => Energetics <=

    Nuclear Repulsion Energy =            760.8158465971434907
    One-Electron Energy =               -2281.7666830933658275
    Two-Electron Energy =                 952.4956183218007482
    Total Energy =                       -568.4552181744215886
  Basis Set: (AUG-CC-PVTZ AUX)
    Blend: AUG-CC-PVTZ-RI
    Molecular point group: c1

    Geometry (in Angstrom), charge = 0, multiplicity = 1:

       Center              X                  Y                   Z               Mass
    ------------   -----------------  -----------------  -----------------  -----------------
         O            3.117642181417    -1.423463047918    -0.215248639807    15.994914619570
         N            0.876185181417    -1.225389047918    -0.590293639807    14.003074004430
         N            1.524423181417     1.490906952082     0.334232360193    14.003074004430
         C           -0.726220818583     0.532558952082     0.032798360193    12.000000000000
         C           -0.513607118583    -0.791378647918    -0.212118939807    12.000000000000
         C            0.304392181417     1.590482952082    -0.084794639807    12.000000000000
         C            1.890006181417     0.263928952082     1.038875360193    12.000000000000
         C           -2.058398818583     0.867614952082     0.336258360193    12.000000000000
         C           -1.442712818583    -1.783465047918    -0.232026639807    12.000000000000
         C            2.057072181417    -0.866453047918     0.043682360193    12.000000000000
         C           -0.088562818583     2.873338952082    -0.769945639807    12.000000000000
         C           -3.062063818583    -0.094353047918     0.361401360193    12.000000000000
         C           -2.753188818583    -1.425255047918     0.060714360193    12.000000000000
         H            0.967356181417    -2.064046047918    -1.158561639807     1.007825032230
         H            1.134983181417    -0.020621047918     1.788024360193     1.007825032230
         H            2.852040181417     0.409725952082     1.531324360193     1.007825032230
         H           -2.305515818583     1.902851952082     0.556465360193     1.007825032230
         H           -1.191017818583    -2.820759047918    -0.445610639807     1.007825032230
         H           -0.824662818583     3.429716952082    -0.179993639807     1.007825032230
         H           -0.533857818583     2.673766952082    -1.749451639807     1.007825032230
         H            0.803106181417     3.491370952082    -0.886431639807     1.007825032230
         H           -4.081894818583     0.189524952082     0.607324360193     1.007825032230
         H           -3.530930818583    -2.184845047918     0.066295360193     1.007825032230

  Basis Set: AUG-CC-PVTZ
    Blend: AUG-CC-PVTZ
  Basis Set: (AUG-CC-PVTZ AUX)
    Blend: AUG-CC-PVTZ-JKFIT
	 Reference Energy          =    -568.4552181744215886 [Eh]
	 Singles Energy            =      -0.0000000000000000 [Eh]
	 Same-Spin Energy          =      -0.6139131044009206 [Eh]
	 Opposite-Spin Energy      =      -1.8871706513960846 [Eh]
	 Correlation Energy        =      -2.5010837557970054 [Eh]
	 Total Energy              =    -570.9563019302186149 [Eh]

	 ================> DF-SCS-MP2 Energies <==================
	-----------------------------------------------------------
	 SCS Same-Spin Scale       =       0.3333333333333333 [-]
	 SCS Opposite-Spin Scale   =       1.2000000000000000 [-]
	 SCS Same-Spin Energy      =      -0.2046377014669735 [Eh]
	 SCS Opposite-Spin Energy  =      -2.2646047816753017 [Eh]
	 SCS Correlation Energy    =      -2.4692424831422750 [Eh]
	 SCS Total Energy          =    -570.9244606575638272 [Eh]
	-----------------------------------------------------------

  Dipole Moment: [D]
     X:    -5.5863      Y:    -0.1040      Z:     0.3113     Total:     5.5960

*** Psi4 exiting successfully. Buy a developer a beer!
