                               Psi4 1.4a3.dev225

  ==> Input File <==

--------------------------------------------------------------------------
#psi4
#
memory 32 gb

molecule  {
0 1
  O        3.1477550    -1.4485350    -0.2143050
  N        0.9062980    -1.2504610    -0.5893500
  N        1.5545360     1.4658350     0.3351760
  C       -0.6961080     0.5074870     0.0337420
  C       -0.3911060    -0.8453020    -0.2363150
  C        0.3692850     1.6011126    -0.0878194
  C        1.9201190     0.2388570     1.0398190
  C       -2.0282860     0.8425430     0.3372020
  C       -1.4126000    -1.8085370    -0.2310830
  C        2.0871850    -0.8915250     0.0446260
  C       -0.0584500     2.8482670    -0.7690020
  C       -3.0319510    -0.1194250     0.3623450
  C       -2.7230760    -1.4503270     0.0616580
  H        0.9974690    -2.0891180    -1.1576180
  H        1.1650960    -0.0456930     1.7889680
  H        2.8821530     0.3846540     1.5322680
  H       -2.2754030     1.8777800     0.5574090
  H       -1.1609050    -2.8458310    -0.4446670
  H       -0.7945500     3.4046450    -0.1790500
  H       -0.5037450     2.6486950    -1.7485080
  H        0.8332190     3.4662990    -0.8854880
  H       -4.0517820     0.1644530     0.6082680
  H       -3.5008180    -2.2099170     0.0672390
units angstrom
no_reorient  #important for SAPT in psi4, default
symmetry c1  #important for SAPT in psi4, default
}

set PROPERTIES_ORIGIN ["COM"]
properties('MP2/aug-cc-pvtz', properties = ['dipole'])
--------------------------------------------------------------------------

    Molecular point group: c1
  Charge       = 0
  Multiplicity = 1
  Basis Set: AUG-CC-PVTZ
    Blend: AUG-CC-PVTZ
  Basis Set: (AUG-CC-PVTZ AUX)
    Blend: AUG-CC-PVTZ-JKFIT

    Orbital Energies [Eh]
    ---------------------

    Doubly Occupied:

       1A    -20.532734     2A    -15.606168     3A    -15.565076
       4A    -11.363192     5A    -11.311847     6A    -11.301813
       7A    -11.269731     8A    -11.266538     9A    -11.263809
      10A    -11.263072    11A    -11.256787    12A    -11.252215
      13A    -11.234007    14A     -1.387837    15A     -1.276686
      16A     -1.240009    17A     -1.162058    18A     -1.062281
      19A     -1.034535    20A     -1.013351    21A     -0.958043
      22A     -0.879469    23A     -0.856070    24A     -0.793800
      25A     -0.764963    26A     -0.726973    27A     -0.692657
      28A     -0.678246    29A     -0.655958    30A     -0.647329
      31A     -0.625287    32A     -0.622738    33A     -0.605353
      34A     -0.588958    35A     -0.566524    36A     -0.557871
      37A     -0.548706    38A     -0.537026    39A     -0.527063
      40A     -0.515044    41A     -0.460194    42A     -0.443977
      43A     -0.416243    44A     -0.404500    45A     -0.355731
      46A     -0.330699

  @DF-RHF Final Energy:  -568.46583135532580

   => Energetics <=

    Nuclear Repulsion Energy =            760.3712527143143234
    One-Electron Energy =               -2280.8278260879055779
    Two-Electron Energy =                 951.9907420182654505
    Total Energy =                       -568.4658313553258040
  Basis Set: (AUG-CC-PVTZ AUX)
    Blend: AUG-CC-PVTZ-RI
    Molecular point group: c1

    Geometry (in Angstrom), charge = 0, multiplicity = 1:

       Center              X                  Y                   Z               Mass
    ------------   -----------------  -----------------  -----------------  -----------------
         O            3.108875949668    -1.423935260260    -0.213242099259    15.994914619570
         N            0.867418949668    -1.225861260260    -0.588287099259    14.003074004430
         N            1.515656949668     1.490434739740     0.336238900741    14.003074004430
         C           -0.734987050332     0.532086739740     0.034804900741    12.000000000000
         C           -0.429985050332    -0.820702260260    -0.235252099259    12.000000000000
         C            0.330405949668     1.625712339740    -0.086756499259    12.000000000000
         C            1.881239949668     0.263456739740     1.040881900741    12.000000000000
         C           -2.067165050332     0.867142739740     0.338264900741    12.000000000000
         C           -1.451479050332    -1.783937260260    -0.230020099259    12.000000000000
         C            2.048305949668    -0.866925260260     0.045688900741    12.000000000000
         C           -0.097329050332     2.872866739740    -0.767939099259    12.000000000000
         C           -3.070830050332    -0.094825260260     0.363407900741    12.000000000000
         C           -2.761955050332    -1.425727260260     0.062720900741    12.000000000000
         H            0.958589949668    -2.064518260260    -1.156555099259     1.007825032230
         H            1.126216949668    -0.021093260260     1.790030900741     1.007825032230
         H            2.843273949668     0.409253739740     1.533330900741     1.007825032230
         H           -2.314282050332     1.902379739740     0.558471900741     1.007825032230
         H           -1.199784050332    -2.821231260260    -0.443604099259     1.007825032230
         H           -0.833429050332     3.429244739740    -0.177987099259     1.007825032230
         H           -0.542624050332     2.673294739740    -1.747445099259     1.007825032230
         H            0.794339949668     3.490898739740    -0.884425099259     1.007825032230
         H           -4.090661050332     0.189052739740     0.609330900741     1.007825032230
         H           -3.539697050332    -2.185317260260     0.068301900741     1.007825032230

  Basis Set: AUG-CC-PVTZ
    Blend: AUG-CC-PVTZ
  Basis Set: (AUG-CC-PVTZ AUX)
    Blend: AUG-CC-PVTZ-JKFIT
	 Reference Energy          =    -568.4658313553258040 [Eh]
	 Singles Energy            =      -0.0000000000000000 [Eh]
	 Same-Spin Energy          =      -0.6135730700266189 [Eh]
	 Opposite-Spin Energy      =      -1.8855210792507147 [Eh]
	 Correlation Energy        =      -2.4990941492773335 [Eh]
	 Total Energy              =    -570.9649255046031158 [Eh]

	 ================> DF-SCS-MP2 Energies <==================
	-----------------------------------------------------------
	 SCS Same-Spin Scale       =       0.3333333333333333 [-]
	 SCS Opposite-Spin Scale   =       1.2000000000000000 [-]
	 SCS Same-Spin Energy      =      -0.2045243566755396 [Eh]
	 SCS Opposite-Spin Energy  =      -2.2626252951008574 [Eh]
	 SCS Correlation Energy    =      -2.4671496517763969 [Eh]
	 SCS Total Energy          =    -570.9329810071021711 [Eh]
	-----------------------------------------------------------

  Dipole Moment: [D]
     X:    -5.0030      Y:    -0.1003      Z:     0.2131     Total:     5.0085

*** Psi4 exiting successfully. Buy a developer a beer!
