                               Psi4 1.4a3.dev225

  ==> Input File <==

--------------------------------------------------------------------------
#psi4
#
memory 32 gb

molecule  {
0 1
  O        3.1477550    -1.4485350    -0.2143050
  N        0.9062980    -1.2504610    -0.5893500
  N        1.5545360     1.4658350     0.3351760
  C       -0.6961080     0.5074870     0.0337420
  C       -0.4095837    -0.8395317    -0.2312871
  C        0.3345050     1.5654110    -0.0838510
  C        1.9201190     0.2388570     1.0398190
  C       -2.0282860     0.8425430     0.3372020
  C       -1.4126000    -1.8085370    -0.2310830
  C        2.0871850    -0.8915250     0.0446260
  C       -0.0584500     2.8482670    -0.7690020
  C       -3.0319510    -0.1194250     0.3623450
  C       -2.7230760    -1.4503270     0.0616580
  H        0.9974690    -2.0891180    -1.1576180
  H        1.1650960    -0.0456930     1.7889680
  H        2.8821530     0.3846540     1.5322680
  H       -2.2754030     1.8777800     0.5574090
  H       -1.1609050    -2.8458310    -0.4446670
  H       -0.7945500     3.4046450    -0.1790500
  H       -0.5037450     2.6486950    -1.7485080
  H        0.8332190     3.4662990    -0.8854880
  H       -4.0517820     0.1644530     0.6082680
  H       -3.5008180    -2.2099170     0.0672390
units angstrom
no_reorient  #important for SAPT in psi4, default
symmetry c1  #important for SAPT in psi4, default
}

set PROPERTIES_ORIGIN ["COM"]
properties('MP2/aug-cc-pvtz', properties = ['dipole'])
--------------------------------------------------------------------------

    Molecular point group: c1
  Charge       = 0
  Multiplicity = 1
  Basis Set: AUG-CC-PVTZ
    Blend: AUG-CC-PVTZ
  Basis Set: (AUG-CC-PVTZ AUX)
    Blend: AUG-CC-PVTZ-JKFIT

    Orbital Energies [Eh]
    ---------------------

    Doubly Occupied:

       1A    -20.530707     2A    -15.605195     3A    -15.567439
       4A    -11.361176     5A    -11.313448     6A    -11.302894
       7A    -11.267124     8A    -11.266607     9A    -11.265912
      10A    -11.265668    11A    -11.258173    12A    -11.254519
      13A    -11.234567    14A     -1.385646    15A     -1.272422
      16A     -1.231025    17A     -1.166272    18A     -1.066484
      19A     -1.036318    20A     -1.012280    21A     -0.951274
      22A     -0.885419    23A     -0.857298    24A     -0.794133
      25A     -0.769139    26A     -0.726105    27A     -0.690513
      28A     -0.677028    29A     -0.657235    30A     -0.649984
      31A     -0.627022    32A     -0.618042    33A     -0.602949
      34A     -0.586632    35A     -0.565564    36A     -0.558994
      37A     -0.544004    38A     -0.538648    39A     -0.528731
      40A     -0.517307    41A     -0.456550    42A     -0.442376
      43A     -0.418048    44A     -0.405091    45A     -0.355538
      46A     -0.334842

  @DF-RHF Final Energy:  -568.46535808656029

   => Energetics <=

    Nuclear Repulsion Energy =            760.7432851958104720
    One-Electron Energy =               -2281.5726007650332576
    Two-Electron Energy =                 952.3639574826623857
    Total Energy =                       -568.4653580865602862
  Basis Set: (AUG-CC-PVTZ AUX)
    Blend: AUG-CC-PVTZ-RI
    Molecular point group: c1

    Geometry (in Angstrom), charge = 0, multiplicity = 1:

       Center              X                  Y                   Z               Mass
    ------------   -----------------  -----------------  -----------------  -----------------
         O            3.112547221051    -1.421871973164    -0.213862251063    15.994914619570
         N            0.871090221051    -1.223797973164    -0.588907251063    14.003074004430
         N            1.519328221051     1.492498026836     0.335618748937    14.003074004430
         C           -0.731315778949     0.534150026836     0.034184748937    12.000000000000
         C           -0.444791478949    -0.812868673164    -0.230844351063    12.000000000000
         C            0.299297221051     1.592074026836    -0.083408251063    12.000000000000
         C            1.884911221051     0.265520026836     1.040261748937    12.000000000000
         C           -2.063493778949     0.869206026836     0.337644748937    12.000000000000
         C           -1.447807778949    -1.781873973164    -0.230640251063    12.000000000000
         C            2.051977221051    -0.864861973164     0.045068748937    12.000000000000
         C           -0.093657778949     2.874930026836    -0.768559251063    12.000000000000
         C           -3.067158778949    -0.092761973164     0.362787748937    12.000000000000
         C           -2.758283778949    -1.423663973164     0.062100748937    12.000000000000
         H            0.962261221051    -2.062454973164    -1.157175251063     1.007825032230
         H            1.129888221051    -0.019029973164     1.789410748937     1.007825032230
         H            2.846945221051     0.411317026836     1.532710748937     1.007825032230
         H           -2.310610778949     1.904443026836     0.557851748937     1.007825032230
         H           -1.196112778949    -2.819167973164    -0.444224251063     1.007825032230
         H           -0.829757778949     3.431308026836    -0.178607251063     1.007825032230
         H           -0.538952778949     2.675358026836    -1.748065251063     1.007825032230
         H            0.798011221051     3.492962026836    -0.885045251063     1.007825032230
         H           -4.086989778949     0.191116026836     0.608710748937     1.007825032230
         H           -3.536025778949    -2.183253973164     0.067681748937     1.007825032230

  Basis Set: AUG-CC-PVTZ
    Blend: AUG-CC-PVTZ
  Basis Set: (AUG-CC-PVTZ AUX)
    Blend: AUG-CC-PVTZ-JKFIT
	 Reference Energy          =    -568.4653580865602862 [Eh]
	 Singles Energy            =      -0.0000000000000000 [Eh]
	 Same-Spin Energy          =      -0.6142737427015821 [Eh]
	 Opposite-Spin Energy      =      -1.8870473483274601 [Eh]
	 Correlation Energy        =      -2.5013210910290420 [Eh]
	 Total Energy              =    -570.9666791775892989 [Eh]

	 ================> DF-SCS-MP2 Energies <==================
	-----------------------------------------------------------
	 SCS Same-Spin Scale       =       0.3333333333333333 [-]
	 SCS Opposite-Spin Scale   =       1.2000000000000000 [-]
	 SCS Same-Spin Energy      =      -0.2047579142338607 [Eh]
	 SCS Opposite-Spin Energy  =      -2.2644568179929521 [Eh]
	 SCS Correlation Energy    =      -2.4692147322268125 [Eh]
	 SCS Total Energy          =    -570.9345728187870463 [Eh]
	-----------------------------------------------------------

  Dipole Moment: [D]
     X:    -5.2124      Y:    -0.2135      Z:     0.2450     Total:     5.2225

*** Psi4 exiting successfully. Buy a developer a beer!
