                               Psi4 1.3.2 release

  ==> Input File <==

--------------------------------------------------------------------------
#psi4
#
memory 32 gb

molecule  {
0 1
  O        3.1477550    -1.4485350    -0.2143050
  N        0.9062980    -1.2504610    -0.5893500
  N        1.5545360     1.4658350     0.3351760
  C       -0.6961080     0.5074870     0.0337420
  C       -0.3911060    -0.8453020    -0.2363150
  C        0.2982041     1.6006884    -0.0732559
  C        1.9201190     0.2388570     1.0398190
  C       -2.0282860     0.8425430     0.3372020
  C       -1.4126000    -1.8085370    -0.2310830
  C        2.0871850    -0.8915250     0.0446260
  C       -0.0584500     2.8482670    -0.7690020
  C       -3.0319510    -0.1194250     0.3623450
  C       -2.7230760    -1.4503270     0.0616580
  H        0.9974690    -2.0891180    -1.1576180
  H        1.1650960    -0.0456930     1.7889680
  H        2.8821530     0.3846540     1.5322680
  H       -2.2754030     1.8777800     0.5574090
  H       -1.1609050    -2.8458310    -0.4446670
  H       -0.7945500     3.4046450    -0.1790500
  H       -0.5037450     2.6486950    -1.7485080
  H        0.8332190     3.4662990    -0.8854880
  H       -4.0517820     0.1644530     0.6082680
  H       -3.5008180    -2.2099170     0.0672390
units angstrom
no_reorient  #important for SAPT in psi4, default
symmetry c1  #important for SAPT in psi4, default
}

set PROPERTIES_ORIGIN ["COM"]
properties('MP2/aug-cc-pvtz', properties = ['dipole'])
--------------------------------------------------------------------------

    Molecular point group: c1
  Charge       = 0
  Multiplicity = 1
  Basis Set: AUG-CC-PVTZ
    Blend: AUG-CC-PVTZ
  Basis Set: (AUG-CC-PVTZ AUX)
    Blend: AUG-CC-PVTZ-JKFIT

    Orbital Energies [Eh]
    ---------------------

    Doubly Occupied:

       1A    -20.531495     2A    -15.606688     3A    -15.568280
       4A    -11.361749     5A    -11.315566     6A    -11.305798
       7A    -11.267039     8A    -11.265993     9A    -11.265727
      10A    -11.265642    11A    -11.258688    12A    -11.253598
      13A    -11.234993    14A     -1.386677    15A     -1.273508
      16A     -1.223365    17A     -1.164584    18A     -1.068423
      19A     -1.035296    20A     -1.014695    21A     -0.949863
      22A     -0.885673    23A     -0.858164    24A     -0.794624
      25A     -0.768532    26A     -0.729152    27A     -0.689704
      28A     -0.676681    29A     -0.656484    30A     -0.649378
      31A     -0.626510    32A     -0.618968    33A     -0.603490
      34A     -0.590078    35A     -0.566350    36A     -0.562839
      37A     -0.541289    38A     -0.539436    39A     -0.527374
      40A     -0.518948    41A     -0.453512    42A     -0.444078
      43A     -0.416226    44A     -0.400743    45A     -0.353003
      46A     -0.332095

  @DF-RHF Final Energy:  -568.45981025740230

   => Energetics <=

    Nuclear Repulsion Energy =            760.2324571456091462
    One-Electron Energy =               -2280.5425358761649477
    Two-Electron Energy =                 951.8502684731533918
    Total Energy =                       -568.4598102574022960
  Basis Set: (AUG-CC-PVTZ AUX)
    Blend: AUG-CC-PVTZ-RI
    Molecular point group: c1

    Geometry (in Angstrom), charge = 0, multiplicity = 1:

       Center              X                  Y                   Z               Mass
    ------------   -----------------  -----------------  -----------------  -----------------
         O            3.113775847224    -1.423906018416    -0.214246020960    15.994914619570
         N            0.872318847224    -1.225832018416    -0.589291020960    14.003074004430
         N            1.520556847224     1.490463981584     0.335234979040    14.003074004430
         C           -0.730087152776     0.532115981584     0.033800979040    12.000000000000
         C           -0.425085152776    -0.820673018416    -0.236256020960    12.000000000000
         C            0.264224947224     1.625317381584    -0.073196920960    12.000000000000
         C            1.886139847224     0.263485981584     1.039877979040    12.000000000000
         C           -2.062265152776     0.867171981584     0.337260979040    12.000000000000
         C           -1.446579152776    -1.783908018416    -0.231024020960    12.000000000000
         C            2.053205847224    -0.866896018416     0.044684979040    12.000000000000
         C           -0.092429152776     2.872895981584    -0.768943020960    12.000000000000
         C           -3.065930152776    -0.094796018416     0.362403979040    12.000000000000
         C           -2.757055152776    -1.425698018416     0.061716979040    12.000000000000
         H            0.963489847224    -2.064489018416    -1.157559020960     1.007825032230
         H            1.131116847224    -0.021064018416     1.789026979040     1.007825032230
         H            2.848173847224     0.409282981584     1.532326979040     1.007825032230
         H           -2.309382152776     1.902408981584     0.557467979040     1.007825032230
         H           -1.194884152776    -2.821202018416    -0.444608020960     1.007825032230
         H           -0.828529152776     3.429273981584    -0.178991020960     1.007825032230
         H           -0.537724152776     2.673323981584    -1.748449020960     1.007825032230
         H            0.799239847224     3.490927981584    -0.885429020960     1.007825032230
         H           -4.085761152776     0.189081981584     0.608326979040     1.007825032230
         H           -3.534797152776    -2.185288018416     0.067297979040     1.007825032230

  Basis Set: AUG-CC-PVTZ
    Blend: AUG-CC-PVTZ
  Basis Set: (AUG-CC-PVTZ AUX)
    Blend: AUG-CC-PVTZ-JKFIT
	 Reference Energy          =    -568.4598102574022960 [Eh]
	 Singles Energy            =      -0.0000000000000000 [Eh]
	 Same-Spin Energy          =      -0.6155036055223011 [Eh]
	 Opposite-Spin Energy      =      -1.8890457174396951 [Eh]
	 Correlation Energy        =      -2.5045493229619962 [Eh]
	 Total Energy              =    -570.9643595803643166 [Eh]

	 ================> DF-SCS-MP2 Energies <==================
	-----------------------------------------------------------
	 SCS Same-Spin Scale       =       0.3333333333333333 [-]
	 SCS Opposite-Spin Scale   =       1.2000000000000000 [-]
	 SCS Same-Spin Energy      =      -0.2051678685074337 [Eh]
	 SCS Opposite-Spin Energy  =      -2.2668548609276340 [Eh]
	 SCS Correlation Energy    =      -2.4720227294350678 [Eh]
	 SCS Total Energy          =    -570.9318329868373212 [Eh]
	-----------------------------------------------------------

  Dipole Moment: [D]
     X:    -5.1649      Y:    -0.1840      Z:     0.1735     Total:     5.1711

*** Psi4 exiting successfully. Buy a developer a beer!
