                               Psi4 1.3.2 release

  ==> Input File <==

--------------------------------------------------------------------------
#psi4
#
memory 32 gb

molecule  {
0 1
  O        3.1477550    -1.4485350    -0.2143050
  N        0.8980633    -1.2733269    -0.5925197
  N        1.5545360     1.4658350     0.3351760
  C       -0.6961080     0.5074870     0.0337420
  C       -0.3911060    -0.8453020    -0.2363150
  C        0.3345050     1.5654110    -0.0838510
  C        1.9201190     0.2388570     1.0398190
  C       -2.0282860     0.8425430     0.3372020
  C       -1.4126000    -1.8085370    -0.2310830
  C        2.0871850    -0.8915250     0.0446260
  C       -0.0584500     2.8482670    -0.7690020
  C       -3.0319510    -0.1194250     0.3623450
  C       -2.7230760    -1.4503270     0.0616580
  H        0.9974690    -2.0891180    -1.1576180
  H        1.1650960    -0.0456930     1.7889680
  H        2.8821530     0.3846540     1.5322680
  H       -2.2754030     1.8777800     0.5574090
  H       -1.1609050    -2.8458310    -0.4446670
  H       -0.7945500     3.4046450    -0.1790500
  H       -0.5037450     2.6486950    -1.7485080
  H        0.8332190     3.4662990    -0.8854880
  H       -4.0517820     0.1644530     0.6082680
  H       -3.5008180    -2.2099170     0.0672390
units angstrom
no_reorient  #important for SAPT in psi4, default
symmetry c1  #important for SAPT in psi4, default
}

set PROPERTIES_ORIGIN ["COM"]
properties('MP2/aug-cc-pvtz', properties = ['dipole'])
--------------------------------------------------------------------------

    Molecular point group: c1
  Charge       = 0
  Multiplicity = 1
  Basis Set: AUG-CC-PVTZ
    Blend: AUG-CC-PVTZ
  Basis Set: (AUG-CC-PVTZ AUX)
    Blend: AUG-CC-PVTZ-JKFIT

    Orbital Energies [Eh]
    ---------------------

    Doubly Occupied:

       1A    -20.533876     2A    -15.604951     3A    -15.567157
       4A    -11.364278     5A    -11.313922     6A    -11.302653
       7A    -11.268117     8A    -11.266712     9A    -11.265551
      10A    -11.264805    11A    -11.257079    12A    -11.253188
      13A    -11.234289    14A     -1.387602    15A     -1.274956
      16A     -1.233274    17A     -1.163725    18A     -1.065316
      19A     -1.034079    20A     -1.011529    21A     -0.952160
      22A     -0.884868    23A     -0.857011    24A     -0.795539
      25A     -0.768834    26A     -0.729950    27A     -0.691102
      28A     -0.678186    29A     -0.656646    30A     -0.649154
      31A     -0.625873    32A     -0.618569    33A     -0.606710
      34A     -0.586517    35A     -0.566051    36A     -0.558634
      37A     -0.543549    38A     -0.538830    39A     -0.527616
      40A     -0.515791    41A     -0.457823    42A     -0.444736
      43A     -0.417692    44A     -0.405929    45A     -0.354720
      46A     -0.331287

  @DF-RHF Final Energy:  -568.46535403884843

   => Energetics <=

    Nuclear Repulsion Energy =            760.3822867108387982
    One-Electron Energy =               -2280.8336206371131993
    Two-Electron Energy =                 951.9859798874259695
    Total Energy =                       -568.4653540388484316
  Basis Set: (AUG-CC-PVTZ AUX)
    Blend: AUG-CC-PVTZ-RI
    Molecular point group: c1

    Geometry (in Angstrom), charge = 0, multiplicity = 1:

       Center              X                  Y                   Z               Mass
    ------------   -----------------  -----------------  -----------------  -----------------
         O            3.111935883123    -1.419634852146    -0.213260684215    15.994914619570
         N            0.862244183123    -1.244426752146    -0.591475384215    14.003074004430
         N            1.518716883123     1.494735147854     0.336220315785    14.003074004430
         C           -0.731927116877     0.536387147854     0.034786315785    12.000000000000
         C           -0.426925116877    -0.816401852146    -0.235270684215    12.000000000000
         C            0.298685883123     1.594311147854    -0.082806684215    12.000000000000
         C            1.884299883123     0.267757147854     1.040863315785    12.000000000000
         C           -2.064105116877     0.871443147854     0.338246315785    12.000000000000
         C           -1.448419116877    -1.779636852146    -0.230038684215    12.000000000000
         C            2.051365883123    -0.862624852146     0.045670315785    12.000000000000
         C           -0.094269116877     2.877167147854    -0.767957684215    12.000000000000
         C           -3.067770116877    -0.090524852146     0.363389315785    12.000000000000
         C           -2.758895116877    -1.421426852146     0.062702315785    12.000000000000
         H            0.961649883123    -2.060217852146    -1.156573684215     1.007825032230
         H            1.129276883123    -0.016792852146     1.790012315785     1.007825032230
         H            2.846333883123     0.413554147854     1.533312315785     1.007825032230
         H           -2.311222116877     1.906680147854     0.558453315785     1.007825032230
         H           -1.196724116877    -2.816930852146    -0.443622684215     1.007825032230
         H           -0.830369116877     3.433545147854    -0.178005684215     1.007825032230
         H           -0.539564116877     2.677595147854    -1.747463684215     1.007825032230
         H            0.797399883123     3.495199147854    -0.884443684215     1.007825032230
         H           -4.087601116877     0.193353147854     0.609312315785     1.007825032230
         H           -3.536637116877    -2.181016852146     0.068283315785     1.007825032230

  Basis Set: AUG-CC-PVTZ
    Blend: AUG-CC-PVTZ
  Basis Set: (AUG-CC-PVTZ AUX)
    Blend: AUG-CC-PVTZ-JKFIT
	 Reference Energy          =    -568.4653540388484316 [Eh]
	 Singles Energy            =      -0.0000000000000000 [Eh]
	 Same-Spin Energy          =      -0.6142595567471245 [Eh]
	 Opposite-Spin Energy      =      -1.8869378050241234 [Eh]
	 Correlation Energy        =      -2.5011973617712480 [Eh]
	 Total Energy              =    -570.9665514006196645 [Eh]

	 ================> DF-SCS-MP2 Energies <==================
	-----------------------------------------------------------
	 SCS Same-Spin Scale       =       0.3333333333333333 [-]
	 SCS Opposite-Spin Scale   =       1.2000000000000000 [-]
	 SCS Same-Spin Energy      =      -0.2047531855823748 [Eh]
	 SCS Opposite-Spin Energy  =      -2.2643253660289480 [Eh]
	 SCS Correlation Energy    =      -2.4690785516113229 [Eh]
	 SCS Total Energy          =    -570.9344325904597781 [Eh]
	-----------------------------------------------------------

  Dipole Moment: [D]
     X:    -5.0317      Y:    -0.2212      Z:     0.2344     Total:     5.0420

*** Psi4 exiting successfully. Buy a developer a beer!
