                               Psi4 1.3.2 release

  ==> Input File <==

--------------------------------------------------------------------------
#psi4
#
memory 32 gb

molecule  {
0 1
  O        3.1671251    -1.4233114    -0.1856927
  N        0.9062980    -1.2504610    -0.5893500
  N        1.5545360     1.4658350     0.3351760
  C       -0.6961080     0.5074870     0.0337420
  C       -0.3911060    -0.8453020    -0.2363150
  C        0.3345050     1.5654110    -0.0838510
  C        1.9201190     0.2388570     1.0398190
  C       -2.0282860     0.8425430     0.3372020
  C       -1.4126000    -1.8085370    -0.2310830
  C        2.0871850    -0.8915250     0.0446260
  C       -0.0584500     2.8482670    -0.7690020
  C       -3.0319510    -0.1194250     0.3623450
  C       -2.7230760    -1.4503270     0.0616580
  H        0.9974690    -2.0891180    -1.1576180
  H        1.1650960    -0.0456930     1.7889680
  H        2.8821530     0.3846540     1.5322680
  H       -2.2754030     1.8777800     0.5574090
  H       -1.1609050    -2.8458310    -0.4446670
  H       -0.7945500     3.4046450    -0.1790500
  H       -0.5037450     2.6486950    -1.7485080
  H        0.8332190     3.4662990    -0.8854880
  H       -4.0517820     0.1644530     0.6082680
  H       -3.5008180    -2.2099170     0.0672390
units angstrom
no_reorient  #important for SAPT in psi4, default
symmetry c1  #important for SAPT in psi4, default
}

set PROPERTIES_ORIGIN ["COM"]
properties('MP2/aug-cc-pvtz', properties = ['dipole'])
--------------------------------------------------------------------------

    Molecular point group: c1
  Charge       = 0
  Multiplicity = 1
  Basis Set: AUG-CC-PVTZ
    Blend: AUG-CC-PVTZ
  Basis Set: (AUG-CC-PVTZ AUX)
    Blend: AUG-CC-PVTZ-JKFIT

    Orbital Energies [Eh]
    ---------------------

    Doubly Occupied:

       1A    -20.532660     2A    -15.609056     3A    -15.566512
       4A    -11.362576     5A    -11.315131     6A    -11.301739
       7A    -11.267045     8A    -11.265898     9A    -11.265683
      10A    -11.264974    11A    -11.258816    12A    -11.254128
      13A    -11.233917    14A     -1.386950    15A     -1.277270
      16A     -1.232911    17A     -1.165025    18A     -1.065315
      19A     -1.035556    20A     -1.011114    21A     -0.950708
      22A     -0.886038    23A     -0.858650    24A     -0.795761
      25A     -0.768112    26A     -0.729332    27A     -0.691480
      28A     -0.677541    29A     -0.657699    30A     -0.648576
      31A     -0.626354    32A     -0.618274    33A     -0.604126
      34A     -0.586312    35A     -0.566986    36A     -0.558772
      37A     -0.543521    38A     -0.538764    39A     -0.527838
      40A     -0.515429    41A     -0.457610    42A     -0.445644
      43A     -0.416853    44A     -0.404311    45A     -0.354874
      46A     -0.332984

  @DF-RHF Final Energy:  -568.46512373185669

   => Energetics <=

    Nuclear Repulsion Energy =            760.6864963494274434
    One-Electron Energy =               -2281.4335919501218086
    Two-Electron Energy =                 952.2819718688376724
    Total Energy =                       -568.4651237318566928
  Basis Set: (AUG-CC-PVTZ AUX)
    Blend: AUG-CC-PVTZ-RI
    Molecular point group: c1

    Geometry (in Angstrom), charge = 0, multiplicity = 1:

       Center              X                  Y                   Z               Mass
    ------------   -----------------  -----------------  -----------------  -----------------
         O            3.128863796272    -1.398568220633    -0.187532338837    15.994914619570
         N            0.868036696272    -1.225717820633    -0.591189638837    14.003074004430
         N            1.516274696272     1.490578179367     0.333336361163    14.003074004430
         C           -0.734369303728     0.532230179367     0.031902361163    12.000000000000
         C           -0.429367303728    -0.820558820633    -0.238154638837    12.000000000000
         C            0.296243696272     1.590154179367    -0.085690638837    12.000000000000
         C            1.881857696272     0.263600179367     1.037979361163    12.000000000000
         C           -2.066547303728     0.867286179367     0.335362361163    12.000000000000
         C           -1.450861303728    -1.783793820633    -0.232922638837    12.000000000000
         C            2.048923696272    -0.866781820633     0.042786361163    12.000000000000
         C           -0.096711303728     2.873010179367    -0.770841638837    12.000000000000
         C           -3.070212303728    -0.094681820633     0.360505361163    12.000000000000
         C           -2.761337303728    -1.425583820633     0.059818361163    12.000000000000
         H            0.959207696272    -2.064374820633    -1.159457638837     1.007825032230
         H            1.126834696272    -0.020949820633     1.787128361163     1.007825032230
         H            2.843891696272     0.409397179367     1.530428361163     1.007825032230
         H           -2.313664303728     1.902523179367     0.555569361163     1.007825032230
         H           -1.199166303728    -2.821087820633    -0.446506638837     1.007825032230
         H           -0.832811303728     3.429388179367    -0.180889638837     1.007825032230
         H           -0.542006303728     2.673438179367    -1.750347638837     1.007825032230
         H            0.794957696272     3.491042179367    -0.887327638837     1.007825032230
         H           -4.090043303728     0.189196179367     0.606428361163     1.007825032230
         H           -3.539079303728    -2.185173820633     0.065399361163     1.007825032230

  Basis Set: AUG-CC-PVTZ
    Blend: AUG-CC-PVTZ
  Basis Set: (AUG-CC-PVTZ AUX)
    Blend: AUG-CC-PVTZ-JKFIT
	 Reference Energy          =    -568.4651237318566928 [Eh]
	 Singles Energy            =      -0.0000000000000000 [Eh]
	 Same-Spin Energy          =      -0.6144964377684563 [Eh]
	 Opposite-Spin Energy      =      -1.8872932262698390 [Eh]
	 Correlation Energy        =      -2.5017896640382951 [Eh]
	 Total Energy              =    -570.9669133958949487 [Eh]

	 ================> DF-SCS-MP2 Energies <==================
	-----------------------------------------------------------
	 SCS Same-Spin Scale       =       0.3333333333333333 [-]
	 SCS Opposite-Spin Scale   =       1.2000000000000000 [-]
	 SCS Same-Spin Energy      =      -0.2048321459228188 [Eh]
	 SCS Opposite-Spin Energy  =      -2.2647518715238069 [Eh]
	 SCS Correlation Energy    =      -2.4695840174466257 [Eh]
	 SCS Total Energy          =    -570.9347077493033566 [Eh]
	-----------------------------------------------------------

  Dipole Moment: [D]
     X:    -5.1626      Y:    -0.3068      Z:     0.1655     Total:     5.1743

*** Psi4 exiting successfully. Buy a developer a beer!
