                               Psi4 1.3.2 release

  ==> Input File <==

--------------------------------------------------------------------------
#psi4
#
memory 32 gb

molecule  {
0 1
  O        3.1477550    -1.4485350    -0.2143050
  N        0.9566822    -1.3174361    -0.6378826
  N        1.5545360     1.4658350     0.3351760
  C       -0.6961080     0.5074870     0.0337420
  C       -0.3911060    -0.8453020    -0.2363150
  C        0.3345050     1.5654110    -0.0838510
  C        1.9201190     0.2388570     1.0398190
  C       -2.0282860     0.8425430     0.3372020
  C       -1.4126000    -1.8085370    -0.2310830
  C        2.0871850    -0.8915250     0.0446260
  C       -0.0584500     2.8482670    -0.7690020
  C       -3.0319510    -0.1194250     0.3623450
  C       -2.7230760    -1.4503270     0.0616580
  H        0.9974690    -2.0891180    -1.1576180
  H        1.1650960    -0.0456930     1.7889680
  H        2.8821530     0.3846540     1.5322680
  H       -2.2754030     1.8777800     0.5574090
  H       -1.1609050    -2.8458310    -0.4446670
  H       -0.7945500     3.4046450    -0.1790500
  H       -0.5037450     2.6486950    -1.7485080
  H        0.8332190     3.4662990    -0.8854880
  H       -4.0517820     0.1644530     0.6082680
  H       -3.5008180    -2.2099170     0.0672390
units angstrom
no_reorient  #important for SAPT in psi4, default
symmetry c1  #important for SAPT in psi4, default
}

set PROPERTIES_ORIGIN ["COM"]
properties('MP2/aug-cc-pvtz', properties = ['dipole'])
--------------------------------------------------------------------------

    Molecular point group: c1
  Charge       = 0
  Multiplicity = 1
  Basis Set: AUG-CC-PVTZ
    Blend: AUG-CC-PVTZ
  Basis Set: (AUG-CC-PVTZ AUX)
    Blend: AUG-CC-PVTZ-JKFIT

    Orbital Energies [Eh]
    ---------------------

    Doubly Occupied:

       1A    -20.525046     2A    -15.598512     3A    -15.568294
       4A    -11.358635     5A    -11.317890     6A    -11.303971
       7A    -11.270609     8A    -11.270056     9A    -11.268018
      10A    -11.266262    11A    -11.260281    12A    -11.256631
      13A    -11.235199    14A     -1.384398    15A     -1.264693
      16A     -1.230677    17A     -1.166769    18A     -1.066632
      19A     -1.034476    20A     -1.015730    21A     -0.953369
      22A     -0.883621    23A     -0.852866    24A     -0.807694
      25A     -0.769455    26A     -0.724005    27A     -0.689911
      28A     -0.676342    29A     -0.657741    30A     -0.652210
      31A     -0.627023    32A     -0.622507    33A     -0.600015
      34A     -0.587035    35A     -0.563626    36A     -0.559227
      37A     -0.544097    38A     -0.538955    39A     -0.528613
      40A     -0.519069    41A     -0.453027    42A     -0.437221
      43A     -0.418269    44A     -0.405659    45A     -0.356230
      46A     -0.337904

  @DF-RHF Final Energy:  -568.45492066955455

   => Energetics <=

    Nuclear Repulsion Energy =            758.8719895954993717
    One-Electron Energy =               -2277.7968830166469161
    Two-Electron Energy =                 950.4699727515929908
    Total Energy =                       -568.4549206695545536
  Basis Set: (AUG-CC-PVTZ AUX)
    Blend: AUG-CC-PVTZ-RI
    Molecular point group: c1

    Geometry (in Angstrom), charge = 0, multiplicity = 1:

       Center              X                  Y                   Z               Mass
    ------------   -----------------  -----------------  -----------------  -----------------
         O            3.107220533661    -1.416086674126    -0.209611657601    15.994914619570
         N            0.916147733661    -1.284987774126    -0.633189257601    14.003074004430
         N            1.514001533661     1.498283325874     0.339869342399    14.003074004430
         C           -0.736642466339     0.539935325874     0.038435342399    12.000000000000
         C           -0.431640466339    -0.812853674126    -0.231621657601    12.000000000000
         C            0.293970533661     1.597859325874    -0.079157657601    12.000000000000
         C            1.879584533661     0.271305325874     1.044512342399    12.000000000000
         C           -2.068820466339     0.874991325874     0.341895342399    12.000000000000
         C           -1.453134466339    -1.776088674126    -0.226389657601    12.000000000000
         C            2.046650533661    -0.859076674126     0.049319342399    12.000000000000
         C           -0.098984466339     2.880715325874    -0.764308657601    12.000000000000
         C           -3.072485466339    -0.086976674126     0.367038342399    12.000000000000
         C           -2.763610466339    -1.417878674126     0.066351342399    12.000000000000
         H            0.956934533661    -2.056669674126    -1.152924657601     1.007825032230
         H            1.124561533661    -0.013244674126     1.793661342399     1.007825032230
         H            2.841618533661     0.417102325874     1.536961342399     1.007825032230
         H           -2.315937466339     1.910228325874     0.562102342399     1.007825032230
         H           -1.201439466339    -2.813382674126    -0.439973657601     1.007825032230
         H           -0.835084466339     3.437093325874    -0.174356657601     1.007825032230
         H           -0.544279466339     2.681143325874    -1.743814657601     1.007825032230
         H            0.792684533661     3.498747325874    -0.880794657601     1.007825032230
         H           -4.092316466339     0.196901325874     0.612961342399     1.007825032230
         H           -3.541352466339    -2.177468674126     0.071932342399     1.007825032230

  Basis Set: AUG-CC-PVTZ
    Blend: AUG-CC-PVTZ
  Basis Set: (AUG-CC-PVTZ AUX)
    Blend: AUG-CC-PVTZ-JKFIT
	 Reference Energy          =    -568.4549206695545536 [Eh]
	 Singles Energy            =      -0.0000000000000000 [Eh]
	 Same-Spin Energy          =      -0.6129877196268237 [Eh]
	 Opposite-Spin Energy      =      -1.8858757288808170 [Eh]
	 Correlation Energy        =      -2.4988634485076409 [Eh]
	 Total Energy              =    -570.9537841180622308 [Eh]

	 ================> DF-SCS-MP2 Energies <==================
	-----------------------------------------------------------
	 SCS Same-Spin Scale       =       0.3333333333333333 [-]
	 SCS Opposite-Spin Scale   =       1.2000000000000000 [-]
	 SCS Same-Spin Energy      =      -0.2043292398756079 [Eh]
	 SCS Opposite-Spin Energy  =      -2.2630508746569804 [Eh]
	 SCS Correlation Energy    =      -2.4673801145325882 [Eh]
	 SCS Total Energy          =    -570.9223007840871560 [Eh]
	-----------------------------------------------------------

  Dipole Moment: [D]
     X:    -5.3504      Y:    -0.0845      Z:     0.3361     Total:     5.3616

*** Psi4 exiting successfully. Buy a developer a beer!
