                               Psi4 1.3.2 release

  ==> Input File <==

--------------------------------------------------------------------------
#psi4
#
memory 32 gb

molecule  {
0 1
  O        3.1477550    -1.4485350    -0.2143050
  N        0.9062980    -1.2504610    -0.5893500
  N        1.5545360     1.4658350     0.3351760
  C       -0.7099850     0.4606804     0.0284754
  C       -0.3911060    -0.8453020    -0.2363150
  C        0.3345050     1.5654110    -0.0838510
  C        1.9201190     0.2388570     1.0398190
  C       -2.0282860     0.8425430     0.3372020
  C       -1.4126000    -1.8085370    -0.2310830
  C        2.0871850    -0.8915250     0.0446260
  C       -0.0584500     2.8482670    -0.7690020
  C       -3.0319510    -0.1194250     0.3623450
  C       -2.7230760    -1.4503270     0.0616580
  H        0.9974690    -2.0891180    -1.1576180
  H        1.1650960    -0.0456930     1.7889680
  H        2.8821530     0.3846540     1.5322680
  H       -2.2754030     1.8777800     0.5574090
  H       -1.1609050    -2.8458310    -0.4446670
  H       -0.7945500     3.4046450    -0.1790500
  H       -0.5037450     2.6486950    -1.7485080
  H        0.8332190     3.4662990    -0.8854880
  H       -4.0517820     0.1644530     0.6082680
  H       -3.5008180    -2.2099170     0.0672390
units angstrom
no_reorient  #important for SAPT in psi4, default
symmetry c1  #important for SAPT in psi4, default
}

set PROPERTIES_ORIGIN ["COM"]
properties('MP2/aug-cc-pvtz', properties = ['dipole'])
--------------------------------------------------------------------------

    Molecular point group: c1
  Charge       = 0
  Multiplicity = 1
  Basis Set: AUG-CC-PVTZ
    Blend: AUG-CC-PVTZ
  Basis Set: (AUG-CC-PVTZ AUX)
    Blend: AUG-CC-PVTZ-JKFIT

    Orbital Energies [Eh]
    ---------------------

    Doubly Occupied:

       1A    -20.531915     2A    -15.606241     3A    -15.566836
       4A    -11.362260     5A    -11.308512     6A    -11.304686
       7A    -11.266964     8A    -11.265654     9A    -11.264038
      10A    -11.263944    11A    -11.258335    12A    -11.253859
      13A    -11.234975    14A     -1.387172    15A     -1.276277
      16A     -1.231555    17A     -1.166938    18A     -1.062598
      19A     -1.035876    20A     -1.014595    21A     -0.951451
      22A     -0.881653    23A     -0.860186    24A     -0.794208
      25A     -0.767910    26A     -0.726830    27A     -0.690717
      28A     -0.677359    29A     -0.655494    30A     -0.650992
      31A     -0.626968    32A     -0.617913    33A     -0.604646
      34A     -0.586287    35A     -0.567211    36A     -0.558903
      37A     -0.541912    38A     -0.538772    39A     -0.529280
      40A     -0.517038    41A     -0.457154    42A     -0.444278
      43A     -0.415869    44A     -0.403199    45A     -0.355674
      46A     -0.335479

  @DF-RHF Final Energy:  -568.46424332030051

   => Energetics <=

    Nuclear Repulsion Energy =            760.9695081452454133
    One-Electron Energy =               -2282.0262752152184476
    Two-Electron Energy =                 952.5925237496724094
    Total Energy =                       -568.4642433203005112
  Basis Set: (AUG-CC-PVTZ AUX)
    Blend: AUG-CC-PVTZ-RI
    Molecular point group: c1

    Geometry (in Angstrom), charge = 0, multiplicity = 1:

       Center              X                  Y                   Z               Mass
    ------------   -----------------  -----------------  -----------------  -----------------
         O            3.112230075958    -1.418247632113    -0.213152609016    15.994914619570
         N            0.870773075958    -1.220173632113    -0.588197609016    14.003074004430
         N            1.519011075958     1.496122367887     0.336328390984    14.003074004430
         C           -0.745509924042     0.490967767887     0.029627790984    12.000000000000
         C           -0.426630924042    -0.815014632113    -0.235162609016    12.000000000000
         C            0.298980075958     1.595698367887    -0.082698609016    12.000000000000
         C            1.884594075958     0.269144367887     1.040971390984    12.000000000000
         C           -2.063810924042     0.872830367887     0.338354390984    12.000000000000
         C           -1.448124924042    -1.778249632113    -0.229930609016    12.000000000000
         C            2.051660075958    -0.861237632113     0.045778390984    12.000000000000
         C           -0.093974924042     2.878554367887    -0.767849609016    12.000000000000
         C           -3.067475924042    -0.089137632113     0.363497390984    12.000000000000
         C           -2.758600924042    -1.420039632113     0.062810390984    12.000000000000
         H            0.961944075958    -2.058830632113    -1.156465609016     1.007825032230
         H            1.129571075958    -0.015405632113     1.790120390984     1.007825032230
         H            2.846628075958     0.414941367887     1.533420390984     1.007825032230
         H           -2.310927924042     1.908067367887     0.558561390984     1.007825032230
         H           -1.196429924042    -2.815543632113    -0.443514609016     1.007825032230
         H           -0.830074924042     3.434932367887    -0.177897609016     1.007825032230
         H           -0.539269924042     2.678982367887    -1.747355609016     1.007825032230
         H            0.797694075958     3.496586367887    -0.884335609016     1.007825032230
         H           -4.087306924042     0.194740367887     0.609420390984     1.007825032230
         H           -3.536342924042    -2.179629632113     0.068391390984     1.007825032230

  Basis Set: AUG-CC-PVTZ
    Blend: AUG-CC-PVTZ
  Basis Set: (AUG-CC-PVTZ AUX)
    Blend: AUG-CC-PVTZ-JKFIT
	 Reference Energy          =    -568.4642433203005112 [Eh]
	 Singles Energy            =      -0.0000000000000000 [Eh]
	 Same-Spin Energy          =      -0.6138681276036876 [Eh]
	 Opposite-Spin Energy      =      -1.8865586466482034 [Eh]
	 Correlation Energy        =      -2.5004267742518911 [Eh]
	 Total Energy              =    -570.9646700945523889 [Eh]

	 ================> DF-SCS-MP2 Energies <==================
	-----------------------------------------------------------
	 SCS Same-Spin Scale       =       0.3333333333333333 [-]
	 SCS Opposite-Spin Scale   =       1.2000000000000000 [-]
	 SCS Same-Spin Energy      =      -0.2046227092012292 [Eh]
	 SCS Opposite-Spin Energy  =      -2.2638703759778438 [Eh]
	 SCS Correlation Energy    =      -2.4684930851790732 [Eh]
	 SCS Total Energy          =    -570.9327364054795453 [Eh]
	-----------------------------------------------------------

  Dipole Moment: [D]
     X:    -5.1144      Y:    -0.1873      Z:     0.2283     Total:     5.1229

*** Psi4 exiting successfully. Buy a developer a beer!
