                               Psi4 1.3.2 release

  ==> Input File <==

--------------------------------------------------------------------------
#psi4
#
memory 32 gb

molecule  {
0 1
  O        3.1477550    -1.4485350    -0.2143050
  N        0.9062980    -1.2504610    -0.5893500
  N        1.5545360     1.4658350     0.3351760
  C       -0.6961080     0.5074870     0.0337420
  C       -0.3717346    -0.8073570    -0.2120754
  C        0.3345050     1.5654110    -0.0838510
  C        1.9201190     0.2388570     1.0398190
  C       -2.0282860     0.8425430     0.3372020
  C       -1.4126000    -1.8085370    -0.2310830
  C        2.0871850    -0.8915250     0.0446260
  C       -0.0584500     2.8482670    -0.7690020
  C       -3.0319510    -0.1194250     0.3623450
  C       -2.7230760    -1.4503270     0.0616580
  H        0.9974690    -2.0891180    -1.1576180
  H        1.1650960    -0.0456930     1.7889680
  H        2.8821530     0.3846540     1.5322680
  H       -2.2754030     1.8777800     0.5574090
  H       -1.1609050    -2.8458310    -0.4446670
  H       -0.7945500     3.4046450    -0.1790500
  H       -0.5037450     2.6486950    -1.7485080
  H        0.8332190     3.4662990    -0.8854880
  H       -4.0517820     0.1644530     0.6082680
  H       -3.5008180    -2.2099170     0.0672390
units angstrom
no_reorient  #important for SAPT in psi4, default
symmetry c1  #important for SAPT in psi4, default
}

set PROPERTIES_ORIGIN ["COM"]
properties('MP2/aug-cc-pvtz', properties = ['dipole'])
--------------------------------------------------------------------------

    Molecular point group: c1
  Charge       = 0
  Multiplicity = 1
  Basis Set: AUG-CC-PVTZ
    Blend: AUG-CC-PVTZ
  Basis Set: (AUG-CC-PVTZ AUX)
    Blend: AUG-CC-PVTZ-JKFIT

    Orbital Energies [Eh]
    ---------------------

    Doubly Occupied:

       1A    -20.531682     2A    -15.607701     3A    -15.567130
       4A    -11.361502     5A    -11.314631     6A    -11.302072
       7A    -11.267042     8A    -11.266318     9A    -11.264766
      10A    -11.262655    11A    -11.262129    12A    -11.254064
      13A    -11.234176    14A     -1.387253    15A     -1.277068
      16A     -1.232565    17A     -1.164667    18A     -1.067054
      19A     -1.030365    20A     -1.014394    21A     -0.951497
      22A     -0.883283    23A     -0.860709    24A     -0.793987
      25A     -0.769696    26A     -0.727904    27A     -0.692788
      28A     -0.677764    29A     -0.656602    30A     -0.651636
      31A     -0.625011    32A     -0.618004    33A     -0.603485
      34A     -0.586442    35A     -0.566479    36A     -0.558646
      37A     -0.542562    38A     -0.540124    39A     -0.528030
      40A     -0.516019    41A     -0.457278    42A     -0.444060
      43A     -0.417359    44A     -0.404823    45A     -0.355784
      46A     -0.332157

  @DF-RHF Final Energy:  -568.46305822964712

   => Energetics <=

    Nuclear Repulsion Energy =            761.1612401645934369
    One-Electron Energy =               -2282.3858754743801001
    Two-Electron Energy =                 952.7615770801395456
    Total Energy =                       -568.4630582296471175
  Basis Set: (AUG-CC-PVTZ AUX)
    Blend: AUG-CC-PVTZ-RI
    Molecular point group: c1

    Geometry (in Angstrom), charge = 0, multiplicity = 1:

       Center              X                  Y                   Z               Mass
    ------------   -----------------  -----------------  -----------------  -----------------
         O            3.109938127574    -1.424089907010    -0.215186592227    15.994914619570
         N            0.868481127574    -1.226015907010    -0.590231592227    14.003074004430
         N            1.516719127574     1.490280092990     0.334294407773    14.003074004430
         C           -0.733924872426     0.531932092990     0.032860407773    12.000000000000
         C           -0.409551472426    -0.782911907010    -0.212956992227    12.000000000000
         C            0.296688127574     1.589856092990    -0.084732592227    12.000000000000
         C            1.882302127574     0.263302092990     1.038937407773    12.000000000000
         C           -2.066102872426     0.866988092990     0.336320407773    12.000000000000
         C           -1.450416872426    -1.784091907010    -0.231964592227    12.000000000000
         C            2.049368127574    -0.867079907010     0.043744407773    12.000000000000
         C           -0.096266872426     2.872712092990    -0.769883592227    12.000000000000
         C           -3.069767872426    -0.094979907010     0.361463407773    12.000000000000
         C           -2.760892872426    -1.425881907010     0.060776407773    12.000000000000
         H            0.959652127574    -2.064672907010    -1.158499592227     1.007825032230
         H            1.127279127574    -0.021247907010     1.788086407773     1.007825032230
         H            2.844336127574     0.409099092990     1.531386407773     1.007825032230
         H           -2.313219872426     1.902225092990     0.556527407773     1.007825032230
         H           -1.198721872426    -2.821385907010    -0.445548592227     1.007825032230
         H           -0.832366872426     3.429090092990    -0.179931592227     1.007825032230
         H           -0.541561872426     2.673140092990    -1.749389592227     1.007825032230
         H            0.795402127574     3.490744092990    -0.886369592227     1.007825032230
         H           -4.089598872426     0.188898092990     0.607386407773     1.007825032230
         H           -3.538634872426    -2.185471907010     0.066357407773     1.007825032230

  Basis Set: AUG-CC-PVTZ
    Blend: AUG-CC-PVTZ
  Basis Set: (AUG-CC-PVTZ AUX)
    Blend: AUG-CC-PVTZ-JKFIT
	 Reference Energy          =    -568.4630582296471175 [Eh]
	 Singles Energy            =      -0.0000000000000000 [Eh]
	 Same-Spin Energy          =      -0.6143324368243888 [Eh]
	 Opposite-Spin Energy      =      -1.8872856609630246 [Eh]
	 Correlation Energy        =      -2.5016180977874134 [Eh]
	 Total Energy              =    -570.9646763274345176 [Eh]

	 ================> DF-SCS-MP2 Energies <==================
	-----------------------------------------------------------
	 SCS Same-Spin Scale       =       0.3333333333333333 [-]
	 SCS Opposite-Spin Scale   =       1.2000000000000000 [-]
	 SCS Same-Spin Energy      =      -0.2047774789414629 [Eh]
	 SCS Opposite-Spin Energy  =      -2.2647427931556297 [Eh]
	 SCS Correlation Energy    =      -2.4695202720970926 [Eh]
	 SCS Total Energy          =    -570.9325785017441603 [Eh]
	-----------------------------------------------------------

  Dipole Moment: [D]
     X:    -5.1209      Y:    -0.2404      Z:     0.2188     Total:     5.1312

*** Psi4 exiting successfully. Buy a developer a beer!
