                               Psi4 1.3.2 release

  ==> Input File <==

--------------------------------------------------------------------------
#psi4
#
memory 32 gb

molecule  {
0 1
  O        3.1477550    -1.4485350    -0.2143050
  N        0.9062980    -1.2504610    -0.5893500
  N        1.5545360     1.4658350     0.3351760
  C       -0.6961080     0.5074870     0.0337420
  C       -0.3911060    -0.8453020    -0.2363150
  C        0.1953851     1.4226045    -0.0679774
  C        1.9201190     0.2388570     1.0398190
  C       -2.0282860     0.8425430     0.3372020
  C       -1.4126000    -1.8085370    -0.2310830
  C        2.0871850    -0.8915250     0.0446260
  C       -0.0584500     2.8482670    -0.7690020
  C       -3.0319510    -0.1194250     0.3623450
  C       -2.7230760    -1.4503270     0.0616580
  H        0.9974690    -2.0891180    -1.1576180
  H        1.1650960    -0.0456930     1.7889680
  H        2.8821530     0.3846540     1.5322680
  H       -2.2754030     1.8777800     0.5574090
  H       -1.1609050    -2.8458310    -0.4446670
  H       -0.7945500     3.4046450    -0.1790500
  H       -0.5037450     2.6486950    -1.7485080
  H        0.8332190     3.4662990    -0.8854880
  H       -4.0517820     0.1644530     0.6082680
  H       -3.5008180    -2.2099170     0.0672390
units angstrom
no_reorient  #important for SAPT in psi4, default
symmetry c1  #important for SAPT in psi4, default
}

set PROPERTIES_ORIGIN ["COM"]
properties('MP2/aug-cc-pvtz', properties = ['dipole'])
--------------------------------------------------------------------------

    Molecular point group: c1
  Charge       = 0
  Multiplicity = 1
  Basis Set: AUG-CC-PVTZ
    Blend: AUG-CC-PVTZ
  Basis Set: (AUG-CC-PVTZ AUX)
    Blend: AUG-CC-PVTZ-JKFIT

    Orbital Energies [Eh]
    ---------------------

    Doubly Occupied:

       1A    -20.530184     2A    -15.611462     3A    -15.570671
       4A    -11.359937     5A    -11.326191     6A    -11.301940
       7A    -11.276972     8A    -11.276484     9A    -11.264478
      10A    -11.260171    11A    -11.256667    12A    -11.255718
      13A    -11.237269    14A     -1.386097    15A     -1.279820
      16A     -1.208424    17A     -1.172410    18A     -1.089752
      19A     -1.040672    20A     -0.993779    21A     -0.929444
      22A     -0.915392    23A     -0.866706    24A     -0.805526
      25A     -0.774895    26A     -0.737563    27A     -0.685671
      28A     -0.676162    29A     -0.665098    30A     -0.649863
      31A     -0.631280    32A     -0.610313    33A     -0.597590
      34A     -0.579531    35A     -0.569585    36A     -0.559037
      37A     -0.553282    38A     -0.539847    39A     -0.532495
      40A     -0.484830    41A     -0.450516    42A     -0.446261
      43A     -0.422978    44A     -0.403817    45A     -0.345499
      46A     -0.331094

  @DF-RHF Final Energy:  -568.39664031687471

   => Energetics <=

    Nuclear Repulsion Energy =            762.5801208017275030
    One-Electron Energy =               -2285.0267822580390202
    Two-Electron Energy =                 954.0500211394369217
    Total Energy =                       -568.3966403168747092
  Basis Set: (AUG-CC-PVTZ AUX)
    Blend: AUG-CC-PVTZ-RI
    Molecular point group: c1

    Geometry (in Angstrom), charge = 0, multiplicity = 1:

       Center              X                  Y                   Z               Mass
    ------------   -----------------  -----------------  -----------------  -----------------
         O            3.120863581999    -1.411629965830    -0.214609889584    15.994914619570
         N            0.879406581999    -1.213555965830    -0.589654889584    14.003074004430
         N            1.527644581999     1.502740034170     0.334871110416    14.003074004430
         C           -0.722999418001     0.544392034170     0.033437110416    12.000000000000
         C           -0.417997418001    -0.808396965830    -0.236619889584    12.000000000000
         C            0.168493681999     1.459509534170    -0.068282289584    12.000000000000
         C            1.893227581999     0.275762034170     1.039514110416    12.000000000000
         C           -2.055177418001     0.879448034170     0.336897110416    12.000000000000
         C           -1.439491418001    -1.771631965830    -0.231387889584    12.000000000000
         C            2.060293581999    -0.854619965830     0.044321110416    12.000000000000
         C           -0.085341418001     2.885172034170    -0.769306889584    12.000000000000
         C           -3.058842418001    -0.082519965830     0.362040110416    12.000000000000
         C           -2.749967418001    -1.413421965830     0.061353110416    12.000000000000
         H            0.970577581999    -2.052212965830    -1.157922889584     1.007825032230
         H            1.138204581999    -0.008787965830     1.788663110416     1.007825032230
         H            2.855261581999     0.421559034170     1.531963110416     1.007825032230
         H           -2.302294418001     1.914685034170     0.557104110416     1.007825032230
         H           -1.187796418001    -2.808925965830    -0.444971889584     1.007825032230
         H           -0.821441418001     3.441550034170    -0.179354889584     1.007825032230
         H           -0.530636418001     2.685600034170    -1.748812889584     1.007825032230
         H            0.806327581999     3.503204034170    -0.885792889584     1.007825032230
         H           -4.078673418001     0.201358034170     0.607963110416     1.007825032230
         H           -3.527709418001    -2.173011965830     0.066934110416     1.007825032230

  Basis Set: AUG-CC-PVTZ
    Blend: AUG-CC-PVTZ
  Basis Set: (AUG-CC-PVTZ AUX)
    Blend: AUG-CC-PVTZ-JKFIT
	 Reference Energy          =    -568.3966403168747092 [Eh]
	 Singles Energy            =      -0.0000000000000000 [Eh]
	 Same-Spin Energy          =      -0.6214725490773780 [Eh]
	 Opposite-Spin Energy      =      -1.8992379608720724 [Eh]
	 Correlation Energy        =      -2.5207105099494505 [Eh]
	 Total Energy              =    -570.9173508268241903 [Eh]

	 ================> DF-SCS-MP2 Energies <==================
	-----------------------------------------------------------
	 SCS Same-Spin Scale       =       0.3333333333333333 [-]
	 SCS Opposite-Spin Scale   =       1.2000000000000000 [-]
	 SCS Same-Spin Energy      =      -0.2071575163591260 [Eh]
	 SCS Opposite-Spin Energy  =      -2.2790855530464866 [Eh]
	 SCS Correlation Energy    =      -2.4862430694056128 [Eh]
	 SCS Total Energy          =    -570.8828833862803549 [Eh]
	-----------------------------------------------------------

  Dipole Moment: [D]
     X:    -5.3158      Y:    -0.7274      Z:     0.3003     Total:     5.3737

*** Psi4 exiting successfully. Buy a developer a beer!
