                               Psi4 1.3.2 release

  ==> Input File <==

--------------------------------------------------------------------------
#psi4
#
memory 32 gb

molecule  {
0 1
  O        3.1477550    -1.4485350    -0.2143050
  N        0.9062980    -1.2504610    -0.5893500
  N        1.5545360     1.4658350     0.3351760
  C       -0.6961080     0.5074870     0.0337420
  C       -0.3911060    -0.8453020    -0.2363150
  C        0.3345050     1.5654110    -0.0838510
  C        1.8700866     0.4067768     0.9433841
  C       -2.0282860     0.8425430     0.3372020
  C       -1.4126000    -1.8085370    -0.2310830
  C        2.0871850    -0.8915250     0.0446260
  C       -0.0584500     2.8482670    -0.7690020
  C       -3.0319510    -0.1194250     0.3623450
  C       -2.7230760    -1.4503270     0.0616580
  H        0.9974690    -2.0891180    -1.1576180
  H        1.1650960    -0.0456930     1.7889680
  H        2.8821530     0.3846540     1.5322680
  H       -2.2754030     1.8777800     0.5574090
  H       -1.1609050    -2.8458310    -0.4446670
  H       -0.7945500     3.4046450    -0.1790500
  H       -0.5037450     2.6486950    -1.7485080
  H        0.8332190     3.4662990    -0.8854880
  H       -4.0517820     0.1644530     0.6082680
  H       -3.5008180    -2.2099170     0.0672390
units angstrom
no_reorient  #important for SAPT in psi4, default
symmetry c1  #important for SAPT in psi4, default
}

set PROPERTIES_ORIGIN ["COM"]
properties('MP2/aug-cc-pvtz', properties = ['dipole'])
--------------------------------------------------------------------------

    Molecular point group: c1
  Charge       = 0
  Multiplicity = 1
  Basis Set: AUG-CC-PVTZ
    Blend: AUG-CC-PVTZ
  Basis Set: (AUG-CC-PVTZ AUX)
    Blend: AUG-CC-PVTZ-JKFIT

    Orbital Energies [Eh]
    ---------------------

    Doubly Occupied:

       1A    -20.534129     2A    -15.606632     3A    -15.558103
       4A    -11.362900     5A    -11.316567     6A    -11.310965
       7A    -11.273380     8A    -11.269253     9A    -11.267947
      10A    -11.267448    11A    -11.259119    12A    -11.255051
      13A    -11.237028    14A     -1.386179    15A     -1.303345
      16A     -1.258519    17A     -1.167275    18A     -1.077274
      19A     -1.035096    20A     -1.014549    21A     -0.933599
      22A     -0.892798    23A     -0.859278    24A     -0.801431
      25A     -0.778087    26A     -0.728098    27A     -0.707134
      28A     -0.671071    29A     -0.658989    30A     -0.653045
      31A     -0.629248    32A     -0.622640    33A     -0.609948
      34A     -0.587790    35A     -0.562051    36A     -0.560125
      37A     -0.550566    38A     -0.535844    39A     -0.527200
      40A     -0.505774    41A     -0.468991    42A     -0.445521
      43A     -0.403853    44A     -0.390912    45A     -0.351945
      46A     -0.334151

  @DF-RHF Final Energy:  -568.41908985192958

   => Energetics <=

    Nuclear Repulsion Energy =            763.0133025510714333
    One-Electron Energy =               -2285.8030880118717505
    Two-Electron Energy =                 954.3706956088708466
    Total Energy =                       -568.4190898519295843
  Basis Set: (AUG-CC-PVTZ AUX)
    Blend: AUG-CC-PVTZ-RI
    Molecular point group: c1

    Geometry (in Angstrom), charge = 0, multiplicity = 1:

       Center              X                  Y                   Z               Mass
    ------------   -----------------  -----------------  -----------------  -----------------
         O            3.114722415758    -1.433049602298    -0.206868004709    15.994914619570
         N            0.873265415758    -1.234975602298    -0.581913004709    14.003074004430
         N            1.521503415758     1.481320397702     0.342612995291    14.003074004430
         C           -0.729140584242     0.522972397702     0.041178995291    12.000000000000
         C           -0.424138584242    -0.829816602298    -0.228878004709    12.000000000000
         C            0.301472415758     1.580896397702    -0.076414004709    12.000000000000
         C            1.837054015758     0.422262197702     0.950821095291    12.000000000000
         C           -2.061318584242     0.858028397702     0.344638995291    12.000000000000
         C           -1.445632584242    -1.793051602298    -0.223646004709    12.000000000000
         C            2.054152415758    -0.876039602298     0.052062995291    12.000000000000
         C           -0.091482584242     2.863752397702    -0.761565004709    12.000000000000
         C           -3.064983584242    -0.103939602298     0.369781995291    12.000000000000
         C           -2.756108584242    -1.434841602298     0.069094995291    12.000000000000
         H            0.964436415758    -2.073632602298    -1.150181004709     1.007825032230
         H            1.132063415758    -0.030207602298     1.796404995291     1.007825032230
         H            2.849120415758     0.400139397702     1.539704995291     1.007825032230
         H           -2.308435584242     1.893265397702     0.564845995291     1.007825032230
         H           -1.193937584242    -2.830345602298    -0.437230004709     1.007825032230
         H           -0.827582584242     3.420130397702    -0.171613004709     1.007825032230
         H           -0.536777584242     2.664180397702    -1.741071004709     1.007825032230
         H            0.800186415758     3.481784397702    -0.878051004709     1.007825032230
         H           -4.084814584242     0.179938397702     0.615704995291     1.007825032230
         H           -3.533850584242    -2.194431602298     0.074675995291     1.007825032230

  Basis Set: AUG-CC-PVTZ
    Blend: AUG-CC-PVTZ
  Basis Set: (AUG-CC-PVTZ AUX)
    Blend: AUG-CC-PVTZ-JKFIT
	 Reference Energy          =    -568.4190898519295843 [Eh]
	 Singles Energy            =      -0.0000000000000000 [Eh]
	 Same-Spin Energy          =      -0.6177149439975707 [Eh]
	 Opposite-Spin Energy      =      -1.8895763022830754 [Eh]
	 Correlation Energy        =      -2.5072912462806460 [Eh]
	 Total Energy              =    -570.9263810982101859 [Eh]

	 ================> DF-SCS-MP2 Energies <==================
	-----------------------------------------------------------
	 SCS Same-Spin Scale       =       0.3333333333333333 [-]
	 SCS Opposite-Spin Scale   =       1.2000000000000000 [-]
	 SCS Same-Spin Energy      =      -0.2059049813325236 [Eh]
	 SCS Opposite-Spin Energy  =      -2.2674915627396905 [Eh]
	 SCS Correlation Energy    =      -2.4733965440722141 [Eh]
	 SCS Total Energy          =    -570.8924863960018001 [Eh]
	-----------------------------------------------------------

  Dipole Moment: [D]
     X:    -5.2074      Y:    -0.1801      Z:    -0.1064     Total:     5.2116

*** Psi4 exiting successfully. Buy a developer a beer!
