                               Psi4 1.3.2 release

  ==> Input File <==

--------------------------------------------------------------------------
#psi4
#
memory 32 gb

molecule  {
0 1
  O        3.1477550    -1.4485350    -0.2143050
  N        0.9062980    -1.2504610    -0.5893500
  N        1.5545360     1.4658350     0.3351760
  C       -0.6961080     0.5074870     0.0337420
  C       -0.3911060    -0.8453020    -0.2363150
  C        0.3345050     1.5654110    -0.0838510
  C        1.9201190     0.2388570     1.0398190
  C       -2.0282860     0.8425430     0.3372020
  C       -1.4126000    -1.8085370    -0.2310830
  C        2.0871850    -0.8915250     0.0446260
  C       -0.0845338     2.9334213    -0.8144814
  C       -3.0319510    -0.1194250     0.3623450
  C       -2.7230760    -1.4503270     0.0616580
  H        0.9974690    -2.0891180    -1.1576180
  H        1.1650960    -0.0456930     1.7889680
  H        2.8821530     0.3846540     1.5322680
  H       -2.2754030     1.8777800     0.5574090
  H       -1.1609050    -2.8458310    -0.4446670
  H       -0.7945500     3.4046450    -0.1790500
  H       -0.5037450     2.6486950    -1.7485080
  H        0.8332190     3.4662990    -0.8854880
  H       -4.0517820     0.1644530     0.6082680
  H       -3.5008180    -2.2099170     0.0672390
units angstrom
no_reorient  #important for SAPT in psi4, default
symmetry c1  #important for SAPT in psi4, default
}

set PROPERTIES_ORIGIN ["COM"]
properties('MP2/aug-cc-pvtz', properties = ['dipole'])
--------------------------------------------------------------------------

    Molecular point group: c1
  Charge       = 0
  Multiplicity = 1
  Basis Set: AUG-CC-PVTZ
    Blend: AUG-CC-PVTZ
  Basis Set: (AUG-CC-PVTZ AUX)
    Blend: AUG-CC-PVTZ-JKFIT

    Orbital Energies [Eh]
    ---------------------

    Doubly Occupied:

       1A    -20.532229     2A    -15.607027     3A    -15.567281
       4A    -11.362573     5A    -11.314352     6A    -11.305552
       7A    -11.267314     8A    -11.266987     9A    -11.265826
      10A    -11.265442    11A    -11.258317    12A    -11.253841
      13A    -11.233201    14A     -1.387466    15A     -1.275324
      16A     -1.230157    17A     -1.164392    18A     -1.061718
      19A     -1.034724    20A     -1.006272    21A     -0.953095
      22A     -0.886789    23A     -0.858250    24A     -0.794741
      25A     -0.767459    26A     -0.727719    27A     -0.689094
      28A     -0.677620    29A     -0.657009    30A     -0.647561
      31A     -0.626863    32A     -0.610401    33A     -0.603741
      34A     -0.597029    35A     -0.570549    36A     -0.565778
      37A     -0.548006    38A     -0.535507    39A     -0.529637
      40A     -0.505516    41A     -0.459143    42A     -0.444580
      43A     -0.415523    44A     -0.404595    45A     -0.354569
      46A     -0.332162

  @DF-RHF Final Energy:  -568.45836992625345

   => Energetics <=

    Nuclear Repulsion Energy =            758.7557139686849723
    One-Electron Energy =               -2277.5823086522627818
    Two-Electron Energy =                 950.3682247573242421
    Total Energy =                       -568.4583699262534537
  Basis Set: (AUG-CC-PVTZ AUX)
    Blend: AUG-CC-PVTZ-RI
    Molecular point group: c1

    Geometry (in Angstrom), charge = 0, multiplicity = 1:

       Center              X                  Y                   Z               Mass
    ------------   -----------------  -----------------  -----------------  -----------------
         O            3.113071540676    -1.427344237409    -0.210380576017    15.994914619570
         N            0.871614540676    -1.229270237409    -0.585425576017    14.003074004430
         N            1.519852540676     1.487025762591     0.339100423983    14.003074004430
         C           -0.730791459324     0.528677762591     0.037666423983    12.000000000000
         C           -0.425789459324    -0.824111237409    -0.232390576017    12.000000000000
         C            0.299821540676     1.586601762591    -0.079926576017    12.000000000000
         C            1.885435540676     0.260047762591     1.043743423983    12.000000000000
         C           -2.062969459324     0.863733762591     0.341126423983    12.000000000000
         C           -1.447283459324    -1.787346237409    -0.227158576017    12.000000000000
         C            2.052501540676    -0.870334237409     0.048550423983    12.000000000000
         C           -0.119217259324     2.954612062591    -0.810556976017    12.000000000000
         C           -3.066634459324    -0.098234237409     0.366269423983    12.000000000000
         C           -2.757759459324    -1.429136237409     0.065582423983    12.000000000000
         H            0.962785540676    -2.067927237409    -1.153693576017     1.007825032230
         H            1.130412540676    -0.024502237409     1.792892423983     1.007825032230
         H            2.847469540676     0.405844762591     1.536192423983     1.007825032230
         H           -2.310086459324     1.898970762591     0.561333423983     1.007825032230
         H           -1.195588459324    -2.824640237409    -0.440742576017     1.007825032230
         H           -0.829233459324     3.425835762591    -0.175125576017     1.007825032230
         H           -0.538428459324     2.669885762591    -1.744583576017     1.007825032230
         H            0.798535540676     3.487489762591    -0.881563576017     1.007825032230
         H           -4.086465459324     0.185643762591     0.612192423983     1.007825032230
         H           -3.535501459324    -2.188726237409     0.071163423983     1.007825032230

  Basis Set: AUG-CC-PVTZ
    Blend: AUG-CC-PVTZ
  Basis Set: (AUG-CC-PVTZ AUX)
    Blend: AUG-CC-PVTZ-JKFIT
	 Reference Energy          =    -568.4583699262534537 [Eh]
	 Singles Energy            =      -0.0000000000000000 [Eh]
	 Same-Spin Energy          =      -0.6140563280011694 [Eh]
	 Opposite-Spin Energy      =      -1.8871532430585729 [Eh]
	 Correlation Energy        =      -2.5012095710597424 [Eh]
	 Total Energy              =    -570.9595794973131433 [Eh]

	 ================> DF-SCS-MP2 Energies <==================
	-----------------------------------------------------------
	 SCS Same-Spin Scale       =       0.3333333333333333 [-]
	 SCS Opposite-Spin Scale   =       1.2000000000000000 [-]
	 SCS Same-Spin Energy      =      -0.2046854426670565 [Eh]
	 SCS Opposite-Spin Energy  =      -2.2645838916702874 [Eh]
	 SCS Correlation Energy    =      -2.4692693343373437 [Eh]
	 SCS Total Energy          =    -570.9276392605908086 [Eh]
	-----------------------------------------------------------

  Dipole Moment: [D]
     X:    -5.0874      Y:    -0.3173      Z:     0.2616     Total:     5.1040

*** Psi4 exiting successfully. Buy a developer a beer!
