                               Psi4 1.4a3.dev225

  ==> Input File <==

--------------------------------------------------------------------------
#psi4
#
memory 32 gb

molecule  {
0 1
  O        3.1477550    -1.4485350    -0.2143050
  N        0.9062980    -1.2504610    -0.5893500
  N        1.5545360     1.4658350     0.3351760
  C       -0.6961080     0.5074870     0.0337420
  C       -0.3911060    -0.8453020    -0.2363150
  C        0.3345050     1.5654110    -0.0838510
  C        1.9201190     0.2388570     1.0398190
  C       -2.0282860     0.8425430     0.3372020
  C       -1.4126000    -1.8085370    -0.2310830
  C        2.1042064    -0.8863513     0.0537642
  C       -0.0584500     2.8482670    -0.7690020
  C       -3.0319510    -0.1194250     0.3623450
  C       -2.7230760    -1.4503270     0.0616580
  H        0.9974690    -2.0891180    -1.1576180
  H        1.1650960    -0.0456930     1.7889680
  H        2.8821530     0.3846540     1.5322680
  H       -2.2754030     1.8777800     0.5574090
  H       -1.1609050    -2.8458310    -0.4446670
  H       -0.7945500     3.4046450    -0.1790500
  H       -0.5037450     2.6486950    -1.7485080
  H        0.8332190     3.4662990    -0.8854880
  H       -4.0517820     0.1644530     0.6082680
  H       -3.5008180    -2.2099170     0.0672390
units angstrom
no_reorient  #important for SAPT in psi4, default
symmetry c1  #important for SAPT in psi4, default
}

set PROPERTIES_ORIGIN ["COM"]
properties('MP2/aug-cc-pvtz', properties = ['dipole'])
--------------------------------------------------------------------------

    Molecular point group: c1
  Charge       = 0
  Multiplicity = 1
  Basis Set: AUG-CC-PVTZ
    Blend: AUG-CC-PVTZ
  Basis Set: (AUG-CC-PVTZ AUX)
    Blend: AUG-CC-PVTZ-JKFIT

    Orbital Energies [Eh]
    ---------------------

    Doubly Occupied:

       1A    -20.536246     2A    -15.603807     3A    -15.566974
       4A    -11.363797     5A    -11.312982     6A    -11.302461
       7A    -11.267365     8A    -11.265825     9A    -11.264489
      10A    -11.264391    11A    -11.256714    12A    -11.252468
      13A    -11.234042    14A     -1.394552    15A     -1.273690
      16A     -1.231192    17A     -1.162701    18A     -1.065330
      19A     -1.033709    20A     -1.010199    21A     -0.953133
      22A     -0.883623    23A     -0.855930    24A     -0.792587
      25A     -0.767231    26A     -0.726899    27A     -0.691676
      28A     -0.679548    29A     -0.656646    30A     -0.647512
      31A     -0.626240    32A     -0.617812    33A     -0.607669
      34A     -0.586585    35A     -0.566361    36A     -0.558338
      37A     -0.543255    38A     -0.538327    39A     -0.528602
      40A     -0.514626    41A     -0.459236    42A     -0.445575
      43A     -0.417805    44A     -0.406554    45A     -0.354351
      46A     -0.330360

  @DF-RHF Final Energy:  -568.46554607941073

   => Energetics <=

    Nuclear Repulsion Energy =            760.5909431551982607
    One-Electron Energy =               -2281.2741485171850400
    Two-Electron Energy =                 952.2176592825761645
    Total Energy =                       -568.4655460794107285
  Basis Set: (AUG-CC-PVTZ AUX)
    Blend: AUG-CC-PVTZ-RI
    Molecular point group: c1

    Geometry (in Angstrom), charge = 0, multiplicity = 1:

       Center              X                  Y                   Z               Mass
    ------------   -----------------  -----------------  -----------------  -----------------
         O            3.110100122698    -1.421830847083    -0.214145590876    15.994914619570
         N            0.868643122698    -1.223756847083    -0.589190590876    14.003074004430
         N            1.516881122698     1.492539152917     0.335335409124    14.003074004430
         C           -0.733762877302     0.534191152917     0.033901409124    12.000000000000
         C           -0.428760877302    -0.818597847083    -0.236155590876    12.000000000000
         C            0.296850122698     1.592115152917    -0.083691590876    12.000000000000
         C            1.882464122698     0.265561152917     1.039978409124    12.000000000000
         C           -2.065940877302     0.869247152917     0.337361409124    12.000000000000
         C           -1.450254877302    -1.781832847083    -0.230923590876    12.000000000000
         C            2.066551522698    -0.859647147083     0.053923609124    12.000000000000
         C           -0.096104877302     2.874971152917    -0.768842590876    12.000000000000
         C           -3.069605877302    -0.092720847083     0.362504409124    12.000000000000
         C           -2.760730877302    -1.423622847083     0.061817409124    12.000000000000
         H            0.959814122698    -2.062413847083    -1.157458590876     1.007825032230
         H            1.127441122698    -0.018988847083     1.789127409124     1.007825032230
         H            2.844498122698     0.411358152917     1.532427409124     1.007825032230
         H           -2.313057877302     1.904484152917     0.557568409124     1.007825032230
         H           -1.198559877302    -2.819126847083    -0.444507590876     1.007825032230
         H           -0.832204877302     3.431349152917    -0.178890590876     1.007825032230
         H           -0.541399877302     2.675399152917    -1.748348590876     1.007825032230
         H            0.795564122698     3.493003152917    -0.885328590876     1.007825032230
         H           -4.089436877302     0.191157152917     0.608427409124     1.007825032230
         H           -3.538472877302    -2.183212847083     0.067398409124     1.007825032230

  Basis Set: AUG-CC-PVTZ
    Blend: AUG-CC-PVTZ
  Basis Set: (AUG-CC-PVTZ AUX)
    Blend: AUG-CC-PVTZ-JKFIT
	 Reference Energy          =    -568.4655460794107285 [Eh]
	 Singles Energy            =      -0.0000000000000000 [Eh]
	 Same-Spin Energy          =      -0.6143510286741509 [Eh]
	 Opposite-Spin Energy      =      -1.8869357659717578 [Eh]
	 Correlation Energy        =      -2.5012867946459085 [Eh]
	 Total Energy              =    -570.9668328740566494 [Eh]

	 ================> DF-SCS-MP2 Energies <==================
	-----------------------------------------------------------
	 SCS Same-Spin Scale       =       0.3333333333333333 [-]
	 SCS Opposite-Spin Scale   =       1.2000000000000000 [-]
	 SCS Same-Spin Energy      =      -0.2047836762247170 [Eh]
	 SCS Opposite-Spin Energy  =      -2.2643229191661094 [Eh]
	 SCS Correlation Energy    =      -2.4691065953908264 [Eh]
	 SCS Total Energy          =    -570.9346526748015549 [Eh]
	-----------------------------------------------------------

  Dipole Moment: [D]
     X:    -4.9187      Y:    -0.2489      Z:     0.2613     Total:     4.9319

*** Psi4 exiting successfully. Buy a developer a beer!
