                               Psi4 1.3.2 release

  ==> Input File <==

--------------------------------------------------------------------------
#psi4
#
memory 32 gb

molecule  {
0 1
  O        3.1477550    -1.4485350    -0.2143050
  N        0.9062980    -1.2504610    -0.5893500
  N        1.5545360     1.4658350     0.3351760
  C       -0.6614943     0.4777334     0.0580550
  C       -0.3911060    -0.8453020    -0.2363150
  C        0.3345050     1.5654110    -0.0838510
  C        1.9201190     0.2388570     1.0398190
  C       -2.0282860     0.8425430     0.3372020
  C       -1.4126000    -1.8085370    -0.2310830
  C        2.0871850    -0.8915250     0.0446260
  C       -0.0584500     2.8482670    -0.7690020
  C       -3.0319510    -0.1194250     0.3623450
  C       -2.7230760    -1.4503270     0.0616580
  H        0.9974690    -2.0891180    -1.1576180
  H        1.1650960    -0.0456930     1.7889680
  H        2.8821530     0.3846540     1.5322680
  H       -2.2754030     1.8777800     0.5574090
  H       -1.1609050    -2.8458310    -0.4446670
  H       -0.7945500     3.4046450    -0.1790500
  H       -0.5037450     2.6486950    -1.7485080
  H        0.8332190     3.4662990    -0.8854880
  H       -4.0517820     0.1644530     0.6082680
  H       -3.5008180    -2.2099170     0.0672390
units angstrom
no_reorient  #important for SAPT in psi4, default
symmetry c1  #important for SAPT in psi4, default
}

set PROPERTIES_ORIGIN ["COM"]
properties('MP2/aug-cc-pvtz', properties = ['dipole'])
--------------------------------------------------------------------------

    Molecular point group: c1
  Charge       = 0
  Multiplicity = 1
  Basis Set: AUG-CC-PVTZ
    Blend: AUG-CC-PVTZ
  Basis Set: (AUG-CC-PVTZ AUX)
    Blend: AUG-CC-PVTZ-JKFIT

    Orbital Energies [Eh]
    ---------------------

    Doubly Occupied:

       1A    -20.531596     2A    -15.605932     3A    -15.565958
       4A    -11.362172     5A    -11.311483     6A    -11.302092
       7A    -11.269501     8A    -11.266489     9A    -11.265888
      10A    -11.265278    11A    -11.258721    12A    -11.253956
      13A    -11.235687    14A     -1.387006    15A     -1.277015
      16A     -1.232766    17A     -1.162951    18A     -1.064093
      19A     -1.033871    20A     -1.013465    21A     -0.951531
      22A     -0.886308    23A     -0.857971    24A     -0.795115
      25A     -0.767762    26A     -0.728528    27A     -0.690732
      28A     -0.677338    29A     -0.656758    30A     -0.650423
      31A     -0.622995    32A     -0.619260    33A     -0.604409
      34A     -0.586832    35A     -0.566762    36A     -0.558963
      37A     -0.542866    38A     -0.537172    39A     -0.527738
      40A     -0.519512    41A     -0.456825    42A     -0.444290
      43A     -0.417291    44A     -0.403819    45A     -0.351943
      46A     -0.335196

  @DF-RHF Final Energy:  -568.46343576922618

   => Energetics <=

    Nuclear Repulsion Energy =            761.0566750006064467
    One-Electron Energy =               -2282.1917043543735417
    Two-Electron Energy =                 952.6715935845409149
    Total Energy =                       -568.4634357692261801
  Basis Set: (AUG-CC-PVTZ AUX)
    Blend: AUG-CC-PVTZ-RI
    Molecular point group: c1

    Geometry (in Angstrom), charge = 0, multiplicity = 1:

       Center              X                  Y                   Z               Mass
    ------------   -----------------  -----------------  -----------------  -----------------
         O            3.108887413408    -1.419423165246    -0.215191651990    15.994914619570
         N            0.867430413408    -1.221349165246    -0.590236651990    14.003074004430
         N            1.515668413408     1.494946834754     0.334289348010    14.003074004430
         C           -0.700361886592     0.506845234754     0.057168348010    12.000000000000
         C           -0.429973586592    -0.816190165246    -0.237201651990    12.000000000000
         C            0.295637413408     1.594522834754    -0.084737651990    12.000000000000
         C            1.881251413408     0.267968834754     1.038932348010    12.000000000000
         C           -2.067153586592     0.871654834754     0.336315348010    12.000000000000
         C           -1.451467586592    -1.779425165246    -0.231969651990    12.000000000000
         C            2.048317413408    -0.862413165246     0.043739348010    12.000000000000
         C           -0.097317586592     2.877378834754    -0.769888651990    12.000000000000
         C           -3.070818586592    -0.090313165246     0.361458348010    12.000000000000
         C           -2.761943586592    -1.421215165246     0.060771348010    12.000000000000
         H            0.958601413408    -2.060006165246    -1.158504651990     1.007825032230
         H            1.126228413408    -0.016581165246     1.788081348010     1.007825032230
         H            2.843285413408     0.413765834754     1.531381348010     1.007825032230
         H           -2.314270586592     1.906891834754     0.556522348010     1.007825032230
         H           -1.199772586592    -2.816719165246    -0.445553651990     1.007825032230
         H           -0.833417586592     3.433756834754    -0.179936651990     1.007825032230
         H           -0.542612586592     2.677806834754    -1.749394651990     1.007825032230
         H            0.794351413408     3.495410834754    -0.886374651990     1.007825032230
         H           -4.090649586592     0.193564834754     0.607381348010     1.007825032230
         H           -3.539685586592    -2.180805165246     0.066352348010     1.007825032230

  Basis Set: AUG-CC-PVTZ
    Blend: AUG-CC-PVTZ
  Basis Set: (AUG-CC-PVTZ AUX)
    Blend: AUG-CC-PVTZ-JKFIT
	 Reference Energy          =    -568.4634357692261801 [Eh]
	 Singles Energy            =      -0.0000000000000000 [Eh]
	 Same-Spin Energy          =      -0.6143961567437617 [Eh]
	 Opposite-Spin Energy      =      -1.8873660087961650 [Eh]
	 Correlation Energy        =      -2.5017621655399269 [Eh]
	 Total Energy              =    -570.9651979347661381 [Eh]

	 ================> DF-SCS-MP2 Energies <==================
	-----------------------------------------------------------
	 SCS Same-Spin Scale       =       0.3333333333333333 [-]
	 SCS Opposite-Spin Scale   =       1.2000000000000000 [-]
	 SCS Same-Spin Energy      =      -0.2047987189145872 [Eh]
	 SCS Opposite-Spin Energy  =      -2.2648392105553978 [Eh]
	 SCS Correlation Energy    =      -2.4696379294699851 [Eh]
	 SCS Total Energy          =    -570.9330736986961483 [Eh]
	-----------------------------------------------------------

  Dipole Moment: [D]
     X:    -5.1546      Y:    -0.2191      Z:     0.2083     Total:     5.1634

*** Psi4 exiting successfully. Buy a developer a beer!
