                               Psi4 1.3.2 release

  ==> Input File <==

--------------------------------------------------------------------------
#psi4
#
memory 32 gb

molecule  {
0 1
  O        3.1477550    -1.4485350    -0.2143050
  N        0.9062980    -1.2504610    -0.5893500
  N        1.5545360     1.4658350     0.3351760
  C       -0.6961080     0.5074870     0.0337420
  C       -0.4378501    -0.8570290    -0.2258614
  C        0.3345050     1.5654110    -0.0838510
  C        1.9201190     0.2388570     1.0398190
  C       -2.0282860     0.8425430     0.3372020
  C       -1.4126000    -1.8085370    -0.2310830
  C        2.0871850    -0.8915250     0.0446260
  C       -0.0584500     2.8482670    -0.7690020
  C       -3.0319510    -0.1194250     0.3623450
  C       -2.7230760    -1.4503270     0.0616580
  H        0.9974690    -2.0891180    -1.1576180
  H        1.1650960    -0.0456930     1.7889680
  H        2.8821530     0.3846540     1.5322680
  H       -2.2754030     1.8777800     0.5574090
  H       -1.1609050    -2.8458310    -0.4446670
  H       -0.7945500     3.4046450    -0.1790500
  H       -0.5037450     2.6486950    -1.7485080
  H        0.8332190     3.4662990    -0.8854880
  H       -4.0517820     0.1644530     0.6082680
  H       -3.5008180    -2.2099170     0.0672390
units angstrom
no_reorient  #important for SAPT in psi4, default
symmetry c1  #important for SAPT in psi4, default
}

set PROPERTIES_ORIGIN ["COM"]
properties('MP2/aug-cc-pvtz', properties = ['dipole'])
--------------------------------------------------------------------------

    Molecular point group: c1
  Charge       = 0
  Multiplicity = 1
  Basis Set: AUG-CC-PVTZ
    Blend: AUG-CC-PVTZ
  Basis Set: (AUG-CC-PVTZ AUX)
    Blend: AUG-CC-PVTZ-JKFIT

    Orbital Energies [Eh]
    ---------------------

    Doubly Occupied:

       1A    -20.529297     2A    -15.602775     3A    -15.567707
       4A    -11.360000     5A    -11.312148     6A    -11.303567
       7A    -11.268211     8A    -11.267001     9A    -11.266847
      10A    -11.266110    11A    -11.255626    12A    -11.255264
      13A    -11.234921    14A     -1.383803    15A     -1.268522
      16A     -1.228979    17A     -1.168116    18A     -1.066936
      19A     -1.040302    20A     -1.011610    21A     -0.950871
      22A     -0.886577    23A     -0.854744    24A     -0.793194
      25A     -0.769891    26A     -0.723889    27A     -0.688780
      28A     -0.676403    29A     -0.658246    30A     -0.649243
      31A     -0.628456    32A     -0.617652    33A     -0.601345
      34A     -0.586800    35A     -0.564389    36A     -0.559072
      37A     -0.545205    38A     -0.537568    39A     -0.529352
      40A     -0.518276    41A     -0.455382    42A     -0.440224
      43A     -0.418713    44A     -0.405094    45A     -0.356291
      46A     -0.337236

  @DF-RHF Final Energy:  -568.46296405103453

   => Energetics <=

    Nuclear Repulsion Energy =            760.5523975901359108
    One-Electron Energy =               -2281.2094536016447819
    Two-Electron Energy =                 952.1940919604742248
    Total Energy =                       -568.4629640510345325
  Basis Set: (AUG-CC-PVTZ AUX)
    Blend: AUG-CC-PVTZ-RI
    Molecular point group: c1

    Geometry (in Angstrom), charge = 0, multiplicity = 1:

       Center              X                  Y                   Z               Mass
    ------------   -----------------  -----------------  -----------------  -----------------
         O            3.114495739771    -1.420665812613    -0.214236266786    15.994914619570
         N            0.873038739771    -1.222591812613    -0.589281266786    14.003074004430
         N            1.521276739771     1.493704187387     0.335244733214    14.003074004430
         C           -0.729367260229     0.535356187387     0.033810733214    12.000000000000
         C           -0.471109360229    -0.829159812613    -0.225792666786    12.000000000000
         C            0.301245739771     1.593280187387    -0.083782266786    12.000000000000
         C            1.886859739771     0.266726187387     1.039887733214    12.000000000000
         C           -2.061545260229     0.870412187387     0.337270733214    12.000000000000
         C           -1.445859260229    -1.780667812613    -0.231014266786    12.000000000000
         C            2.053925739771    -0.863655812613     0.044694733214    12.000000000000
         C           -0.091709260229     2.876136187387    -0.768933266786    12.000000000000
         C           -3.065210260229    -0.091555812613     0.362413733214    12.000000000000
         C           -2.756335260229    -1.422457812613     0.061726733214    12.000000000000
         H            0.964209739771    -2.061248812613    -1.157549266786     1.007825032230
         H            1.131836739771    -0.017823812613     1.789036733214     1.007825032230
         H            2.848893739771     0.412523187387     1.532336733214     1.007825032230
         H           -2.308662260229     1.905649187387     0.557477733214     1.007825032230
         H           -1.194164260229    -2.817961812613    -0.444598266786     1.007825032230
         H           -0.827809260229     3.432514187387    -0.178981266786     1.007825032230
         H           -0.537004260229     2.676564187387    -1.748439266786     1.007825032230
         H            0.799959739771     3.494168187387    -0.885419266786     1.007825032230
         H           -4.085041260229     0.192322187387     0.608336733214     1.007825032230
         H           -3.534077260229    -2.182047812613     0.067307733214     1.007825032230

  Basis Set: AUG-CC-PVTZ
    Blend: AUG-CC-PVTZ
  Basis Set: (AUG-CC-PVTZ AUX)
    Blend: AUG-CC-PVTZ-JKFIT
	 Reference Energy          =    -568.4629640510345325 [Eh]
	 Singles Energy            =      -0.0000000000000000 [Eh]
	 Same-Spin Energy          =      -0.6141625629624429 [Eh]
	 Opposite-Spin Energy      =      -1.8870356099832886 [Eh]
	 Correlation Energy        =      -2.5011981729457315 [Eh]
	 Total Energy              =    -570.9641622239802246 [Eh]

	 ================> DF-SCS-MP2 Energies <==================
	-----------------------------------------------------------
	 SCS Same-Spin Scale       =       0.3333333333333333 [-]
	 SCS Opposite-Spin Scale   =       1.2000000000000000 [-]
	 SCS Same-Spin Energy      =      -0.2047208543208143 [Eh]
	 SCS Opposite-Spin Energy  =      -2.2644427319799463 [Eh]
	 SCS Correlation Energy    =      -2.4691635863007604 [Eh]
	 SCS Total Energy          =    -570.9321276373352703 [Eh]
	-----------------------------------------------------------

  Dipole Moment: [D]
     X:    -5.3188      Y:    -0.1887      Z:     0.2704     Total:     5.3290

*** Psi4 exiting successfully. Buy a developer a beer!
