                               Psi4 1.3.2 release

  ==> Input File <==

--------------------------------------------------------------------------
#psi4
#
memory 32 gb

molecule  {
0 1
  O        3.1477550    -1.4485350    -0.2143050
  N        0.9062980    -1.2504610    -0.5893500
  N        1.5499846     1.4451075     0.3428937
  C       -0.6961080     0.5074870     0.0337420
  C       -0.3911060    -0.8453020    -0.2363150
  C        0.3345050     1.5654110    -0.0838510
  C        1.9201190     0.2388570     1.0398190
  C       -2.0282860     0.8425430     0.3372020
  C       -1.4126000    -1.8085370    -0.2310830
  C        2.0871850    -0.8915250     0.0446260
  C       -0.0584500     2.8482670    -0.7690020
  C       -3.0319510    -0.1194250     0.3623450
  C       -2.7230760    -1.4503270     0.0616580
  H        0.9974690    -2.0891180    -1.1576180
  H        1.1650960    -0.0456930     1.7889680
  H        2.8821530     0.3846540     1.5322680
  H       -2.2754030     1.8777800     0.5574090
  H       -1.1609050    -2.8458310    -0.4446670
  H       -0.7945500     3.4046450    -0.1790500
  H       -0.5037450     2.6486950    -1.7485080
  H        0.8332190     3.4662990    -0.8854880
  H       -4.0517820     0.1644530     0.6082680
  H       -3.5008180    -2.2099170     0.0672390
units angstrom
no_reorient  #important for SAPT in psi4, default
symmetry c1  #important for SAPT in psi4, default
}

set PROPERTIES_ORIGIN ["COM"]
properties('MP2/aug-cc-pvtz', properties = ['dipole'])
--------------------------------------------------------------------------

    Molecular point group: c1
  Charge       = 0
  Multiplicity = 1
  Basis Set: AUG-CC-PVTZ
    Blend: AUG-CC-PVTZ
  Basis Set: (AUG-CC-PVTZ AUX)
    Blend: AUG-CC-PVTZ-JKFIT

    Orbital Energies [Eh]
    ---------------------

    Doubly Occupied:

       1A    -20.532125     2A    -15.606869     3A    -15.565035
       4A    -11.362362     5A    -11.314027     6A    -11.302739
       7A    -11.266269     8A    -11.266219     9A    -11.265098
      10A    -11.264985    11A    -11.257998    12A    -11.253461
      13A    -11.235102    14A     -1.387449    15A     -1.276748
      16A     -1.234707    17A     -1.164421    18A     -1.066836
      19A     -1.034993    20A     -1.011450    21A     -0.951741
      22A     -0.885852    23A     -0.857755    24A     -0.795557
      25A     -0.768950    26A     -0.728754    27A     -0.692687
      28A     -0.678419    29A     -0.657365    30A     -0.648839
      31A     -0.625960    32A     -0.619746    33A     -0.605204
      34A     -0.586818    35A     -0.566765    36A     -0.558959
      37A     -0.545125    38A     -0.539571    39A     -0.527935
      40A     -0.515717    41A     -0.458027    42A     -0.444434
      43A     -0.415441    44A     -0.403963    45A     -0.354339
      46A     -0.331931

  @DF-RHF Final Energy:  -568.46575717896144

   => Energetics <=

    Nuclear Repulsion Energy =            761.2178244124207822
    One-Electron Energy =               -2282.4976638060229561
    Two-Electron Energy =                 952.8140822146408482
    Total Energy =                       -568.4657571789614394
  Basis Set: (AUG-CC-PVTZ AUX)
    Blend: AUG-CC-PVTZ-RI
    Molecular point group: c1

    Geometry (in Angstrom), charge = 0, multiplicity = 1:

       Center              X                  Y                   Z               Mass
    ------------   -----------------  -----------------  -----------------  -----------------
         O            3.111639595634    -1.419806866689    -0.214136475056    15.994914619570
         N            0.870182595634    -1.221732866689    -0.589181475056    14.003074004430
         N            1.513869195634     1.473835633311     0.343062224944    14.003074004430
         C           -0.732223404366     0.536215133311     0.033910524944    12.000000000000
         C           -0.427221404366    -0.816573866689    -0.236146475056    12.000000000000
         C            0.298389595634     1.594139133311    -0.083682475056    12.000000000000
         C            1.884003595634     0.267585133311     1.039987524944    12.000000000000
         C           -2.064401404366     0.871271133311     0.337370524944    12.000000000000
         C           -1.448715404366    -1.779808866689    -0.230914475056    12.000000000000
         C            2.051069595634    -0.862796866689     0.044794524944    12.000000000000
         C           -0.094565404366     2.876995133311    -0.768833475056    12.000000000000
         C           -3.068066404366    -0.090696866689     0.362513524944    12.000000000000
         C           -2.759191404366    -1.421598866689     0.061826524944    12.000000000000
         H            0.961353595634    -2.060389866689    -1.157449475056     1.007825032230
         H            1.128980595634    -0.016964866689     1.789136524944     1.007825032230
         H            2.846037595634     0.413382133311     1.532436524944     1.007825032230
         H           -2.311518404366     1.906508133311     0.557577524944     1.007825032230
         H           -1.197020404366    -2.817102866689    -0.444498475056     1.007825032230
         H           -0.830665404366     3.433373133311    -0.178881475056     1.007825032230
         H           -0.539860404366     2.677423133311    -1.748339475056     1.007825032230
         H            0.797103595634     3.495027133311    -0.885319475056     1.007825032230
         H           -4.087897404366     0.193181133311     0.608436524944     1.007825032230
         H           -3.536933404366    -2.181188866689     0.067407524944     1.007825032230

  Basis Set: AUG-CC-PVTZ
    Blend: AUG-CC-PVTZ
  Basis Set: (AUG-CC-PVTZ AUX)
    Blend: AUG-CC-PVTZ-JKFIT
	 Reference Energy          =    -568.4657571789614394 [Eh]
	 Singles Energy            =      -0.0000000000000000 [Eh]
	 Same-Spin Energy          =      -0.6145402457551233 [Eh]
	 Opposite-Spin Energy      =      -1.8868890986579725 [Eh]
	 Correlation Energy        =      -2.5014293444130957 [Eh]
	 Total Energy              =    -570.9671865233744938 [Eh]

	 ================> DF-SCS-MP2 Energies <==================
	-----------------------------------------------------------
	 SCS Same-Spin Scale       =       0.3333333333333333 [-]
	 SCS Opposite-Spin Scale   =       1.2000000000000000 [-]
	 SCS Same-Spin Energy      =      -0.2048467485850411 [Eh]
	 SCS Opposite-Spin Energy  =      -2.2642669183895667 [Eh]
	 SCS Correlation Energy    =      -2.4691136669746077 [Eh]
	 SCS Total Energy          =    -570.9348708459360751 [Eh]
	-----------------------------------------------------------

  Dipole Moment: [D]
     X:    -5.0920      Y:    -0.2033      Z:     0.2108     Total:     5.1004

*** Psi4 exiting successfully. Buy a developer a beer!
