                               Psi4 1.3.2 release

  ==> Input File <==

--------------------------------------------------------------------------
#psi4
#
memory 32 gb

molecule  {
0 1
  O        3.1477550    -1.4485350    -0.2143050
  N        0.9473274    -1.1109204    -0.5681095
  N        1.5545360     1.4658350     0.3351760
  C       -0.6961080     0.5074870     0.0337420
  C       -0.3911060    -0.8453020    -0.2363150
  C        0.3345050     1.5654110    -0.0838510
  C        1.9201190     0.2388570     1.0398190
  C       -2.0282860     0.8425430     0.3372020
  C       -1.4126000    -1.8085370    -0.2310830
  C        2.0871850    -0.8915250     0.0446260
  C       -0.0584500     2.8482670    -0.7690020
  C       -3.0319510    -0.1194250     0.3623450
  C       -2.7230760    -1.4503270     0.0616580
  H        0.9974690    -2.0891180    -1.1576180
  H        1.1650960    -0.0456930     1.7889680
  H        2.8821530     0.3846540     1.5322680
  H       -2.2754030     1.8777800     0.5574090
  H       -1.1609050    -2.8458310    -0.4446670
  H       -0.7945500     3.4046450    -0.1790500
  H       -0.5037450     2.6486950    -1.7485080
  H        0.8332190     3.4662990    -0.8854880
  H       -4.0517820     0.1644530     0.6082680
  H       -3.5008180    -2.2099170     0.0672390
units angstrom
no_reorient  #important for SAPT in psi4, default
symmetry c1  #important for SAPT in psi4, default
}

set PROPERTIES_ORIGIN ["COM"]
properties('MP2/aug-cc-pvtz', properties = ['dipole'])
--------------------------------------------------------------------------

    Molecular point group: c1
  Charge       = 0
  Multiplicity = 1
  Basis Set: AUG-CC-PVTZ
    Blend: AUG-CC-PVTZ
  Basis Set: (AUG-CC-PVTZ AUX)
    Blend: AUG-CC-PVTZ-JKFIT

    Orbital Energies [Eh]
    ---------------------

    Doubly Occupied:

       1A    -20.524818     2A    -15.618535     3A    -15.566579
       4A    -11.353763     5A    -11.318522     6A    -11.300993
       7A    -11.269174     8A    -11.267639     9A    -11.266244
      10A    -11.265327    11A    -11.260963    12A    -11.257266
      13A    -11.233875    14A     -1.388610    15A     -1.284248
      16A     -1.230938    17A     -1.170185    18A     -1.067627
      19A     -1.042823    20A     -1.010058    21A     -0.949077
      22A     -0.890346    23A     -0.867073    24A     -0.794373
      25A     -0.764416    26A     -0.721972    27A     -0.693182
      28A     -0.675801    29A     -0.662664    30A     -0.644262
      31A     -0.628262    32A     -0.618845    33A     -0.590867
      34A     -0.585996    35A     -0.567739    36A     -0.559389
      37A     -0.543986    38A     -0.538708    39A     -0.529461
      40A     -0.510436    41A     -0.456317    42A     -0.443884
      43A     -0.416952    44A     -0.402188    45A     -0.356315
      46A     -0.338196

  @DF-RHF Final Energy:  -568.43993280344591

   => Energetics <=

    Nuclear Repulsion Energy =            762.9430055186129493
    One-Electron Energy =               -2285.8680839597918748
    Two-Electron Energy =                 954.4851456377328986
    Total Energy =                       -568.4399328034459131
  Basis Set: (AUG-CC-PVTZ AUX)
    Blend: AUG-CC-PVTZ-RI
    Molecular point group: c1

    Geometry (in Angstrom), charge = 0, multiplicity = 1:

       Center              X                  Y                   Z               Mass
    ------------   -----------------  -----------------  -----------------  -----------------
         O            3.107973040977    -1.432698956086    -0.215224259503    15.994914619570
         N            0.907545440977    -1.095084356086    -0.569028759503    14.003074004430
         N            1.514754040977     1.481671043914     0.334256740497    14.003074004430
         C           -0.735889959023     0.523323043914     0.032822740497    12.000000000000
         C           -0.430887959023    -0.829465956086    -0.237234259503    12.000000000000
         C            0.294723040977     1.581247043914    -0.084770259503    12.000000000000
         C            1.880337040977     0.254693043914     1.038899740497    12.000000000000
         C           -2.068067959023     0.858379043914     0.336282740497    12.000000000000
         C           -1.452381959023    -1.792700956086    -0.232002259503    12.000000000000
         C            2.047403040977    -0.875688956086     0.043706740497    12.000000000000
         C           -0.098231959023     2.864103043914    -0.769921259503    12.000000000000
         C           -3.071732959023    -0.103588956086     0.361425740497    12.000000000000
         C           -2.762857959023    -1.434490956086     0.060738740497    12.000000000000
         H            0.957687040977    -2.073281956086    -1.158537259503     1.007825032230
         H            1.125314040977    -0.029856956086     1.788048740497     1.007825032230
         H            2.842371040977     0.400490043914     1.531348740497     1.007825032230
         H           -2.315184959023     1.893616043914     0.556489740497     1.007825032230
         H           -1.200686959023    -2.829994956086    -0.445586259503     1.007825032230
         H           -0.834331959023     3.420481043914    -0.179969259503     1.007825032230
         H           -0.543526959023     2.664531043914    -1.749427259503     1.007825032230
         H            0.793437040977     3.482135043914    -0.886407259503     1.007825032230
         H           -4.091563959023     0.180289043914     0.607348740497     1.007825032230
         H           -3.540599959023    -2.194080956086     0.066319740497     1.007825032230

  Basis Set: AUG-CC-PVTZ
    Blend: AUG-CC-PVTZ
  Basis Set: (AUG-CC-PVTZ AUX)
    Blend: AUG-CC-PVTZ-JKFIT
	 Reference Energy          =    -568.4399328034459131 [Eh]
	 Singles Energy            =      -0.0000000000000000 [Eh]
	 Same-Spin Energy          =      -0.6164659889583181 [Eh]
	 Opposite-Spin Energy      =      -1.8906521652445325 [Eh]
	 Correlation Energy        =      -2.5071181542028507 [Eh]
	 Total Energy              =    -570.9470509576487984 [Eh]

	 ================> DF-SCS-MP2 Energies <==================
	-----------------------------------------------------------
	 SCS Same-Spin Scale       =       0.3333333333333333 [-]
	 SCS Opposite-Spin Scale   =       1.2000000000000000 [-]
	 SCS Same-Spin Energy      =      -0.2054886629861060 [Eh]
	 SCS Opposite-Spin Energy  =      -2.2687825982934391 [Eh]
	 SCS Correlation Energy    =      -2.4742712612795450 [Eh]
	 SCS Total Energy          =    -570.9142040647254817 [Eh]
	-----------------------------------------------------------

  Dipole Moment: [D]
     X:    -5.5575      Y:    -0.3311      Z:     0.2091     Total:     5.5713

*** Psi4 exiting successfully. Buy a developer a beer!
