                               Psi4 1.3.2 release

  ==> Input File <==

--------------------------------------------------------------------------
#psi4
#
memory 32 gb

molecule  {
0 1
  O        3.1477550    -1.4485350    -0.2143050
  N        0.9062980    -1.2504610    -0.5893500
  N        1.5545360     1.4658350     0.3351760
  C       -0.6961080     0.5074870     0.0337420
  C       -0.2973072    -0.9558546    -0.2122761
  C        0.3345050     1.5654110    -0.0838510
  C        1.9201190     0.2388570     1.0398190
  C       -2.0282860     0.8425430     0.3372020
  C       -1.4126000    -1.8085370    -0.2310830
  C        2.0871850    -0.8915250     0.0446260
  C       -0.0584500     2.8482670    -0.7690020
  C       -3.0319510    -0.1194250     0.3623450
  C       -2.7230760    -1.4503270     0.0616580
  H        0.9974690    -2.0891180    -1.1576180
  H        1.1650960    -0.0456930     1.7889680
  H        2.8821530     0.3846540     1.5322680
  H       -2.2754030     1.8777800     0.5574090
  H       -1.1609050    -2.8458310    -0.4446670
  H       -0.7945500     3.4046450    -0.1790500
  H       -0.5037450     2.6486950    -1.7485080
  H        0.8332190     3.4662990    -0.8854880
  H       -4.0517820     0.1644530     0.6082680
  H       -3.5008180    -2.2099170     0.0672390
units angstrom
no_reorient  #important for SAPT in psi4, default
symmetry c1  #important for SAPT in psi4, default
}

set PROPERTIES_ORIGIN ["COM"]
properties('MP2/aug-cc-pvtz', properties = ['dipole'])
--------------------------------------------------------------------------

    Molecular point group: c1
  Charge       = 0
  Multiplicity = 1
  Basis Set: AUG-CC-PVTZ
    Blend: AUG-CC-PVTZ
  Basis Set: (AUG-CC-PVTZ AUX)
    Blend: AUG-CC-PVTZ-JKFIT

    Orbital Energies [Eh]
    ---------------------

    Doubly Occupied:

       1A    -20.543013     2A    -15.616895     3A    -15.564322
       4A    -11.371811     5A    -11.320146     6A    -11.300124
       7A    -11.270362     8A    -11.269617     9A    -11.264246
      10A    -11.263912    11A    -11.253630    12A    -11.248686
      13A    -11.232181    14A     -1.400697    15A     -1.306808
      16A     -1.238756    17A     -1.154408    18A     -1.059806
      19A     -1.036039    20A     -1.000240    21A     -0.954648
      22A     -0.893477    23A     -0.860043    24A     -0.803549
      25A     -0.759641    26A     -0.747630    27A     -0.694884
      28A     -0.682567    29A     -0.661742    30A     -0.636108
      31A     -0.621670    32A     -0.619632    33A     -0.614989
      34A     -0.586672    35A     -0.573664    36A     -0.557562
      37A     -0.543256    38A     -0.537995    39A     -0.522283
      40A     -0.498902    41A     -0.465312    42A     -0.456161
      43A     -0.414945    44A     -0.407318    45A     -0.352083
      46A     -0.315633

  @DF-RHF Final Energy:  -568.43966368916381

   => Energetics <=

    Nuclear Repulsion Energy =            760.3412871444849088
    One-Electron Energy =               -2280.5657701050749893
    Two-Electron Energy =                 951.7848192714263860
    Total Energy =                       -568.4396636891638082
  Basis Set: (AUG-CC-PVTZ AUX)
    Blend: AUG-CC-PVTZ-RI
    Molecular point group: c1

    Geometry (in Angstrom), charge = 0, multiplicity = 1:

       Center              X                  Y                   Z               Mass
    ------------   -----------------  -----------------  -----------------  -----------------
         O            3.104807542067    -1.413853359256    -0.215172757154    15.994914619570
         N            0.863350542067    -1.215779359256    -0.590217757154    14.003074004430
         N            1.511588542067     1.500516640744     0.334308242846    14.003074004430
         C           -0.739055457933     0.542168640744     0.032874242846    12.000000000000
         C           -0.340254657933    -0.921172959256    -0.213143857154    12.000000000000
         C            0.291557542067     1.600092640744    -0.084718757154    12.000000000000
         C            1.877171542067     0.273538640744     1.038951242846    12.000000000000
         C           -2.071233457933     0.877224640744     0.336334242846    12.000000000000
         C           -1.455547457933    -1.773855359256    -0.231950757154    12.000000000000
         C            2.044237542067    -0.856843359256     0.043758242846    12.000000000000
         C           -0.101397457933     2.882948640744    -0.769869757154    12.000000000000
         C           -3.074898457933    -0.084743359256     0.361477242846    12.000000000000
         C           -2.766023457933    -1.415645359256     0.060790242846    12.000000000000
         H            0.954521542067    -2.054436359256    -1.158485757154     1.007825032230
         H            1.122148542067    -0.011011359256     1.788100242846     1.007825032230
         H            2.839205542067     0.419335640744     1.531400242846     1.007825032230
         H           -2.318350457933     1.912461640744     0.556541242846     1.007825032230
         H           -1.203852457933    -2.811149359256    -0.445534757154     1.007825032230
         H           -0.837497457933     3.439326640744    -0.179917757154     1.007825032230
         H           -0.546692457933     2.683376640744    -1.749375757154     1.007825032230
         H            0.790271542067     3.500980640744    -0.886355757154     1.007825032230
         H           -4.094729457933     0.199134640744     0.607400242846     1.007825032230
         H           -3.543765457933    -2.175235359256     0.066371242846     1.007825032230

  Basis Set: AUG-CC-PVTZ
    Blend: AUG-CC-PVTZ
  Basis Set: (AUG-CC-PVTZ AUX)
    Blend: AUG-CC-PVTZ-JKFIT
	 Reference Energy          =    -568.4396636891638082 [Eh]
	 Singles Energy            =      -0.0000000000000000 [Eh]
	 Same-Spin Energy          =      -0.6164649686041169 [Eh]
	 Opposite-Spin Energy      =      -1.8896680661576752 [Eh]
	 Correlation Energy        =      -2.5061330347617923 [Eh]
	 Total Energy              =    -570.9457967239255822 [Eh]

	 ================> DF-SCS-MP2 Energies <==================
	-----------------------------------------------------------
	 SCS Same-Spin Scale       =       0.3333333333333333 [-]
	 SCS Opposite-Spin Scale   =       1.2000000000000000 [-]
	 SCS Same-Spin Energy      =      -0.2054883228680390 [Eh]
	 SCS Opposite-Spin Energy  =      -2.2676016793892102 [Eh]
	 SCS Correlation Energy    =      -2.4730900022572491 [Eh]
	 SCS Total Energy          =    -570.9127536914210168 [Eh]
	-----------------------------------------------------------

  Dipole Moment: [D]
     X:    -4.5194      Y:    -0.4355      Z:     0.1412     Total:     4.5426

*** Psi4 exiting successfully. Buy a developer a beer!
