                               Psi4 1.3.2 release

  ==> Input File <==

--------------------------------------------------------------------------
#psi4
#
memory 32 gb

molecule  {
0 1
  O        3.1477550    -1.4485350    -0.2143050
  N        0.9062980    -1.2504610    -0.5893500
  N        1.5545360     1.4658350     0.3351760
  C       -0.6961080     0.5074870     0.0337420
  C       -0.3911060    -0.8453020    -0.2363150
  C        0.3345050     1.5654110    -0.0838510
  C        1.9201190     0.2388570     1.0398190
  C       -2.1229825     0.8663601     0.3587731
  C       -1.4126000    -1.8085370    -0.2310830
  C        2.0871850    -0.8915250     0.0446260
  C       -0.0584500     2.8482670    -0.7690020
  C       -3.0319510    -0.1194250     0.3623450
  C       -2.7230760    -1.4503270     0.0616580
  H        0.9974690    -2.0891180    -1.1576180
  H        1.1650960    -0.0456930     1.7889680
  H        2.8821530     0.3846540     1.5322680
  H       -2.2754030     1.8777800     0.5574090
  H       -1.1609050    -2.8458310    -0.4446670
  H       -0.7945500     3.4046450    -0.1790500
  H       -0.5037450     2.6486950    -1.7485080
  H        0.8332190     3.4662990    -0.8854880
  H       -4.0517820     0.1644530     0.6082680
  H       -3.5008180    -2.2099170     0.0672390
units angstrom
no_reorient  #important for SAPT in psi4, default
symmetry c1  #important for SAPT in psi4, default
}

set PROPERTIES_ORIGIN ["COM"]
properties('MP2/aug-cc-pvtz', properties = ['dipole'])
--------------------------------------------------------------------------

    Molecular point group: c1
  Charge       = 0
  Multiplicity = 1
  Basis Set: AUG-CC-PVTZ
    Blend: AUG-CC-PVTZ
  Basis Set: (AUG-CC-PVTZ AUX)
    Blend: AUG-CC-PVTZ-JKFIT

    Orbital Energies [Eh]
    ---------------------

    Doubly Occupied:

       1A    -20.531588     2A    -15.607112     3A    -15.566022
       4A    -11.362137     5A    -11.314334     6A    -11.301535
       7A    -11.271971     8A    -11.267422     9A    -11.266356
      10A    -11.266041    11A    -11.261140    12A    -11.250189
      13A    -11.234057    14A     -1.386984    15A     -1.274900
      16A     -1.231992    17A     -1.161864    18A     -1.060201
      19A     -1.042162    20A     -1.007133    21A     -0.951709
      22A     -0.890940    23A     -0.855050    24A     -0.794403
      25A     -0.764549    26A     -0.733869    27A     -0.690610
      28A     -0.677284    29A     -0.662948    30A     -0.649113
      31A     -0.622416    32A     -0.617251    33A     -0.606345
      34A     -0.585985    35A     -0.567996    36A     -0.562948
      37A     -0.544917    38A     -0.530575    39A     -0.524064
      40A     -0.516041    41A     -0.456290    42A     -0.446271
      43A     -0.416770    44A     -0.402928    45A     -0.351394
      46A     -0.335041

  @DF-RHF Final Energy:  -568.45419733482936

   => Energetics <=

    Nuclear Repulsion Energy =            759.1287166852865766
    One-Electron Energy =               -2278.3201257576697571
    Two-Electron Energy =                 950.7372117375537073
    Total Energy =                       -568.4541973348293595
  Basis Set: (AUG-CC-PVTZ AUX)
    Blend: AUG-CC-PVTZ-RI
    Molecular point group: c1

    Geometry (in Angstrom), charge = 0, multiplicity = 1:

       Center              X                  Y                   Z               Mass
    ------------   -----------------  -----------------  -----------------  -----------------
         O            3.117801295097    -1.423116013001    -0.215002641593    15.994914619570
         N            0.876344295097    -1.225042013001    -0.590047641593    14.003074004430
         N            1.524582295097     1.491253986999     0.334478358407    14.003074004430
         C           -0.726061704903     0.532905986999     0.033044358407    12.000000000000
         C           -0.421059704903    -0.819883013001    -0.237012641593    12.000000000000
         C            0.304551295097     1.590829986999    -0.084548641593    12.000000000000
         C            1.890165295097     0.264275986999     1.039121358407    12.000000000000
         C           -2.152936204903     0.891779086999     0.358075458407    12.000000000000
         C           -1.442553704903    -1.783118013001    -0.231780641593    12.000000000000
         C            2.057231295097    -0.866106013001     0.043928358407    12.000000000000
         C           -0.088403704903     2.873685986999    -0.769699641593    12.000000000000
         C           -3.061904704903    -0.094006013001     0.361647358407    12.000000000000
         C           -2.753029704903    -1.424908013001     0.060960358407    12.000000000000
         H            0.967515295097    -2.063699013001    -1.158315641593     1.007825032230
         H            1.135142295097    -0.020274013001     1.788270358407     1.007825032230
         H            2.852199295097     0.410072986999     1.531570358407     1.007825032230
         H           -2.305356704903     1.903198986999     0.556711358407     1.007825032230
         H           -1.190858704903    -2.820412013001    -0.445364641593     1.007825032230
         H           -0.824503704903     3.430063986999    -0.179747641593     1.007825032230
         H           -0.533698704903     2.674113986999    -1.749205641593     1.007825032230
         H            0.803265295097     3.491717986999    -0.886185641593     1.007825032230
         H           -4.081735704903     0.189871986999     0.607570358407     1.007825032230
         H           -3.530771704903    -2.184498013001     0.066541358407     1.007825032230

  Basis Set: AUG-CC-PVTZ
    Blend: AUG-CC-PVTZ
  Basis Set: (AUG-CC-PVTZ AUX)
    Blend: AUG-CC-PVTZ-JKFIT
	 Reference Energy          =    -568.4541973348293595 [Eh]
	 Singles Energy            =      -0.0000000000000000 [Eh]
	 Same-Spin Energy          =      -0.6142981157773825 [Eh]
	 Opposite-Spin Energy      =      -1.8878097849088986 [Eh]
	 Correlation Energy        =      -2.5021079006862812 [Eh]
	 Total Energy              =    -570.9563052355156287 [Eh]

	 ================> DF-SCS-MP2 Energies <==================
	-----------------------------------------------------------
	 SCS Same-Spin Scale       =       0.3333333333333333 [-]
	 SCS Opposite-Spin Scale   =       1.2000000000000000 [-]
	 SCS Same-Spin Energy      =      -0.2047660385924608 [Eh]
	 SCS Opposite-Spin Energy  =      -2.2653717418906782 [Eh]
	 SCS Correlation Energy    =      -2.4701377804831393 [Eh]
	 SCS Total Energy          =    -570.9243351153124877 [Eh]
	-----------------------------------------------------------

  Dipole Moment: [D]
     X:    -5.1535      Y:    -0.2603      Z:     0.2195     Total:     5.1648

*** Psi4 exiting successfully. Buy a developer a beer!
