                               Psi4 1.4a3.dev225

  ==> Input File <==

--------------------------------------------------------------------------
#psi4
#
memory 32 gb

molecule  {
0 1
  O        3.1477550    -1.4485350    -0.2143050
  N        0.9062980    -1.2504610    -0.5893500
  N        1.5545360     1.4658350     0.3351760
  C       -0.6961080     0.5074870     0.0337420
  C       -0.3911060    -0.8453020    -0.2363150
  C        0.3345050     1.5654110    -0.0838510
  C        1.9201190     0.2388570     1.0398190
  C       -2.0282860     0.8425430     0.3372020
  C       -1.4126000    -1.8085370    -0.2310830
  C        2.1304521    -0.9142488     0.0340626
  C       -0.0584500     2.8482670    -0.7690020
  C       -3.0319510    -0.1194250     0.3623450
  C       -2.7230760    -1.4503270     0.0616580
  H        0.9974690    -2.0891180    -1.1576180
  H        1.1650960    -0.0456930     1.7889680
  H        2.8821530     0.3846540     1.5322680
  H       -2.2754030     1.8777800     0.5574090
  H       -1.1609050    -2.8458310    -0.4446670
  H       -0.7945500     3.4046450    -0.1790500
  H       -0.5037450     2.6486950    -1.7485080
  H        0.8332190     3.4662990    -0.8854880
  H       -4.0517820     0.1644530     0.6082680
  H       -3.5008180    -2.2099170     0.0672390
units angstrom
no_reorient  #important for SAPT in psi4, default
symmetry c1  #important for SAPT in psi4, default
}

set PROPERTIES_ORIGIN ["COM"]
properties('MP2/aug-cc-pvtz', properties = ['dipole'])
--------------------------------------------------------------------------

    Molecular point group: c1
  Charge       = 0
  Multiplicity = 1
  Basis Set: AUG-CC-PVTZ
    Blend: AUG-CC-PVTZ
  Basis Set: (AUG-CC-PVTZ AUX)
    Blend: AUG-CC-PVTZ-JKFIT

    Orbital Energies [Eh]
    ---------------------

    Doubly Occupied:

       1A    -20.542471     2A    -15.600241     3A    -15.564867
       4A    -11.361502     5A    -11.312098     6A    -11.300087
       7A    -11.265535     8A    -11.264265     9A    -11.263109
      10A    -11.262710    11A    -11.255406    12A    -11.251088
      13A    -11.232561    14A     -1.421842    15A     -1.272973
      16A     -1.228524    17A     -1.161134    18A     -1.062371
      19A     -1.031335    20A     -1.007515    21A     -0.946397
      22A     -0.881672    23A     -0.855099    24A     -0.789220
      25A     -0.764750    26A     -0.725093    27A     -0.691293
      28A     -0.681225    29A     -0.656139    30A     -0.646731
      31A     -0.629212    32A     -0.619302    33A     -0.606730
      34A     -0.586183    35A     -0.573586    36A     -0.556851
      37A     -0.541757    38A     -0.537370    39A     -0.531777
      40A     -0.513015    41A     -0.462703    42A     -0.449855
      43A     -0.415584    44A     -0.401950    45A     -0.352183
      46A     -0.329221

  @DF-RHF Final Energy:  -568.46510052320525

   => Energetics <=

    Nuclear Repulsion Energy =            760.3835562419384360
    One-Electron Energy =               -2280.8842446457897495
    Two-Electron Energy =                 952.0355878806459486
    Total Energy =                       -568.4651005232052512
  Basis Set: (AUG-CC-PVTZ AUX)
    Blend: AUG-CC-PVTZ-RI
    Molecular point group: c1

    Geometry (in Angstrom), charge = 0, multiplicity = 1:

       Center              X                  Y                   Z               Mass
    ------------   -----------------  -----------------  -----------------  -----------------
         O            3.108290899106    -1.419907758151    -0.212787478898    15.994914619570
         N            0.866833899106    -1.221833758151    -0.587832478898    14.003074004430
         N            1.515071899106     1.494462241849     0.336693521102    14.003074004430
         C           -0.735572100894     0.536114241849     0.035259521102    12.000000000000
         C           -0.430570100894    -0.816674758151    -0.234797478898    12.000000000000
         C            0.295040899106     1.594038241849    -0.082333478898    12.000000000000
         C            1.880654899106     0.267484241849     1.041336521102    12.000000000000
         C           -2.067750100894     0.871170241849     0.338719521102    12.000000000000
         C           -1.452064100894    -1.779909758151    -0.229565478898    12.000000000000
         C            2.090987999106    -0.885621558151     0.035580121102    12.000000000000
         C           -0.097914100894     2.876894241849    -0.767484478898    12.000000000000
         C           -3.071415100894    -0.090797758151     0.363862521102    12.000000000000
         C           -2.762540100894    -1.421699758151     0.063175521102    12.000000000000
         H            0.958004899106    -2.060490758151    -1.156100478898     1.007825032230
         H            1.125631899106    -0.017065758151     1.790485521102     1.007825032230
         H            2.842688899106     0.413281241849     1.533785521102     1.007825032230
         H           -2.314867100894     1.906407241849     0.558926521102     1.007825032230
         H           -1.200369100894    -2.817203758151    -0.443149478898     1.007825032230
         H           -0.834014100894     3.433272241849    -0.177532478898     1.007825032230
         H           -0.543209100894     2.677322241849    -1.746990478898     1.007825032230
         H            0.793754899106     3.494926241849    -0.883970478898     1.007825032230
         H           -4.091246100894     0.193080241849     0.609785521102     1.007825032230
         H           -3.540282100894    -2.181289758151     0.068756521102     1.007825032230

  Basis Set: AUG-CC-PVTZ
    Blend: AUG-CC-PVTZ
  Basis Set: (AUG-CC-PVTZ AUX)
    Blend: AUG-CC-PVTZ-JKFIT
	 Reference Energy          =    -568.4651005232052512 [Eh]
	 Singles Energy            =      -0.0000000000000000 [Eh]
	 Same-Spin Energy          =      -0.6134678002245755 [Eh]
	 Opposite-Spin Energy      =      -1.8851469419867994 [Eh]
	 Correlation Energy        =      -2.4986147422113749 [Eh]
	 Total Energy              =    -570.9637152654166812 [Eh]

	 ================> DF-SCS-MP2 Energies <==================
	-----------------------------------------------------------
	 SCS Same-Spin Scale       =       0.3333333333333333 [-]
	 SCS Opposite-Spin Scale   =       1.2000000000000000 [-]
	 SCS Same-Spin Energy      =      -0.2044892667415251 [Eh]
	 SCS Opposite-Spin Energy  =      -2.2621763303841593 [Eh]
	 SCS Correlation Energy    =      -2.4666655971256843 [Eh]
	 SCS Total Energy          =    -570.9317661203309626 [Eh]
	-----------------------------------------------------------

  Dipole Moment: [D]
     X:    -4.6231      Y:    -0.4206      Z:     0.2037     Total:     4.6467

*** Psi4 exiting successfully. Buy a developer a beer!
