                               Psi4 1.3.2 release

  ==> Input File <==

--------------------------------------------------------------------------
#psi4
#
memory 32 gb

molecule  {
0 1
  O        3.1477550    -1.4485350    -0.2143050
  N        0.9062980    -1.2504610    -0.5893500
  N        1.5545360     1.4658350     0.3351760
  C       -0.6961080     0.5074870     0.0337420
  C       -0.3911060    -0.8453020    -0.2363150
  C        0.3521873     1.5472862    -0.0890956
  C        1.9201190     0.2388570     1.0398190
  C       -2.0282860     0.8425430     0.3372020
  C       -1.4126000    -1.8085370    -0.2310830
  C        2.0871850    -0.8915250     0.0446260
  C       -0.0584500     2.8482670    -0.7690020
  C       -3.0319510    -0.1194250     0.3623450
  C       -2.7230760    -1.4503270     0.0616580
  H        0.9974690    -2.0891180    -1.1576180
  H        1.1650960    -0.0456930     1.7889680
  H        2.8821530     0.3846540     1.5322680
  H       -2.2754030     1.8777800     0.5574090
  H       -1.1609050    -2.8458310    -0.4446670
  H       -0.7945500     3.4046450    -0.1790500
  H       -0.5037450     2.6486950    -1.7485080
  H        0.8332190     3.4662990    -0.8854880
  H       -4.0517820     0.1644530     0.6082680
  H       -3.5008180    -2.2099170     0.0672390
units angstrom
no_reorient  #important for SAPT in psi4, default
symmetry c1  #important for SAPT in psi4, default
}

set PROPERTIES_ORIGIN ["COM"]
properties('MP2/aug-cc-pvtz', properties = ['dipole'])
--------------------------------------------------------------------------

    Molecular point group: c1
  Charge       = 0
  Multiplicity = 1
  Basis Set: AUG-CC-PVTZ
    Blend: AUG-CC-PVTZ
  Basis Set: (AUG-CC-PVTZ AUX)
    Blend: AUG-CC-PVTZ-JKFIT

    Orbital Energies [Eh]
    ---------------------

    Doubly Occupied:

       1A    -20.532671     2A    -15.607268     3A    -15.566486
       4A    -11.363050     5A    -11.313860     6A    -11.300827
       7A    -11.267557     8A    -11.266956     9A    -11.265586
      10A    -11.265341    11A    -11.258076    12A    -11.253868
      13A    -11.233727    14A     -1.387943    15A     -1.277756
      16A     -1.237559    17A     -1.164534    18A     -1.064316
      19A     -1.035264    20A     -1.009687    21A     -0.952062
      22A     -0.885786    23A     -0.858073    24A     -0.795850
      25A     -0.767864    26A     -0.728740    27A     -0.692486
      28A     -0.678360    29A     -0.657996    30A     -0.647806
      31A     -0.626127    32A     -0.618146    33A     -0.605420
      34A     -0.584701    35A     -0.567251    36A     -0.557015
      37A     -0.544489    38A     -0.538617    39A     -0.528035
      40A     -0.513562    41A     -0.459951    42A     -0.444827
      43A     -0.418202    44A     -0.407210    45A     -0.355726
      46A     -0.332312

  @DF-RHF Final Energy:  -568.46623215612681

   => Energetics <=

    Nuclear Repulsion Energy =            761.0025249401904830
    One-Electron Energy =               -2282.0596137479797108
    Two-Electron Energy =                 952.5908566516623068
    Total Energy =                       -568.4662321561268072
  Basis Set: (AUG-CC-PVTZ AUX)
    Blend: AUG-CC-PVTZ-RI
    Molecular point group: c1

    Geometry (in Angstrom), charge = 0, multiplicity = 1:

       Center              X                  Y                   Z               Mass
    ------------   -----------------  -----------------  -----------------  -----------------
         O            3.110054564155    -1.420224786057    -0.213154125566    15.994914619570
         N            0.868597564155    -1.222150786057    -0.588199125566    14.003074004430
         N            1.516835564155     1.494145213943     0.336326874434    14.003074004430
         C           -0.733808435845     0.535797213943     0.034892874434    12.000000000000
         C           -0.428806435845    -0.816991786057    -0.235164125566    12.000000000000
         C            0.314486864155     1.575596413943    -0.087944725566    12.000000000000
         C            1.882418564155     0.267167213943     1.040969874434    12.000000000000
         C           -2.065986435845     0.870853213943     0.338352874434    12.000000000000
         C           -1.450300435845    -1.780226786057    -0.229932125566    12.000000000000
         C            2.049484564155    -0.863214786057     0.045776874434    12.000000000000
         C           -0.096150435845     2.876577213943    -0.767851125566    12.000000000000
         C           -3.069651435845    -0.091114786057     0.363495874434    12.000000000000
         C           -2.760776435845    -1.422016786057     0.062808874434    12.000000000000
         H            0.959768564155    -2.060807786057    -1.156467125566     1.007825032230
         H            1.127395564155    -0.017382786057     1.790118874434     1.007825032230
         H            2.844452564155     0.412964213943     1.533418874434     1.007825032230
         H           -2.313103435845     1.906090213943     0.558559874434     1.007825032230
         H           -1.198605435845    -2.817520786057    -0.443516125566     1.007825032230
         H           -0.832250435845     3.432955213943    -0.177899125566     1.007825032230
         H           -0.541445435845     2.677005213943    -1.747357125566     1.007825032230
         H            0.795518564155     3.494609213943    -0.884337125566     1.007825032230
         H           -4.089482435845     0.192763213943     0.609418874434     1.007825032230
         H           -3.538518435845    -2.181606786057     0.068389874434     1.007825032230

  Basis Set: AUG-CC-PVTZ
    Blend: AUG-CC-PVTZ
  Basis Set: (AUG-CC-PVTZ AUX)
    Blend: AUG-CC-PVTZ-JKFIT
	 Reference Energy          =    -568.4662321561268072 [Eh]
	 Singles Energy            =      -0.0000000000000000 [Eh]
	 Same-Spin Energy          =      -0.6140622996083009 [Eh]
	 Opposite-Spin Energy      =      -1.8864741834663201 [Eh]
	 Correlation Energy        =      -2.5005364830746211 [Eh]
	 Total Energy              =    -570.9667686392014048 [Eh]

	 ================> DF-SCS-MP2 Energies <==================
	-----------------------------------------------------------
	 SCS Same-Spin Scale       =       0.3333333333333333 [-]
	 SCS Opposite-Spin Scale   =       1.2000000000000000 [-]
	 SCS Same-Spin Energy      =      -0.2046874332027670 [Eh]
	 SCS Opposite-Spin Energy  =      -2.2637690201595841 [Eh]
	 SCS Correlation Energy    =      -2.4684564533623510 [Eh]
	 SCS Total Energy          =    -570.9346886094891715 [Eh]
	-----------------------------------------------------------

  Dipole Moment: [D]
     X:    -5.0853      Y:    -0.2759      Z:     0.2561     Total:     5.0992

*** Psi4 exiting successfully. Buy a developer a beer!
