                               Psi4 1.3.2 release

  ==> Input File <==

--------------------------------------------------------------------------
#psi4
#
memory 32 gb

molecule  {
0 1
  O        3.1477550    -1.4485350    -0.2143050
  N        0.9062980    -1.2504610    -0.5893500
  N        1.5545360     1.4658350     0.3351760
  C       -0.6961080     0.5074870     0.0337420
  C       -0.3911060    -0.8453020    -0.2363150
  C        0.3345050     1.5654110    -0.0838510
  C        1.9451352     0.1548971     1.0880365
  C       -2.0282860     0.8425430     0.3372020
  C       -1.4126000    -1.8085370    -0.2310830
  C        2.0871850    -0.8915250     0.0446260
  C       -0.0584500     2.8482670    -0.7690020
  C       -3.0319510    -0.1194250     0.3623450
  C       -2.7230760    -1.4503270     0.0616580
  H        0.9974690    -2.0891180    -1.1576180
  H        1.1650960    -0.0456930     1.7889680
  H        2.8821530     0.3846540     1.5322680
  H       -2.2754030     1.8777800     0.5574090
  H       -1.1609050    -2.8458310    -0.4446670
  H       -0.7945500     3.4046450    -0.1790500
  H       -0.5037450     2.6486950    -1.7485080
  H        0.8332190     3.4662990    -0.8854880
  H       -4.0517820     0.1644530     0.6082680
  H       -3.5008180    -2.2099170     0.0672390
units angstrom
no_reorient  #important for SAPT in psi4, default
symmetry c1  #important for SAPT in psi4, default
}

set PROPERTIES_ORIGIN ["COM"]
properties('MP2/aug-cc-pvtz', properties = ['dipole'])
--------------------------------------------------------------------------

    Molecular point group: c1
  Charge       = 0
  Multiplicity = 1
  Basis Set: AUG-CC-PVTZ
    Blend: AUG-CC-PVTZ
  Basis Set: (AUG-CC-PVTZ AUX)
    Blend: AUG-CC-PVTZ-JKFIT

    Orbital Energies [Eh]
    ---------------------

    Doubly Occupied:

       1A    -20.531295     2A    -15.607282     3A    -15.570357
       4A    -11.362705     5A    -11.313816     6A    -11.300034
       7A    -11.266168     8A    -11.266148     9A    -11.264996
      10A    -11.264857    11A    -11.257985    12A    -11.253347
      13A    -11.233743    14A     -1.388344    15A     -1.273363
      16A     -1.220553    17A     -1.163383    18A     -1.061738
      19A     -1.035799    20A     -1.011119    21A     -0.958036
      22A     -0.883817    23A     -0.857688    24A     -0.796788
      25A     -0.763762    26A     -0.728673    27A     -0.690022
      28A     -0.678429    29A     -0.657441    30A     -0.644437
      31A     -0.626213    32A     -0.618446    33A     -0.604604
      34A     -0.586795    35A     -0.569778    36A     -0.558602
      37A     -0.544030    38A     -0.538900    39A     -0.527622
      40A     -0.517168    41A     -0.453879    42A     -0.444257
      43A     -0.419656    44A     -0.403208    45A     -0.354933
      46A     -0.331430

  @DF-RHF Final Energy:  -568.45771831943989

   => Energetics <=

    Nuclear Repulsion Energy =            759.7292807185340280
    One-Electron Energy =               -2279.5627034016615653
    Two-Electron Energy =                 951.3757043636876460
    Total Energy =                       -568.4577183194398913
  Basis Set: (AUG-CC-PVTZ AUX)
    Blend: AUG-CC-PVTZ-RI
    Molecular point group: c1

    Geometry (in Angstrom), charge = 0, multiplicity = 1:

       Center              X                  Y                   Z               Mass
    ------------   -----------------  -----------------  -----------------  -----------------
         O            3.109549008391    -1.415686502980    -0.216839487078    15.994914619570
         N            0.868092008391    -1.217612502980    -0.591884487078    14.003074004430
         N            1.516330008391     1.498683497020     0.332641512922    14.003074004430
         C           -0.734313991609     0.540335497020     0.031207512922    12.000000000000
         C           -0.429311991609    -0.812453502980    -0.238849487078    12.000000000000
         C            0.296299008391     1.598259497020    -0.086385487078    12.000000000000
         C            1.906929208391     0.187745597020     1.085502012922    12.000000000000
         C           -2.066491991609     0.875391497020     0.334667512922    12.000000000000
         C           -1.450805991609    -1.775688502980    -0.233617487078    12.000000000000
         C            2.048979008391    -0.858676502980     0.042091512922    12.000000000000
         C           -0.096655991609     2.881115497020    -0.771536487078    12.000000000000
         C           -3.070156991609    -0.086576502980     0.359810512922    12.000000000000
         C           -2.761281991609    -1.417478502980     0.059123512922    12.000000000000
         H            0.959263008391    -2.056269502980    -1.160152487078     1.007825032230
         H            1.126890008391    -0.012844502980     1.786433512922     1.007825032230
         H            2.843947008391     0.417502497020     1.529733512922     1.007825032230
         H           -2.313608991609     1.910628497020     0.554874512922     1.007825032230
         H           -1.199110991609    -2.812982502980    -0.447201487078     1.007825032230
         H           -0.832755991609     3.437493497020    -0.181584487078     1.007825032230
         H           -0.541950991609     2.681543497020    -1.751042487078     1.007825032230
         H            0.795013008391     3.499147497020    -0.888022487078     1.007825032230
         H           -4.089987991609     0.197301497020     0.605733512922     1.007825032230
         H           -3.539023991609    -2.177068502980     0.064704512922     1.007825032230

  Basis Set: AUG-CC-PVTZ
    Blend: AUG-CC-PVTZ
  Basis Set: (AUG-CC-PVTZ AUX)
    Blend: AUG-CC-PVTZ-JKFIT
	 Reference Energy          =    -568.4577183194398913 [Eh]
	 Singles Energy            =      -0.0000000000000000 [Eh]
	 Same-Spin Energy          =      -0.6144683254003265 [Eh]
	 Opposite-Spin Energy      =      -1.8883962119987254 [Eh]
	 Correlation Energy        =      -2.5028645373990521 [Eh]
	 Total Energy              =    -570.9605828568389825 [Eh]

	 ================> DF-SCS-MP2 Energies <==================
	-----------------------------------------------------------
	 SCS Same-Spin Scale       =       0.3333333333333333 [-]
	 SCS Opposite-Spin Scale   =       1.2000000000000000 [-]
	 SCS Same-Spin Energy      =      -0.2048227751334422 [Eh]
	 SCS Opposite-Spin Energy  =      -2.2660754543984702 [Eh]
	 SCS Correlation Energy    =      -2.4708982295319126 [Eh]
	 SCS Total Energy          =    -570.9286165489718314 [Eh]
	-----------------------------------------------------------

  Dipole Moment: [D]
     X:    -5.0999      Y:    -0.2309      Z:     0.3161     Total:     5.1149

*** Psi4 exiting successfully. Buy a developer a beer!
