                               Psi4 1.4a3.dev225

  ==> Input File <==

--------------------------------------------------------------------------
#psi4
#
memory 32 gb

molecule  {
0 1
  O        2.4005690    -0.7555910     0.0000930
  O       -3.4134850     0.7931250     0.0001120
  O        1.6118980     1.3746640    -0.0001560
  O       -2.6294380    -1.3322590    -0.0001410
  C        0.0590550    -0.4958080     0.0000270
  C       -1.0635090     0.5281750     0.0000410
  C        1.4119940     0.1700650    -0.0000220
  C       -2.3980113    -0.1225483    -0.0000064
  C        3.7306770    -0.1974070     0.0000330
  H       -0.0086930    -1.1555200     0.8707660
  H       -0.0087430    -1.1555360    -0.8706970
  H       -0.9969410     1.1888870    -0.8701370
  H       -0.9969750     1.1888400     0.8702580
  H        4.3972900    -1.0573420     0.0001120
  H        3.8858800     0.4149390     0.8894490
  H        3.8858720     0.4147700    -0.8895010
  H       -4.2474240     0.2791820     0.0000590
units angstrom
no_reorient  #important for SAPT in psi4, default
symmetry c1  #important for SAPT in psi4, default
}

set PROPERTIES_ORIGIN ["COM"]
properties('MP2/aug-cc-pvtz', properties = ['dipole'])
--------------------------------------------------------------------------

    Molecular point group: c1
  Charge       = 0
  Multiplicity = 1
  Basis Set: AUG-CC-PVTZ
    Blend: AUG-CC-PVTZ
  Basis Set: (AUG-CC-PVTZ AUX)
    Blend: AUG-CC-PVTZ-JKFIT

    Orbital Energies [Eh]
    ---------------------

    Doubly Occupied:

       1A    -20.619389     2A    -20.612578     3A    -20.558427
       4A    -20.555360     5A    -11.399166     6A    -11.391096
       7A    -11.290984     8A    -11.259597     9A    -11.257856
      10A     -1.462716    11A     -1.460471    12A     -1.362201
      13A     -1.356103    14A     -1.101241    15A     -1.001639
      16A     -0.934308    17A     -0.813475    18A     -0.772769
      19A     -0.727027    20A     -0.705720    21A     -0.690919
      22A     -0.679298    23A     -0.667084    24A     -0.661924
      25A     -0.609195    26A     -0.601047    27A     -0.567473
      28A     -0.550178    29A     -0.546145    30A     -0.535559
      31A     -0.512183    32A     -0.485332    33A     -0.470655
      34A     -0.465295    35A     -0.457610

  @DF-RHF Final Energy:  -493.67450928550011

   => Energetics <=

    Nuclear Repulsion Energy =            445.3074304366099909
    One-Electron Energy =               -1559.6798379676104105
    Two-Electron Energy =                 620.6978982455002551
    Total Energy =                       -493.6745092855001076
  Basis Set: (AUG-CC-PVTZ AUX)
    Blend: AUG-CC-PVTZ-RI
    Molecular point group: c1

    Geometry (in Angstrom), charge = 0, multiplicity = 1:

       Center              X                  Y                   Z               Mass
    ------------   -----------------  -----------------  -----------------  -----------------
         O            2.443267360289    -0.755496204250     0.000095188044    15.994914619570
         O           -3.370786639711     0.793219795750     0.000114188044    15.994914619570
         O            1.654596360289     1.374758795750    -0.000153811956    15.994914619570
         O           -2.586739639711    -1.332164204250    -0.000138811956    15.994914619570
         C            0.101753360289    -0.495713204250     0.000029188044    12.000000000000
         C           -1.020810639711     0.528269795750     0.000043188044    12.000000000000
         C            1.454692360289     0.170159795750    -0.000019811956    12.000000000000
         C           -2.355312939711    -0.122453504250    -0.000004211956    12.000000000000
         C            3.773375360289    -0.197312204250     0.000035188044    12.000000000000
         H            0.034005360289    -1.155425204250     0.870768188044     1.007825032230
         H            0.033955360289    -1.155441204250    -0.870694811956     1.007825032230
         H           -0.954242639711     1.188981795750    -0.870134811956     1.007825032230
         H           -0.954276639711     1.188934795750     0.870260188044     1.007825032230
         H            4.439988360289    -1.057247204250     0.000114188044     1.007825032230
         H            3.928578360289     0.415033795750     0.889451188044     1.007825032230
         H            3.928570360289     0.414864795750    -0.889498811956     1.007825032230
         H           -4.204725639711     0.279276795750     0.000061188044     1.007825032230

  Basis Set: AUG-CC-PVTZ
    Blend: AUG-CC-PVTZ
  Basis Set: (AUG-CC-PVTZ AUX)
    Blend: AUG-CC-PVTZ-JKFIT
	 Reference Energy          =    -493.6745092855001076 [Eh]
	 Singles Energy            =      -0.0000000000000000 [Eh]
	 Same-Spin Energy          =      -0.4754614853222625 [Eh]
	 Opposite-Spin Energy      =      -1.4706804065752468 [Eh]
	 Correlation Energy        =      -1.9461418918975093 [Eh]
	 Total Energy              =    -495.6206511773976331 [Eh]

	 ================> DF-SCS-MP2 Energies <==================
	-----------------------------------------------------------
	 SCS Same-Spin Scale       =       0.3333333333333333 [-]
	 SCS Opposite-Spin Scale   =       1.2000000000000000 [-]
	 SCS Same-Spin Energy      =      -0.1584871617740875 [Eh]
	 SCS Opposite-Spin Energy  =      -1.7648164878902961 [Eh]
	 SCS Correlation Energy    =      -1.9233036496643836 [Eh]
	 SCS Total Energy          =    -495.5978129351644839 [Eh]
	-----------------------------------------------------------

  Dipole Moment: [D]
     X:     0.8162      Y:    -0.0917      Z:     0.0003     Total:     0.8213

*** Psi4 exiting successfully. Buy a developer a beer!
