                               Psi4 1.4a3.dev225

  ==> Input File <==

--------------------------------------------------------------------------
#psi4
#
memory 32 gb

molecule  {
0 1
  O        2.4005690    -0.7555910     0.0000930
  O       -3.4134850     0.7931250     0.0001120
  O        1.6118980     1.3746640    -0.0001560
  O       -2.6294380    -1.3322590    -0.0001410
  C        0.0590550    -0.4958080     0.0000270
  C       -1.0635090     0.5281750     0.0000410
  C        1.4119940     0.1700650    -0.0000220
  C       -2.4159880    -0.1313140    -0.0000070
  C        3.7306770    -0.1974070     0.0000330
  H       -0.0086930    -1.1555200     0.8707660
  H       -0.0087430    -1.1555360    -0.8706970
  H       -0.9969410     1.1888870    -0.8701370
  H       -0.9969750     1.1888400     0.8702580
  H        4.3972900    -1.0573420     0.0001120
  H        3.8858800     0.4149390     0.8894490
  H        3.8858720     0.4147700    -0.8895010
  H       -4.2048582     0.3054146     0.0000617
units angstrom
no_reorient  #important for SAPT in psi4, default
symmetry c1  #important for SAPT in psi4, default
}

set PROPERTIES_ORIGIN ["COM"]
properties('MP2/aug-cc-pvtz', properties = ['dipole'])
--------------------------------------------------------------------------

    Molecular point group: c1
  Charge       = 0
  Multiplicity = 1
  Basis Set: AUG-CC-PVTZ
    Blend: AUG-CC-PVTZ
  Basis Set: (AUG-CC-PVTZ AUX)
    Blend: AUG-CC-PVTZ-JKFIT

    Orbital Energies [Eh]
    ---------------------

    Doubly Occupied:

       1A    -20.617847     2A    -20.612062     3A    -20.560353
       4A    -20.554711     5A    -11.398575     6A    -11.390439
       7A    -11.290610     8A    -11.258723     9A    -11.256797
      10A     -1.474100    11A     -1.462058    12A     -1.368772
      13A     -1.361572    14A     -1.098142    15A     -0.999987
      16A     -0.934276    17A     -0.821890    18A     -0.773108
      19A     -0.727190    20A     -0.712927    21A     -0.690166
      22A     -0.679424    23A     -0.668856    24A     -0.662432
      25A     -0.612178    26A     -0.604239    27A     -0.568576
      28A     -0.550019    29A     -0.545173    30A     -0.535127
      31A     -0.511268    32A     -0.490814    33A     -0.470171
      34A     -0.464858    35A     -0.457653

  @DF-RHF Final Energy:  -493.67725552090559

   => Energetics <=

    Nuclear Repulsion Energy =            445.6002910963385375
    One-Electron Energy =               -1560.1849092358336293
    Two-Electron Energy =                 620.9073626185894454
    Total Energy =                       -493.6772555209055326
  Basis Set: (AUG-CC-PVTZ AUX)
    Blend: AUG-CC-PVTZ-RI
    Molecular point group: c1

    Geometry (in Angstrom), charge = 0, multiplicity = 1:

       Center              X                  Y                   Z               Mass
    ------------   -----------------  -----------------  -----------------  -----------------
         O            2.444576195225    -0.754899800267     0.000095221964    15.994914619570
         O           -3.369477804775     0.793816199733     0.000114221964    15.994914619570
         O            1.655905195225     1.375355199733    -0.000153778036    15.994914619570
         O           -2.585430804775    -1.331567800267    -0.000138778036    15.994914619570
         C            0.103062195225    -0.495116800267     0.000029221964    12.000000000000
         C           -1.019501804775     0.528866199733     0.000043221964    12.000000000000
         C            1.456001195225     0.170756199733    -0.000019778036    12.000000000000
         C           -2.371980804775    -0.130622800267    -0.000004778036    12.000000000000
         C            3.774684195225    -0.196715800267     0.000035221964    12.000000000000
         H            0.035314195225    -1.154828800267     0.870768221964     1.007825032230
         H            0.035264195225    -1.154844800267    -0.870694778036     1.007825032230
         H           -0.952933804775     1.189578199733    -0.870134778036     1.007825032230
         H           -0.952967804775     1.189531199733     0.870260221964     1.007825032230
         H            4.441297195225    -1.056650800267     0.000114221964     1.007825032230
         H            3.929887195225     0.415630199733     0.889451221964     1.007825032230
         H            3.929879195225     0.415461199733    -0.889498778036     1.007825032230
         H           -4.160851004775     0.306105799733     0.000063921964     1.007825032230

  Basis Set: AUG-CC-PVTZ
    Blend: AUG-CC-PVTZ
  Basis Set: (AUG-CC-PVTZ AUX)
    Blend: AUG-CC-PVTZ-JKFIT
	 Reference Energy          =    -493.6772555209055895 [Eh]
	 Singles Energy            =      -0.0000000000000000 [Eh]
	 Same-Spin Energy          =      -0.4744233540643101 [Eh]
	 Opposite-Spin Energy      =      -1.4684357177743499 [Eh]
	 Correlation Energy        =      -1.9428590718386600 [Eh]
	 Total Energy              =    -495.6201145927442440 [Eh]

	 ================> DF-SCS-MP2 Energies <==================
	-----------------------------------------------------------
	 SCS Same-Spin Scale       =       0.3333333333333333 [-]
	 SCS Opposite-Spin Scale   =       1.2000000000000000 [-]
	 SCS Same-Spin Energy      =      -0.1581411180214367 [Eh]
	 SCS Opposite-Spin Energy  =      -1.7621228613292199 [Eh]
	 SCS Correlation Energy    =      -1.9202639793506566 [Eh]
	 SCS Total Energy          =    -495.5975195002562259 [Eh]
	-----------------------------------------------------------

  Dipole Moment: [D]
     X:     0.7539      Y:    -0.1130      Z:     0.0003     Total:     0.7623

*** Psi4 exiting successfully. Buy a developer a beer!
