                               Psi4 1.4a3.dev225

  ==> Input File <==

--------------------------------------------------------------------------
#psi4
#
memory 32 gb

molecule  {
0 1
  O        2.4005690    -0.7555910     0.0000930
  O       -3.4134850     0.7931250     0.0001120
  O        1.6118980     1.3746640    -0.0001560
  O       -2.6294380    -1.3322590    -0.0001410
  C        0.0590550    -0.4958080     0.0000270
  C       -1.0635090     0.5281750     0.0000410
  C        1.4789726     0.2367697    -0.0000296
  C       -2.4159880    -0.1313140    -0.0000070
  C        3.7306770    -0.1974070     0.0000330
  H       -0.0086930    -1.1555200     0.8707660
  H       -0.0087430    -1.1555360    -0.8706970
  H       -0.9969410     1.1888870    -0.8701370
  H       -0.9969750     1.1888400     0.8702580
  H        4.3972900    -1.0573420     0.0001120
  H        3.8858800     0.4149390     0.8894490
  H        3.8858720     0.4147700    -0.8895010
  H       -4.2474240     0.2791820     0.0000590
units angstrom
no_reorient  #important for SAPT in psi4, default
symmetry c1  #important for SAPT in psi4, default
}

set PROPERTIES_ORIGIN ["COM"]
properties('MP2/aug-cc-pvtz', properties = ['dipole'])
--------------------------------------------------------------------------

    Molecular point group: c1
  Charge       = 0
  Multiplicity = 1
  Basis Set: AUG-CC-PVTZ
    Blend: AUG-CC-PVTZ
  Basis Set: (AUG-CC-PVTZ AUX)
    Blend: AUG-CC-PVTZ-JKFIT

    Orbital Energies [Eh]
    ---------------------

    Doubly Occupied:

       1A    -20.618273     2A    -20.611619     3A    -20.565310
       4A    -20.555798     5A    -11.393843     6A    -11.383102
       7A    -11.290631     8A    -11.253085     9A    -11.249416
      10A     -1.487434    11A     -1.462857    12A     -1.398323
      13A     -1.360296    14A     -1.083313    15A     -0.989372
      16A     -0.920346    17A     -0.808508    18A     -0.774977
      19A     -0.725699    20A     -0.707326    21A     -0.694744
      22A     -0.691808    23A     -0.668145    24A     -0.660641
      25A     -0.606088    26A     -0.602162    27A     -0.569806
      28A     -0.564154    29A     -0.545256    30A     -0.533825
      31A     -0.511786    32A     -0.486165    33A     -0.480938
      34A     -0.458970    35A     -0.446694

  @DF-RHF Final Energy:  -493.66852703980072

   => Energetics <=

    Nuclear Repulsion Energy =            445.6170185675599669
    One-Electron Energy =               -1560.2496694061258040
    Two-Electron Energy =                 620.9641237987652858
    Total Energy =                       -493.6685270398006651
  Basis Set: (AUG-CC-PVTZ AUX)
    Blend: AUG-CC-PVTZ-RI
    Molecular point group: c1

    Geometry (in Angstrom), charge = 0, multiplicity = 1:

       Center              X                  Y                   Z               Mass
    ------------   -----------------  -----------------  -----------------  -----------------
         O            2.438814067793    -0.760761700362     0.000095933260    15.994914619570
         O           -3.375239932207     0.787954299638     0.000114933260    15.994914619570
         O            1.650143067793     1.369493299638    -0.000153066740    15.994914619570
         O           -2.591192932207    -1.337429700362    -0.000138066740    15.994914619570
         C            0.097300067793    -0.500978700362     0.000029933260    12.000000000000
         C           -1.025263932207     0.523004299638     0.000043933260    12.000000000000
         C            1.517217667793     0.231598999638    -0.000026666740    12.000000000000
         C           -2.377742932207    -0.136484700362    -0.000004066740    12.000000000000
         C            3.768922067793    -0.202577700362     0.000035933260    12.000000000000
         H            0.029552067793    -1.160690700362     0.870768933260     1.007825032230
         H            0.029502067793    -1.160706700362    -0.870694066740     1.007825032230
         H           -0.958695932207     1.183716299638    -0.870134066740     1.007825032230
         H           -0.958729932207     1.183669299638     0.870260933260     1.007825032230
         H            4.435535067793    -1.062512700362     0.000114933260     1.007825032230
         H            3.924125067793     0.409768299638     0.889451933260     1.007825032230
         H            3.924117067793     0.409599299638    -0.889498066740     1.007825032230
         H           -4.209178932207     0.274011299638     0.000061933260     1.007825032230

  Basis Set: AUG-CC-PVTZ
    Blend: AUG-CC-PVTZ
  Basis Set: (AUG-CC-PVTZ AUX)
    Blend: AUG-CC-PVTZ-JKFIT
	 Reference Energy          =    -493.6685270398007219 [Eh]
	 Singles Energy            =      -0.0000000000000000 [Eh]
	 Same-Spin Energy          =      -0.4735466447992041 [Eh]
	 Opposite-Spin Energy      =      -1.4671504486261515 [Eh]
	 Correlation Energy        =      -1.9406970934253556 [Eh]
	 Total Energy              =    -495.6092241332260642 [Eh]

	 ================> DF-SCS-MP2 Energies <==================
	-----------------------------------------------------------
	 SCS Same-Spin Scale       =       0.3333333333333333 [-]
	 SCS Opposite-Spin Scale   =       1.2000000000000000 [-]
	 SCS Same-Spin Energy      =      -0.1578488815997347 [Eh]
	 SCS Opposite-Spin Energy  =      -1.7605805383513817 [Eh]
	 SCS Correlation Energy    =      -1.9184294199511165 [Eh]
	 SCS Total Energy          =    -495.5869564597518320 [Eh]
	-----------------------------------------------------------

  Dipole Moment: [D]
     X:     1.0796      Y:     0.2728      Z:     0.0003     Total:     1.1135

*** Psi4 exiting successfully. Buy a developer a beer!
