                               Psi4 1.4a3.dev225

  ==> Input File <==

--------------------------------------------------------------------------
#psi4
#
memory 32 gb

molecule  {
0 1
  O        2.4005690    -0.7555910     0.0000930
  O       -3.4134850     0.7931250     0.0001120
  O        1.6118980     1.3746640    -0.0001560
  O       -2.6294380    -1.3322590    -0.0001410
  C        0.0590550    -0.4958080     0.0000270
  C       -1.0635090     0.5281750     0.0000410
  C        1.4119940     0.1700650    -0.0000220
  C       -2.4159880    -0.1313140    -0.0000070
  C        3.7306770    -0.1974070     0.0000330
  H       -0.0086930    -1.1555200     0.8707660
  H       -0.0087430    -1.1555360    -0.8706970
  H       -0.9969410     1.1888870    -0.8701370
  H       -0.9969750     1.1888400     0.8702580
  H        4.3972900    -1.0573420     0.0001120
  H        3.8858800     0.4149390     0.8894490
  H        3.8858720     0.4147700    -0.8895010
  H       -4.2899898     0.2529494     0.0000563
units angstrom
no_reorient  #important for SAPT in psi4, default
symmetry c1  #important for SAPT in psi4, default
}

set PROPERTIES_ORIGIN ["COM"]
properties('MP2/aug-cc-pvtz', properties = ['dipole'])
--------------------------------------------------------------------------

    Molecular point group: c1
  Charge       = 0
  Multiplicity = 1
  Basis Set: AUG-CC-PVTZ
    Blend: AUG-CC-PVTZ
  Basis Set: (AUG-CC-PVTZ AUX)
    Blend: AUG-CC-PVTZ-JKFIT

    Orbital Energies [Eh]
    ---------------------

    Doubly Occupied:

       1A    -20.624061     2A    -20.611741     3A    -20.558370
       4A    -20.554326     5A    -11.396617     6A    -11.390042
       7A    -11.290357     8A    -11.258203     9A    -11.256317
      10A     -1.461810    11A     -1.459429    12A     -1.361235
      13A     -1.358843    14A     -1.096736    15A     -0.997845
      16A     -0.929899    17A     -0.807481    18A     -0.771143
      19A     -0.724148    20A     -0.704318    21A     -0.689540
      22A     -0.678378    23A     -0.667202    24A     -0.660929
      25A     -0.609878    26A     -0.599370    27A     -0.565424
      28A     -0.549020    29A     -0.543849    30A     -0.534643
      31A     -0.510570    32A     -0.488034    33A     -0.469839
      34A     -0.463403    35A     -0.456870

  @DF-RHF Final Energy:  -493.67147221897289

   => Energetics <=

    Nuclear Repulsion Energy =            444.9906879816266496
    One-Electron Energy =               -1559.1245812153786119
    Two-Electron Energy =                 620.4624210147790109
    Total Energy =                       -493.6714722189728946
  Basis Set: (AUG-CC-PVTZ AUX)
    Blend: AUG-CC-PVTZ-RI
    Molecular point group: c1

    Geometry (in Angstrom), charge = 0, multiplicity = 1:

       Center              X                  Y                   Z               Mass
    ------------   -----------------  -----------------  -----------------  -----------------
         O            2.445225970216    -0.754499354664     0.000095263180    15.994914619570
         O           -3.368828029784     0.794216645336     0.000114263180    15.994914619570
         O            1.656554970216     1.375755645336    -0.000153736820    15.994914619570
         O           -2.584781029784    -1.331167354664    -0.000138736820    15.994914619570
         C            0.103711970216    -0.494716354664     0.000029263180    12.000000000000
         C           -1.018852029784     0.529266645336     0.000043263180    12.000000000000
         C            1.456650970216     0.171156645336    -0.000019736820    12.000000000000
         C           -2.371331029784    -0.130222354664    -0.000004736820    12.000000000000
         C            3.775333970216    -0.196315354664     0.000035263180    12.000000000000
         H            0.035963970216    -1.154428354664     0.870768263180     1.007825032230
         H            0.035913970216    -1.154444354664    -0.870694736820     1.007825032230
         H           -0.952284029784     1.189978645336    -0.870134736820     1.007825032230
         H           -0.952318029784     1.189931645336     0.870260263180     1.007825032230
         H            4.441946970216    -1.056250354664     0.000114263180     1.007825032230
         H            3.930536970216     0.416030645336     0.889451263180     1.007825032230
         H            3.930528970216     0.415861645336    -0.889498736820     1.007825032230
         H           -4.245332829784     0.254041045336     0.000058563180     1.007825032230

  Basis Set: AUG-CC-PVTZ
    Blend: AUG-CC-PVTZ
  Basis Set: (AUG-CC-PVTZ AUX)
    Blend: AUG-CC-PVTZ-JKFIT
	 Reference Energy          =    -493.6714722189728946 [Eh]
	 Singles Energy            =      -0.0000000000000000 [Eh]
	 Same-Spin Energy          =      -0.4756910947151183 [Eh]
	 Opposite-Spin Energy      =      -1.4714037208631243 [Eh]
	 Correlation Energy        =      -1.9470948155782426 [Eh]
	 Total Energy              =    -495.6185670345511198 [Eh]

	 ================> DF-SCS-MP2 Energies <==================
	-----------------------------------------------------------
	 SCS Same-Spin Scale       =       0.3333333333333333 [-]
	 SCS Opposite-Spin Scale   =       1.2000000000000000 [-]
	 SCS Same-Spin Energy      =      -0.1585636982383728 [Eh]
	 SCS Opposite-Spin Energy  =      -1.7656844650357491 [Eh]
	 SCS Correlation Energy    =      -1.9242481632741217 [Eh]
	 SCS Total Energy          =    -495.5957203822470092 [Eh]
	-----------------------------------------------------------

  Dipole Moment: [D]
     X:     0.6345      Y:    -0.1458      Z:     0.0003     Total:     0.6511

*** Psi4 exiting successfully. Buy a developer a beer!
