                               Psi4 1.4a3.dev225

  ==> Input File <==

--------------------------------------------------------------------------
#psi4
#
memory 32 gb

molecule  {
0 1
  O        2.4005690    -0.7555910     0.0000930
  O       -3.4134850     0.7931250     0.0001120
  O        1.6118980     1.3746640    -0.0001560
  O       -2.6294380    -1.3322590    -0.0001410
  C        0.0590550    -0.4958080     0.0000270
  C       -1.0635090     0.5281750     0.0000410
  C        1.4119940     0.1700650    -0.0000220
  C       -2.4159880    -0.1313140    -0.0000070
  C        3.7306770    -0.1974070     0.0000330
  H       -0.0086930    -1.1555200     0.8707660
  H       -0.0087430    -1.1555360    -0.8706970
  H       -0.9969410     1.1888870    -0.8701370
  H       -0.9969750     1.1888400     0.8702580
  H        4.3972900    -1.0573420     0.0001120
  H        3.8858800     0.4149390     0.8894490
  H        3.8858720     0.4147700    -0.8895010
  H       -4.2474240     0.2791820     0.0000590
units angstrom
no_reorient  #important for SAPT in psi4, default
symmetry c1  #important for SAPT in psi4, default
}

set PROPERTIES_ORIGIN ["COM"]
properties('MP2/aug-cc-pvtz', properties = ['dipole'])
--------------------------------------------------------------------------

    Molecular point group: c1
  Charge       = 0
  Multiplicity = 1
  Basis Set: AUG-CC-PVTZ
    Blend: AUG-CC-PVTZ
  Basis Set: (AUG-CC-PVTZ AUX)
    Blend: AUG-CC-PVTZ-JKFIT

    Orbital Energies [Eh]
    ---------------------

    Doubly Occupied:

       1A    -20.621231     2A    -20.611898     3A    -20.559343
       4A    -20.554514     5A    -11.397583     6A    -11.390236
       7A    -11.290481     8A    -11.258449     9A    -11.256550
      10A     -1.466091    11A     -1.461855    12A     -1.363722
      13A     -1.361374    14A     -1.097403    15A     -0.998824
      16A     -0.931905    17A     -0.814212    18A     -0.772193
      19A     -0.725522    20A     -0.708936    21A     -0.689843
      22A     -0.678934    23A     -0.668031    24A     -0.661657
      25A     -0.611004    26A     -0.601836    27A     -0.567120
      28A     -0.549508    29A     -0.544548    30A     -0.534895
      31A     -0.510910    32A     -0.489404    33A     -0.470002
      34A     -0.464109    35A     -0.457271

  @DF-RHF Final Energy:  -493.67652197476900

   => Energetics <=

    Nuclear Repulsion Energy =            445.2839101233807355
    One-Electron Energy =               -1559.6380779678956969
    Two-Electron Energy =                 620.6776458697459020
    Total Energy =                       -493.6765219747690026
  Basis Set: (AUG-CC-PVTZ AUX)
    Blend: AUG-CC-PVTZ-RI
    Molecular point group: c1

    Geometry (in Angstrom), charge = 0, multiplicity = 1:

       Center              X                  Y                   Z               Mass
    ------------   -----------------  -----------------  -----------------  -----------------
         O            2.444901082720    -0.754699577466     0.000095242572    15.994914619570
         O           -3.369152917280     0.794016422534     0.000114242572    15.994914619570
         O            1.656230082720     1.375555422534    -0.000153757428    15.994914619570
         O           -2.585105917280    -1.331367577466    -0.000138757428    15.994914619570
         C            0.103387082720    -0.494916577466     0.000029242572    12.000000000000
         C           -1.019176917280     0.529066422534     0.000043242572    12.000000000000
         C            1.456326082720     0.170956422534    -0.000019757428    12.000000000000
         C           -2.371655917280    -0.130422577466    -0.000004757428    12.000000000000
         C            3.775009082720    -0.196515577466     0.000035242572    12.000000000000
         H            0.035639082720    -1.154628577466     0.870768242572     1.007825032230
         H            0.035589082720    -1.154644577466    -0.870694757428     1.007825032230
         H           -0.952608917280     1.189778422534    -0.870134757428     1.007825032230
         H           -0.952642917280     1.189731422534     0.870260242572     1.007825032230
         H            4.441622082720    -1.056450577466     0.000114242572     1.007825032230
         H            3.930212082720     0.415830422534     0.889451242572     1.007825032230
         H            3.930204082720     0.415661422534    -0.889498757428     1.007825032230
         H           -4.203091917280     0.280073422534     0.000061242572     1.007825032230

  Basis Set: AUG-CC-PVTZ
    Blend: AUG-CC-PVTZ
  Basis Set: (AUG-CC-PVTZ AUX)
    Blend: AUG-CC-PVTZ-JKFIT
	 Reference Energy          =    -493.6765219747690026 [Eh]
	 Singles Energy            =      -0.0000000000000000 [Eh]
	 Same-Spin Energy          =      -0.4750568261338944 [Eh]
	 Opposite-Spin Energy      =      -1.4698824810877607 [Eh]
	 Correlation Energy        =      -1.9449393072216550 [Eh]
	 Total Energy              =    -495.6214612819906620 [Eh]

	 ================> DF-SCS-MP2 Energies <==================
	-----------------------------------------------------------
	 SCS Same-Spin Scale       =       0.3333333333333333 [-]
	 SCS Opposite-Spin Scale   =       1.2000000000000000 [-]
	 SCS Same-Spin Energy      =      -0.1583522753779648 [Eh]
	 SCS Opposite-Spin Energy  =      -1.7638589773053128 [Eh]
	 SCS Correlation Energy    =      -1.9222112526832775 [Eh]
	 SCS Total Energy          =    -495.5987332274522714 [Eh]
	-----------------------------------------------------------

  Dipole Moment: [D]
     X:     0.6930      Y:    -0.1284      Z:     0.0003     Total:     0.7048

*** Psi4 exiting successfully. Buy a developer a beer!
