                               Psi4 1.4a3.dev225

  ==> Input File <==

--------------------------------------------------------------------------
#psi4
#
memory 32 gb

molecule  {
0 1
  O        2.4005690    -0.7555910     0.0000930
  O       -3.4134850     0.7931250     0.0001120
  O        1.6118980     1.3746640    -0.0001560
  O       -2.6294380    -1.3322590    -0.0001410
  C        0.0590550    -0.4958080     0.0000270
  C       -1.0635090     0.5281750     0.0000410
  C        1.3206521     0.0616599    -0.0000095
  C       -2.4159880    -0.1313140    -0.0000070
  C        3.7306770    -0.1974070     0.0000330
  H       -0.0086930    -1.1555200     0.8707660
  H       -0.0087430    -1.1555360    -0.8706970
  H       -0.9969410     1.1888870    -0.8701370
  H       -0.9969750     1.1888400     0.8702580
  H        4.3972900    -1.0573420     0.0001120
  H        3.8858800     0.4149390     0.8894490
  H        3.8858720     0.4147700    -0.8895010
  H       -4.2474240     0.2791820     0.0000590
units angstrom
no_reorient  #important for SAPT in psi4, default
symmetry c1  #important for SAPT in psi4, default
}

set PROPERTIES_ORIGIN ["COM"]
properties('MP2/aug-cc-pvtz', properties = ['dipole'])
--------------------------------------------------------------------------

    Molecular point group: c1
  Charge       = 0
  Multiplicity = 1
  Basis Set: AUG-CC-PVTZ
    Blend: AUG-CC-PVTZ
  Basis Set: (AUG-CC-PVTZ AUX)
    Blend: AUG-CC-PVTZ-JKFIT

    Orbital Energies [Eh]
    ---------------------

    Doubly Occupied:

       1A    -20.625214     2A    -20.614423     3A    -20.564026
       4A    -20.536476     5A    -11.402560     6A    -11.401530
       7A    -11.291866     8A    -11.266176     9A    -11.261934
      10A     -1.470328    11A     -1.446937    12A     -1.368236
      13A     -1.292194    14A     -1.124133    15A     -1.016027
      16A     -0.947600    17A     -0.823132    18A     -0.769870
      19A     -0.730904    20A     -0.713310    21A     -0.696679
      22A     -0.670072    23A     -0.662511    24A     -0.661182
      25A     -0.619537    26A     -0.597810    27A     -0.573643
      28A     -0.556305    29A     -0.547561    30A     -0.515179
      31A     -0.504011    32A     -0.493783    33A     -0.469786
      34A     -0.445349    35A     -0.439721

  @DF-RHF Final Energy:  -493.63458380094505

   => Energetics <=

    Nuclear Repulsion Energy =            445.0317697288631393
    One-Electron Energy =               -1559.0927004311938617
    Two-Electron Energy =                 620.4263469013857275
    Total Energy =                       -493.6345838009450517
  Basis Set: (AUG-CC-PVTZ AUX)
    Blend: AUG-CC-PVTZ-RI
    Molecular point group: c1

    Geometry (in Angstrom), charge = 0, multiplicity = 1:

       Center              X                  Y                   Z               Mass
    ------------   -----------------  -----------------  -----------------  -----------------
         O            2.453202234264    -0.744847722367     0.000094106572    15.994914619570
         O           -3.360851765736     0.803868277633     0.000113106572    15.994914619570
         O            1.664531234264     1.385407277633    -0.000154893428    15.994914619570
         O           -2.576804765736    -1.321515722367    -0.000139893428    15.994914619570
         C            0.111688234264    -0.485064722367     0.000028106572    12.000000000000
         C           -1.010875765736     0.538918277633     0.000042106572    12.000000000000
         C            1.373285334264     0.072403177633    -0.000008393428    12.000000000000
         C           -2.363354765736    -0.120570722367    -0.000005893428    12.000000000000
         C            3.783310234264    -0.186663722367     0.000034106572    12.000000000000
         H            0.043940234264    -1.144776722367     0.870767106572     1.007825032230
         H            0.043890234264    -1.144792722367    -0.870695893428     1.007825032230
         H           -0.944307765736     1.199630277633    -0.870135893428     1.007825032230
         H           -0.944341765736     1.199583277633     0.870259106572     1.007825032230
         H            4.449923234264    -1.046598722367     0.000113106572     1.007825032230
         H            3.938513234264     0.425682277633     0.889450106572     1.007825032230
         H            3.938505234264     0.425513277633    -0.889499893428     1.007825032230
         H           -4.194790765736     0.289925277633     0.000060106572     1.007825032230

  Basis Set: AUG-CC-PVTZ
    Blend: AUG-CC-PVTZ
  Basis Set: (AUG-CC-PVTZ AUX)
    Blend: AUG-CC-PVTZ-JKFIT
	 Reference Energy          =    -493.6345838009450517 [Eh]
	 Singles Energy            =      -0.0000000000000000 [Eh]
	 Same-Spin Energy          =      -0.4789068058230023 [Eh]
	 Opposite-Spin Energy      =      -1.4768492838806542 [Eh]
	 Correlation Energy        =      -1.9557560897036566 [Eh]
	 Total Energy              =    -495.5903398906486927 [Eh]

	 ================> DF-SCS-MP2 Energies <==================
	-----------------------------------------------------------
	 SCS Same-Spin Scale       =       0.3333333333333333 [-]
	 SCS Opposite-Spin Scale   =       1.2000000000000000 [-]
	 SCS Same-Spin Energy      =      -0.1596356019410007 [Eh]
	 SCS Opposite-Spin Energy  =      -1.7722191406567849 [Eh]
	 SCS Correlation Energy    =      -1.9318547425977857 [Eh]
	 SCS Total Energy          =    -495.5664385435428585 [Eh]
	-----------------------------------------------------------

  Dipole Moment: [D]
     X:     0.2418      Y:    -0.6816      Z:     0.0004     Total:     0.7232

*** Psi4 exiting successfully. Buy a developer a beer!
