                               Psi4 1.4a3.dev225

  ==> Input File <==

--------------------------------------------------------------------------
#psi4
#
memory 32 gb

molecule  {
0 1
  O        2.4005690    -0.7555910     0.0000930
  O       -3.4134850     0.7931250     0.0001120
  O        1.6118980     1.3746640    -0.0001560
  O       -2.6294380    -1.3322590    -0.0001410
  C        0.0590550    -0.4958080     0.0000270
  C       -1.0635090     0.5281750     0.0000410
  C        1.4119940     0.1700650    -0.0000220
  C       -2.4276917    -0.1052174    -0.0440579
  C        3.7306770    -0.1974070     0.0000330
  H       -0.0086930    -1.1555200     0.8707660
  H       -0.0087430    -1.1555360    -0.8706970
  H       -0.9969410     1.1888870    -0.8701370
  H       -0.9969750     1.1888400     0.8702580
  H        4.3972900    -1.0573420     0.0001120
  H        3.8858800     0.4149390     0.8894490
  H        3.8858720     0.4147700    -0.8895010
  H       -4.2474240     0.2791820     0.0000590
units angstrom
no_reorient  #important for SAPT in psi4, default
symmetry c1  #important for SAPT in psi4, default
}

set PROPERTIES_ORIGIN ["COM"]
properties('MP2/aug-cc-pvtz', properties = ['dipole'])
--------------------------------------------------------------------------

    Molecular point group: c1
  Charge       = 0
  Multiplicity = 1
  Basis Set: AUG-CC-PVTZ
    Blend: AUG-CC-PVTZ
  Basis Set: (AUG-CC-PVTZ AUX)
    Blend: AUG-CC-PVTZ-JKFIT

    Orbital Energies [Eh]
    ---------------------

    Doubly Occupied:

       1A    -20.628847     2A    -20.611633     3A    -20.554162
       4A    -20.553893     5A    -11.399254     6A    -11.389976
       7A    -11.290273     8A    -11.258646     9A    -11.256188
      10A     -1.473486    11A     -1.461598    12A     -1.361112
      13A     -1.352871    14A     -1.096610    15A     -0.999233
      16A     -0.933518    17A     -0.821862    18A     -0.772896
      19A     -0.724159    20A     -0.710534    21A     -0.689749
      22A     -0.678620    23A     -0.668298    24A     -0.662985
      25A     -0.613900    26A     -0.598721    27A     -0.563021
      28A     -0.550210    29A     -0.545270    30A     -0.534516
      31A     -0.510727    32A     -0.481203    33A     -0.469640
      34A     -0.462581    35A     -0.455437

  @DF-RHF Final Energy:  -493.67320599664805

   => Energetics <=

    Nuclear Repulsion Energy =            445.1516685461780298
    One-Electron Energy =               -1559.3784930171684664
    Two-Electron Energy =                 620.5536184743422154
    Total Energy =                       -493.6732059966481074
  Basis Set: (AUG-CC-PVTZ AUX)
    Blend: AUG-CC-PVTZ-RI
    Molecular point group: c1

    Geometry (in Angstrom), charge = 0, multiplicity = 1:

       Center              X                  Y                   Z               Mass
    ------------   -----------------  -----------------  -----------------  -----------------
         O            2.445964714934    -0.757071236380     0.004098588205    15.994914619570
         O           -3.368089285066     0.791644763620     0.004117588205    15.994914619570
         O            1.657293714934     1.373183763620     0.003849588205    15.994914619570
         O           -2.584042285066    -1.333739236380     0.003864588205    15.994914619570
         C            0.104450714934    -0.497288236380     0.004032588205    12.000000000000
         C           -1.018113285066     0.526694763620     0.004046588205    12.000000000000
         C            1.457389714934     0.168584763620     0.003983588205    12.000000000000
         C           -2.382295985066    -0.106697636380    -0.040052311795    12.000000000000
         C            3.776072714934    -0.198887236380     0.004038588205    12.000000000000
         H            0.036702714934    -1.157000236380     0.874771588205     1.007825032230
         H            0.036652714934    -1.157016236380    -0.866691411795     1.007825032230
         H           -0.951545285066     1.187406763620    -0.866131411795     1.007825032230
         H           -0.951579285066     1.187359763620     0.874263588205     1.007825032230
         H            4.442685714934    -1.058822236380     0.004117588205     1.007825032230
         H            3.931275714934     0.413458763620     0.893454588205     1.007825032230
         H            3.931267714934     0.413289763620    -0.885495411795     1.007825032230
         H           -4.202028285066     0.277701763620     0.004064588205     1.007825032230

  Basis Set: AUG-CC-PVTZ
    Blend: AUG-CC-PVTZ
  Basis Set: (AUG-CC-PVTZ AUX)
    Blend: AUG-CC-PVTZ-JKFIT
	 Reference Energy          =    -493.6732059966480506 [Eh]
	 Singles Energy            =      -0.0000000000000000 [Eh]
	 Same-Spin Energy          =      -0.4754192569549912 [Eh]
	 Opposite-Spin Energy      =      -1.4704500308783772 [Eh]
	 Correlation Energy        =      -1.9458692878333683 [Eh]
	 Total Energy              =    -495.6190752844814256 [Eh]

	 ================> DF-SCS-MP2 Energies <==================
	-----------------------------------------------------------
	 SCS Same-Spin Scale       =       0.3333333333333333 [-]
	 SCS Opposite-Spin Scale   =       1.2000000000000000 [-]
	 SCS Same-Spin Energy      =      -0.1584730856516637 [Eh]
	 SCS Opposite-Spin Energy  =      -1.7645400370540527 [Eh]
	 SCS Correlation Energy    =      -1.9230131227057163 [Eh]
	 SCS Total Energy          =    -495.5962191193537478 [Eh]
	-----------------------------------------------------------

  Dipole Moment: [D]
     X:     0.5706      Y:     0.0721      Z:    -0.0422     Total:     0.5767

*** Psi4 exiting successfully. Buy a developer a beer!
