                               Psi4 1.4a3.dev225

  ==> Input File <==

--------------------------------------------------------------------------
#psi4
#
memory 32 gb

molecule  {
0 1
  O        2.4005690    -0.7555910     0.0000930
  O       -3.4134850     0.7931250     0.0001120
  O        1.6118980     1.3746640    -0.0001560
  O       -2.6294380    -1.3322590    -0.0001410
  C        0.0590550    -0.4958080     0.0000270
  C       -1.0635090     0.5281750     0.0000410
  C        1.4119940     0.1700650    -0.0000220
  C       -2.4159880    -0.1313140    -0.0000070
  C        3.7306770    -0.1974070     0.0000330
  H       -0.0086930    -1.1555200     0.8707660
  H       -0.0087430    -1.1555360    -0.8706970
  H       -0.9969410     1.1888870    -0.8701370
  H       -0.9969750     1.1888400     0.8702580
  H        4.3822279    -1.0681763     0.0332497
  H        3.8858800     0.4149390     0.8894490
  H        3.8858720     0.4147700    -0.8895010
  H       -4.2474240     0.2791820     0.0000590
units angstrom
no_reorient  #important for SAPT in psi4, default
symmetry c1  #important for SAPT in psi4, default
}

set PROPERTIES_ORIGIN ["COM"]
properties('MP2/aug-cc-pvtz', properties = ['dipole'])
--------------------------------------------------------------------------

    Molecular point group: c1
  Charge       = 0
  Multiplicity = 1
  Basis Set: AUG-CC-PVTZ
    Blend: AUG-CC-PVTZ
  Basis Set: (AUG-CC-PVTZ AUX)
    Blend: AUG-CC-PVTZ-JKFIT

    Orbital Energies [Eh]
    ---------------------

    Doubly Occupied:

       1A    -20.621211     2A    -20.611632     3A    -20.559320
       4A    -20.554493     5A    -11.397556     6A    -11.390065
       7A    -11.290494     8A    -11.258408     9A    -11.256477
      10A     -1.466070    11A     -1.461806    12A     -1.363700
      13A     -1.361359    14A     -1.097366    15A     -0.998903
      16A     -0.931798    17A     -0.814078    18A     -0.772171
      19A     -0.725616    20A     -0.708921    21A     -0.689829
      22A     -0.678806    23A     -0.667784    24A     -0.661603
      25A     -0.611056    26A     -0.601581    27A     -0.567067
      28A     -0.549583    29A     -0.544289    30A     -0.535487
      31A     -0.510868    32A     -0.489383    33A     -0.469952
      34A     -0.464048    35A     -0.457192

  @DF-RHF Final Energy:  -493.67633034899927

   => Energetics <=

    Nuclear Repulsion Energy =            445.3075912572909942
    One-Electron Energy =               -1559.6878979591663210
    Two-Electron Energy =                 620.7039763528759977
    Total Energy =                       -493.6763303489992722
  Basis Set: (AUG-CC-PVTZ AUX)
    Blend: AUG-CC-PVTZ-RI
    Molecular point group: c1

    Geometry (in Angstrom), charge = 0, multiplicity = 1:

       Center              X                  Y                   Z               Mass
    ------------   -----------------  -----------------  -----------------  -----------------
         O            2.445016045623    -0.754616883646    -0.000157684059    15.994914619570
         O           -3.369037954377     0.794099116354    -0.000138684059    15.994914619570
         O            1.656345045623     1.375638116354    -0.000406684059    15.994914619570
         O           -2.584990954377    -1.331284883646    -0.000391684059    15.994914619570
         C            0.103502045623    -0.494833883646    -0.000223684059    12.000000000000
         C           -1.019061954377     0.529149116354    -0.000209684059    12.000000000000
         C            1.456441045623     0.171039116354    -0.000272684059    12.000000000000
         C           -2.371540954377    -0.130339883646    -0.000257684059    12.000000000000
         C            3.775124045623    -0.196432883646    -0.000217684059    12.000000000000
         H            0.035754045623    -1.154545883646     0.870515315941     1.007825032230
         H            0.035704045623    -1.154561883646    -0.870947684059     1.007825032230
         H           -0.952493954377     1.189861116354    -0.870387684059     1.007825032230
         H           -0.952527954377     1.189814116354     0.870007315941     1.007825032230
         H            4.426674945623    -1.067202183646     0.032999015941     1.007825032230
         H            3.930327045623     0.415913116354     0.889198315941     1.007825032230
         H            3.930319045623     0.415744116354    -0.889751684059     1.007825032230
         H           -4.202976954377     0.280156116354    -0.000191684059     1.007825032230

  Basis Set: AUG-CC-PVTZ
    Blend: AUG-CC-PVTZ
  Basis Set: (AUG-CC-PVTZ AUX)
    Blend: AUG-CC-PVTZ-JKFIT
	 Reference Energy          =    -493.6763303489992722 [Eh]
	 Singles Energy            =      -0.0000000000000000 [Eh]
	 Same-Spin Energy          =      -0.4750745933890571 [Eh]
	 Opposite-Spin Energy      =      -1.4699114737984986 [Eh]
	 Correlation Energy        =      -1.9449860671875556 [Eh]
	 Total Energy              =    -495.6213164161868008 [Eh]

	 ================> DF-SCS-MP2 Energies <==================
	-----------------------------------------------------------
	 SCS Same-Spin Scale       =       0.3333333333333333 [-]
	 SCS Opposite-Spin Scale   =       1.2000000000000000 [-]
	 SCS Same-Spin Energy      =      -0.1583581977963524 [Eh]
	 SCS Opposite-Spin Energy  =      -1.7638937685581983 [Eh]
	 SCS Correlation Energy    =      -1.9222519663545508 [Eh]
	 SCS Total Energy          =    -495.5985823153538377 [Eh]
	-----------------------------------------------------------

  Dipole Moment: [D]
     X:     0.6902      Y:    -0.1297      Z:     0.0135     Total:     0.7025

*** Psi4 exiting successfully. Buy a developer a beer!
