                               Psi4 1.4a3.dev225

  ==> Input File <==

--------------------------------------------------------------------------
#psi4
#
memory 32 gb

molecule  {
0 1
  O        2.4005690    -0.7555910     0.0000930
  O       -3.4134850     0.7931250     0.0001120
  O        1.6118980     1.3746640    -0.0001560
  O       -2.6294380    -1.3322590    -0.0001410
  C        0.0590550    -0.4958080     0.0000270
  C       -1.0635090     0.5281750     0.0000410
  C        1.4119940     0.1700650    -0.0000220
  C       -2.4159880    -0.1313140    -0.0000070
  C        3.6384674    -0.2361031     0.0000372
  H       -0.0086930    -1.1555200     0.8707660
  H       -0.0087430    -1.1555360    -0.8706970
  H       -0.9969410     1.1888870    -0.8701370
  H       -0.9969750     1.1888400     0.8702580
  H        4.3972900    -1.0573420     0.0001120
  H        3.8858800     0.4149390     0.8894490
  H        3.8858720     0.4147700    -0.8895010
  H       -4.2474240     0.2791820     0.0000590
units angstrom
no_reorient  #important for SAPT in psi4, default
symmetry c1  #important for SAPT in psi4, default
}

set PROPERTIES_ORIGIN ["COM"]
properties('MP2/aug-cc-pvtz', properties = ['dipole'])
--------------------------------------------------------------------------

    Molecular point group: c1
  Charge       = 0
  Multiplicity = 1
  Basis Set: AUG-CC-PVTZ
    Blend: AUG-CC-PVTZ
  Basis Set: (AUG-CC-PVTZ AUX)
    Blend: AUG-CC-PVTZ-JKFIT

    Orbital Energies [Eh]
    ---------------------

    Doubly Occupied:

       1A    -20.622879     2A    -20.620892     3A    -20.561228
       4A    -20.561096     5A    -11.399597     6A    -11.396500
       7A    -11.290574     8A    -11.261215     9A    -11.260332
      10A     -1.489346    11A     -1.467786    12A     -1.376809
      13A     -1.365494    14A     -1.101982    15A     -1.005580
      16A     -0.927938    17A     -0.816495    18A     -0.782936
      19A     -0.731233    20A     -0.711249    21A     -0.699653
      22A     -0.694208    23A     -0.675165    24A     -0.666878
      25A     -0.612355    26A     -0.607606    27A     -0.570164
      28A     -0.550460    29A     -0.542269    30A     -0.517359
      31A     -0.510649    32A     -0.491009    33A     -0.467621
      34A     -0.463127    35A     -0.461994

  @DF-RHF Final Energy:  -493.66813826463863

   => Energetics <=

    Nuclear Repulsion Energy =            447.2251299792951045
    One-Electron Energy =               -1563.2231777536087520
    Two-Electron Energy =                 622.3299095096749625
    Total Energy =                       -493.6681382646386282
  Basis Set: (AUG-CC-PVTZ AUX)
    Blend: AUG-CC-PVTZ-RI
    Molecular point group: c1

    Geometry (in Angstrom), charge = 0, multiplicity = 1:

       Center              X                  Y                   Z               Mass
    ------------   -----------------  -----------------  -----------------  -----------------
         O            2.453281090837    -0.751182876037     0.000094860876    15.994914619570
         O           -3.360772909163     0.797533123963     0.000113860876    15.994914619570
         O            1.664610090837     1.379072123963    -0.000154139124    15.994914619570
         O           -2.576725909163    -1.327850876037    -0.000139139124    15.994914619570
         C            0.111767090837    -0.491399876037     0.000028860876    12.000000000000
         C           -1.010796909163     0.532583123963     0.000042860876    12.000000000000
         C            1.464706090837     0.174473123963    -0.000020139124    12.000000000000
         C           -2.363275909163    -0.126905876037    -0.000005139124    12.000000000000
         C            3.691179490837    -0.231694976037     0.000039060876    12.000000000000
         H            0.044019090837    -1.151111876037     0.870767860876     1.007825032230
         H            0.043969090837    -1.151127876037    -0.870695139124     1.007825032230
         H           -0.944228909163     1.193295123963    -0.870135139124     1.007825032230
         H           -0.944262909163     1.193248123963     0.870259860876     1.007825032230
         H            4.450002090837    -1.052933876037     0.000113860876     1.007825032230
         H            3.938592090837     0.419347123963     0.889450860876     1.007825032230
         H            3.938584090837     0.419178123963    -0.889499139124     1.007825032230
         H           -4.194711909163     0.283590123963     0.000060860876     1.007825032230

  Basis Set: AUG-CC-PVTZ
    Blend: AUG-CC-PVTZ
  Basis Set: (AUG-CC-PVTZ AUX)
    Blend: AUG-CC-PVTZ-JKFIT
	 Reference Energy          =    -493.6681382646386282 [Eh]
	 Singles Energy            =      -0.0000000000000000 [Eh]
	 Same-Spin Energy          =      -0.4753727464008022 [Eh]
	 Opposite-Spin Energy      =      -1.4693269454294593 [Eh]
	 Correlation Energy        =      -1.9446996918302615 [Eh]
	 Total Energy              =    -495.6128379564688657 [Eh]

	 ================> DF-SCS-MP2 Energies <==================
	-----------------------------------------------------------
	 SCS Same-Spin Scale       =       0.3333333333333333 [-]
	 SCS Opposite-Spin Scale   =       1.2000000000000000 [-]
	 SCS Same-Spin Energy      =      -0.1584575821336007 [Eh]
	 SCS Opposite-Spin Energy  =      -1.7631923345153511 [Eh]
	 SCS Correlation Energy    =      -1.9216499166489518 [Eh]
	 SCS Total Energy          =    -495.5897881812875880 [Eh]
	-----------------------------------------------------------

  Dipole Moment: [D]
     X:     0.2660      Y:    -0.1733      Z:     0.0003     Total:     0.3175

*** Psi4 exiting successfully. Buy a developer a beer!
