                               Psi4 1.4a3.dev225

  ==> Input File <==

--------------------------------------------------------------------------
#psi4
#
memory 32 gb

molecule  {
0 1
  O        2.4005690    -0.7555910     0.0000930
  O       -3.4134850     0.7931250     0.0001120
  O        1.6118980     1.3746640    -0.0001560
  O       -2.6294380    -1.3322590    -0.0001410
  C        0.0590550    -0.4958080     0.0000270
  C       -1.0635090     0.5281750     0.0000410
  C        1.4119940     0.1700650    -0.0000220
  C       -2.4159880    -0.1313140    -0.0000070
  C        3.7306770    -0.1974070     0.0000330
  H       -0.0086930    -1.1555200     0.8707660
  H       -0.0087430    -1.1555360    -0.8706970
  H       -0.9969410     1.1888870    -0.8701370
  H       -0.9939359     1.2190180     0.9100079
  H        4.3972900    -1.0573420     0.0001120
  H        3.8858800     0.4149390     0.8894490
  H        3.8858720     0.4147700    -0.8895010
  H       -4.2474240     0.2791820     0.0000590
units angstrom
no_reorient  #important for SAPT in psi4, default
symmetry c1  #important for SAPT in psi4, default
}

set PROPERTIES_ORIGIN ["COM"]
properties('MP2/aug-cc-pvtz', properties = ['dipole'])
--------------------------------------------------------------------------

    Molecular point group: c1
  Charge       = 0
  Multiplicity = 1
  Basis Set: AUG-CC-PVTZ
    Blend: AUG-CC-PVTZ
  Basis Set: (AUG-CC-PVTZ AUX)
    Blend: AUG-CC-PVTZ-JKFIT

    Orbital Energies [Eh]
    ---------------------

    Doubly Occupied:

       1A    -20.621057     2A    -20.611927     3A    -20.559481
       4A    -20.554453     5A    -11.397828     6A    -11.390247
       7A    -11.290502     8A    -11.263828     9A    -11.256966
      10A     -1.466023    11A     -1.461857    12A     -1.363757
      13A     -1.361333    14A     -1.095831    15A     -0.997851
      16A     -0.931467    17A     -0.812953    18A     -0.771164
      19A     -0.724725    20A     -0.708891    21A     -0.688945
      22A     -0.678284    23A     -0.667953    24A     -0.659872
      25A     -0.610650    26A     -0.601843    27A     -0.566543
      28A     -0.547850    29A     -0.543089    30A     -0.534929
      31A     -0.508691    32A     -0.489246    33A     -0.469902
      34A     -0.464037    35A     -0.457177

  @DF-RHF Final Energy:  -493.67430584802275

   => Energetics <=

    Nuclear Repulsion Energy =            445.0437425182684592
    One-Electron Energy =               -1559.1737910073004514
    Two-Electron Energy =                 620.4557426410093512
    Total Energy =                       -493.6743058480227546
  Basis Set: (AUG-CC-PVTZ AUX)
    Blend: AUG-CC-PVTZ-RI
    Molecular point group: c1

    Geometry (in Angstrom), charge = 0, multiplicity = 1:

       Center              X                  Y                   Z               Mass
    ------------   -----------------  -----------------  -----------------  -----------------
         O            2.444877886502    -0.754929913906    -0.000208152301    15.994914619570
         O           -3.369176113498     0.793786086094    -0.000189152301    15.994914619570
         O            1.656206886502     1.375325086094    -0.000457152301    15.994914619570
         O           -2.585129113498    -1.331597913906    -0.000442152301    15.994914619570
         C            0.103363886502    -0.495146913906    -0.000274152301    12.000000000000
         C           -1.019200113498     0.528836086094    -0.000260152301    12.000000000000
         C            1.456302886502     0.170726086094    -0.000323152301    12.000000000000
         C           -2.371679113498    -0.130652913906    -0.000308152301    12.000000000000
         C            3.774985886502    -0.196745913906    -0.000268152301    12.000000000000
         H            0.035615886502    -1.154858913906     0.870464847699     1.007825032230
         H            0.035565886502    -1.154874913906    -0.870998152301     1.007825032230
         H           -0.952632113498     1.189548086094    -0.870438152301     1.007825032230
         H           -0.949627013498     1.219679086094     0.909706747699     1.007825032230
         H            4.441598886502    -1.056680913906    -0.000189152301     1.007825032230
         H            3.930188886502     0.415600086094     0.889147847699     1.007825032230
         H            3.930180886502     0.415431086094    -0.889802152301     1.007825032230
         H           -4.203115113498     0.279843086094    -0.000242152301     1.007825032230

  Basis Set: AUG-CC-PVTZ
    Blend: AUG-CC-PVTZ
  Basis Set: (AUG-CC-PVTZ AUX)
    Blend: AUG-CC-PVTZ-JKFIT
	 Reference Energy          =    -493.6743058480227546 [Eh]
	 Singles Energy            =      -0.0000000000000000 [Eh]
	 Same-Spin Energy          =      -0.4751118755443375 [Eh]
	 Opposite-Spin Energy      =      -1.4702573972869111 [Eh]
	 Correlation Energy        =      -1.9453692728312486 [Eh]
	 Total Energy              =    -495.6196751208540263 [Eh]

	 ================> DF-SCS-MP2 Energies <==================
	-----------------------------------------------------------
	 SCS Same-Spin Scale       =       0.3333333333333333 [-]
	 SCS Opposite-Spin Scale   =       1.2000000000000000 [-]
	 SCS Same-Spin Energy      =      -0.1583706251814458 [Eh]
	 SCS Opposite-Spin Energy  =      -1.7643088767442932 [Eh]
	 SCS Correlation Energy    =      -1.9226795019257390 [Eh]
	 SCS Total Energy          =    -495.5969853499485112 [Eh]
	-----------------------------------------------------------

  Dipole Moment: [D]
     X:     0.6996      Y:    -0.1326      Z:    -0.0028     Total:     0.7120

*** Psi4 exiting successfully. Buy a developer a beer!
