                               Psi4 1.4a3.dev225

  ==> Input File <==

--------------------------------------------------------------------------
#psi4
#
memory 32 gb

molecule  {
0 1
  O        2.4005690    -0.7555910     0.0000930
  O       -3.4134850     0.7931250     0.0001120
  O        1.6118980     1.3746640    -0.0001560
  O       -2.6294380    -1.3322590    -0.0001410
  C        0.0590550    -0.4958080     0.0000270
  C       -1.0635090     0.5281750     0.0000410
  C        1.4119940     0.1700650    -0.0000220
  C       -2.4159880    -0.1313140    -0.0000070
  C        3.7306770    -0.1974070     0.0000330
  H       -0.0074551    -1.1434653     0.8548553
  H       -0.0087430    -1.1555360    -0.8706970
  H       -0.9969410     1.1888870    -0.8701370
  H       -0.9969750     1.1888400     0.8702580
  H        4.3972900    -1.0573420     0.0001120
  H        3.8858800     0.4149390     0.8894490
  H        3.8858720     0.4147700    -0.8895010
  H       -4.2474240     0.2791820     0.0000590
units angstrom
no_reorient  #important for SAPT in psi4, default
symmetry c1  #important for SAPT in psi4, default
}

set PROPERTIES_ORIGIN ["COM"]
properties('MP2/aug-cc-pvtz', properties = ['dipole'])
--------------------------------------------------------------------------

    Molecular point group: c1
  Charge       = 0
  Multiplicity = 1
  Basis Set: AUG-CC-PVTZ
    Blend: AUG-CC-PVTZ
  Basis Set: (AUG-CC-PVTZ AUX)
    Blend: AUG-CC-PVTZ-JKFIT

    Orbital Energies [Eh]
    ---------------------

    Doubly Occupied:

       1A    -20.621221     2A    -20.611965     3A    -20.559366
       4A    -20.554459     5A    -11.397581     6A    -11.390141
       7A    -11.290512     8A    -11.258280     9A    -11.254343
      10A     -1.466092    11A     -1.461880    12A     -1.363737
      13A     -1.361356    14A     -1.098151    15A     -0.998981
      16A     -0.932659    17A     -0.814232    18A     -0.772864
      19A     -0.725979    20A     -0.709075    21A     -0.690452
      22A     -0.678919    23A     -0.668251    24A     -0.661761
      25A     -0.611962    26A     -0.601888    27A     -0.567326
      28A     -0.549512    29A     -0.544915    30A     -0.534927
      31A     -0.512222    32A     -0.489422    33A     -0.470011
      34A     -0.464098    35A     -0.457322

  @DF-RHF Final Energy:  -493.67659722728109

   => Energetics <=

    Nuclear Repulsion Energy =            445.3844853981967731
    One-Electron Energy =               -1559.8304432208062735
    Two-Electron Energy =                 620.7693605953284077
    Total Energy =                       -493.6765972272810359
  Basis Set: (AUG-CC-PVTZ AUX)
    Blend: AUG-CC-PVTZ-RI
    Molecular point group: c1

    Geometry (in Angstrom), charge = 0, multiplicity = 1:

       Center              X                  Y                   Z               Mass
    ------------   -----------------  -----------------  -----------------  -----------------
         O            2.444891634331    -0.754791586104     0.000216682495    15.994914619570
         O           -3.369162365669     0.793924413896     0.000235682495    15.994914619570
         O            1.656220634331     1.375463413896    -0.000032317505    15.994914619570
         O           -2.585115365669    -1.331459586104    -0.000017317505    15.994914619570
         C            0.103377634331    -0.495008586104     0.000150682495    12.000000000000
         C           -1.019186365669     0.528974413896     0.000164682495    12.000000000000
         C            1.456316634331     0.170864413896     0.000101682495    12.000000000000
         C           -2.371665365669    -0.130514586104     0.000116682495    12.000000000000
         C            3.774999634331    -0.196607586104     0.000156682495    12.000000000000
         H            0.036867534331    -1.142665886104     0.854978982495     1.007825032230
         H            0.035579634331    -1.154736586104    -0.870573317505     1.007825032230
         H           -0.952618365669     1.189686413896    -0.870013317505     1.007825032230
         H           -0.952652365669     1.189639413896     0.870381682495     1.007825032230
         H            4.441612634331    -1.056542586104     0.000235682495     1.007825032230
         H            3.930202634331     0.415738413896     0.889572682495     1.007825032230
         H            3.930194634331     0.415569413896    -0.889377317505     1.007825032230
         H           -4.203101365669     0.279981413896     0.000182682495     1.007825032230

  Basis Set: AUG-CC-PVTZ
    Blend: AUG-CC-PVTZ
  Basis Set: (AUG-CC-PVTZ AUX)
    Blend: AUG-CC-PVTZ-JKFIT
	 Reference Energy          =    -493.6765972272810927 [Eh]
	 Singles Energy            =      -0.0000000000000000 [Eh]
	 Same-Spin Energy          =      -0.4750373430243512 [Eh]
	 Opposite-Spin Energy      =      -1.4697485784941537 [Eh]
	 Correlation Energy        =      -1.9447859215185050 [Eh]
	 Total Energy              =    -495.6213831487996231 [Eh]

	 ================> DF-SCS-MP2 Energies <==================
	-----------------------------------------------------------
	 SCS Same-Spin Scale       =       0.3333333333333333 [-]
	 SCS Opposite-Spin Scale   =       1.2000000000000000 [-]
	 SCS Same-Spin Energy      =      -0.1583457810081171 [Eh]
	 SCS Opposite-Spin Energy  =      -1.7636982941929844 [Eh]
	 SCS Correlation Energy    =      -1.9220440752011014 [Eh]
	 SCS Total Energy          =    -495.5986413024821786 [Eh]
	-----------------------------------------------------------

  Dipole Moment: [D]
     X:     0.6956      Y:    -0.1297      Z:     0.0014     Total:     0.7076

*** Psi4 exiting successfully. Buy a developer a beer!
