                               Psi4 1.4a3.dev225

  ==> Input File <==

--------------------------------------------------------------------------
#psi4
#
memory 32 gb

molecule  {
0 1
  O        2.4005690    -0.7555910     0.0000930
  O       -3.4134850     0.7931250     0.0001120
  O        1.6118980     1.3746640    -0.0001560
  O       -2.6294380    -1.3322590    -0.0001410
  C        0.0590550    -0.4958080     0.0000270
  C       -1.0635090     0.5281750     0.0000410
  C        1.4038084     0.1207396    -0.0000165
  C       -2.4159880    -0.1313140    -0.0000070
  C        3.7306770    -0.1974070     0.0000330
  H       -0.0086930    -1.1555200     0.8707660
  H       -0.0087430    -1.1555360    -0.8706970
  H       -0.9969410     1.1888870    -0.8701370
  H       -0.9969750     1.1888400     0.8702580
  H        4.3972900    -1.0573420     0.0001120
  H        3.8858800     0.4149390     0.8894490
  H        3.8858720     0.4147700    -0.8895010
  H       -4.2474240     0.2791820     0.0000590
units angstrom
no_reorient  #important for SAPT in psi4, default
symmetry c1  #important for SAPT in psi4, default
}

set PROPERTIES_ORIGIN ["COM"]
properties('MP2/aug-cc-pvtz', properties = ['dipole'])
--------------------------------------------------------------------------

    Molecular point group: c1
  Charge       = 0
  Multiplicity = 1
  Basis Set: AUG-CC-PVTZ
    Blend: AUG-CC-PVTZ
  Basis Set: (AUG-CC-PVTZ AUX)
    Blend: AUG-CC-PVTZ-JKFIT

    Orbital Energies [Eh]
    ---------------------

    Doubly Occupied:

       1A    -20.621667     2A    -20.619425     3A    -20.559827
       4A    -20.544525     5A    -11.398212     6A    -11.393467
       7A    -11.294380     8A    -11.259464     9A    -11.257826
      10A     -1.466856    11A     -1.466134    12A     -1.364216
      13A     -1.333990    14A     -1.101520    15A     -1.007109
      16A     -0.938478    17A     -0.816671    18A     -0.775375
      19A     -0.725416    20A     -0.708935    21A     -0.693252
      22A     -0.674196    23A     -0.668772    24A     -0.663614
      25A     -0.612659    26A     -0.599322    27A     -0.565883
      28A     -0.548494    29A     -0.547018    30A     -0.531774
      31A     -0.508988    32A     -0.489924    33A     -0.465217
      34A     -0.460111    35A     -0.452751

  @DF-RHF Final Energy:  -493.66938967330469

   => Energetics <=

    Nuclear Repulsion Energy =            445.1756772160486548
    One-Electron Energy =               -1559.4192017077109540
    Two-Electron Energy =                 620.5741348183577202
    Total Energy =                       -493.6693896733046358
  Basis Set: (AUG-CC-PVTZ AUX)
    Blend: AUG-CC-PVTZ-RI
    Molecular point group: c1

    Geometry (in Angstrom), charge = 0, multiplicity = 1:

       Center              X                  Y                   Z               Mass
    ------------   -----------------  -----------------  -----------------  -----------------
         O            2.445644990019    -0.750216885291     0.000094742732    15.994914619570
         O           -3.368409009981     0.798499114709     0.000113742732    15.994914619570
         O            1.656973990019     1.380038114709    -0.000154257268    15.994914619570
         O           -2.584362009981    -1.326884885291    -0.000139257268    15.994914619570
         C            0.104130990019    -0.490433885291     0.000028742732    12.000000000000
         C           -1.018433009981     0.533549114709     0.000042742732    12.000000000000
         C            1.448884390019     0.126113714709    -0.000014757268    12.000000000000
         C           -2.370912009981    -0.125939885291    -0.000005257268    12.000000000000
         C            3.775752990019    -0.192032885291     0.000034742732    12.000000000000
         H            0.036382990019    -1.150145885291     0.870767742732     1.007825032230
         H            0.036332990019    -1.150161885291    -0.870695257268     1.007825032230
         H           -0.951865009981     1.194261114709    -0.870135257268     1.007825032230
         H           -0.951899009981     1.194214114709     0.870259742732     1.007825032230
         H            4.442365990019    -1.051967885291     0.000113742732     1.007825032230
         H            3.930955990019     0.420313114709     0.889450742732     1.007825032230
         H            3.930947990019     0.420144114709    -0.889499257268     1.007825032230
         H           -4.202348009981     0.284556114709     0.000060742732     1.007825032230

  Basis Set: AUG-CC-PVTZ
    Blend: AUG-CC-PVTZ
  Basis Set: (AUG-CC-PVTZ AUX)
    Blend: AUG-CC-PVTZ-JKFIT
	 Reference Energy          =    -493.6693896733046927 [Eh]
	 Singles Energy            =      -0.0000000000000000 [Eh]
	 Same-Spin Energy          =      -0.4759959956392535 [Eh]
	 Opposite-Spin Energy      =      -1.4714861473345895 [Eh]
	 Correlation Energy        =      -1.9474821429738429 [Eh]
	 Total Energy              =    -495.6168718162785467 [Eh]

	 ================> DF-SCS-MP2 Energies <==================
	-----------------------------------------------------------
	 SCS Same-Spin Scale       =       0.3333333333333333 [-]
	 SCS Opposite-Spin Scale   =       1.2000000000000000 [-]
	 SCS Same-Spin Energy      =      -0.1586653318797512 [Eh]
	 SCS Opposite-Spin Energy  =      -1.7657833768015074 [Eh]
	 SCS Correlation Energy    =      -1.9244487086812585 [Eh]
	 SCS Total Energy          =    -495.5938383819859610 [Eh]
	-----------------------------------------------------------

  Dipole Moment: [D]
     X:     0.7602      Y:    -0.4340      Z:     0.0003     Total:     0.8754

*** Psi4 exiting successfully. Buy a developer a beer!
