                               Psi4 1.4a3.dev225

  ==> Input File <==

--------------------------------------------------------------------------
#psi4
#
memory 32 gb

molecule  {
0 1
  O        2.4005690    -0.7555910     0.0000930
  O       -3.4134850     0.7931250     0.0001120
  O        1.6118980     1.3746640    -0.0001560
  O       -2.6294380    -1.3322590    -0.0001410
  C        0.0590550    -0.4958080     0.0000270
  C       -1.0635090     0.5281750     0.0000410
  C        1.4119940     0.1700650    -0.0000220
  C       -2.4159880    -0.1313140    -0.0000070
  C        3.7306770    -0.1974070     0.0000330
  H       -0.0086930    -1.1555200     0.8707660
  H       -0.0087430    -1.1555360    -0.8706970
  H       -0.9969410     1.1888870    -0.8701370
  H       -0.9969750     1.1888400     0.8702580
  H        4.3972900    -1.0573420     0.0001120
  H        3.8858800     0.4149390     0.8894490
  H        3.8858720     0.4147700    -0.8895010
  H       -4.2303977     0.2896750     0.0000601
units angstrom
no_reorient  #important for SAPT in psi4, default
symmetry c1  #important for SAPT in psi4, default
}

set PROPERTIES_ORIGIN ["COM"]
properties('MP2/aug-cc-pvtz', properties = ['dipole'])
--------------------------------------------------------------------------

    Molecular point group: c1
  Charge       = 0
  Multiplicity = 1
  Basis Set: AUG-CC-PVTZ
    Blend: AUG-CC-PVTZ
  Basis Set: (AUG-CC-PVTZ AUX)
    Blend: AUG-CC-PVTZ-JKFIT

    Orbital Energies [Eh]
    ---------------------

    Doubly Occupied:

       1A    -20.619945     2A    -20.611963     3A    -20.559742
       4A    -20.554592     5A    -11.397977     6A    -11.390316
       7A    -11.290532     8A    -11.258556     9A    -11.256647
      10A     -1.469088    11A     -1.461942    12A     -1.365717
      13A     -1.361456    14A     -1.097689    15A     -0.999265
      16A     -0.932806    17A     -0.817180    18A     -0.772574
      19A     -0.726150    20A     -0.710619    21A     -0.689969
      22A     -0.679136    23A     -0.668362    24A     -0.661961
      25A     -0.611468    26A     -0.602806    27A     -0.567729
      28A     -0.549710    29A     -0.544805    30A     -0.534990
      31A     -0.511051    32A     -0.489963    33A     -0.470069
      34A     -0.464403    35A     -0.457426

  @DF-RHF Final Energy:  -493.67741905633522

   => Energetics <=

    Nuclear Repulsion Energy =            445.4074886329876222
    One-Electron Energy =               -1559.8526024022380625
    Two-Electron Energy =                 620.7676947129151586
    Total Energy =                       -493.6774190563352249
  Basis Set: (AUG-CC-PVTZ AUX)
    Blend: AUG-CC-PVTZ-RI
    Molecular point group: c1

    Geometry (in Angstrom), charge = 0, multiplicity = 1:

       Center              X                  Y                   Z               Mass
    ------------   -----------------  -----------------  -----------------  -----------------
         O            2.444771127875    -0.754779666281     0.000095234176    15.994914619570
         O           -3.369282872125     0.793936333719     0.000114234176    15.994914619570
         O            1.656100127875     1.375475333719    -0.000153765824    15.994914619570
         O           -2.585235872125    -1.331447666281    -0.000138765824    15.994914619570
         C            0.103257127875    -0.494996666281     0.000029234176    12.000000000000
         C           -1.019306872125     0.528986333719     0.000043234176    12.000000000000
         C            1.456196127875     0.170876333719    -0.000019765824    12.000000000000
         C           -2.371785872125    -0.130502666281    -0.000004765824    12.000000000000
         C            3.774879127875    -0.196595666281     0.000035234176    12.000000000000
         H            0.035509127875    -1.154708666281     0.870768234176     1.007825032230
         H            0.035459127875    -1.154724666281    -0.870694765824     1.007825032230
         H           -0.952738872125     1.189698333719    -0.870134765824     1.007825032230
         H           -0.952772872125     1.189651333719     0.870260234176     1.007825032230
         H            4.441492127875    -1.056530666281     0.000114234176     1.007825032230
         H            3.930082127875     0.415750333719     0.889451234176     1.007825032230
         H            3.930074127875     0.415581333719    -0.889498765824     1.007825032230
         H           -4.186195572125     0.290486333719     0.000062334176     1.007825032230

  Basis Set: AUG-CC-PVTZ
    Blend: AUG-CC-PVTZ
  Basis Set: (AUG-CC-PVTZ AUX)
    Blend: AUG-CC-PVTZ-JKFIT
	 Reference Energy          =    -493.6774190563352249 [Eh]
	 Singles Energy            =      -0.0000000000000000 [Eh]
	 Same-Spin Energy          =      -0.4748029022909932 [Eh]
	 Opposite-Spin Energy      =      -1.4692945194512750 [Eh]
	 Correlation Energy        =      -1.9440974217422682 [Eh]
	 Total Energy              =    -495.6215164780774671 [Eh]

	 ================> DF-SCS-MP2 Energies <==================
	-----------------------------------------------------------
	 SCS Same-Spin Scale       =       0.3333333333333333 [-]
	 SCS Opposite-Spin Scale   =       1.2000000000000000 [-]
	 SCS Same-Spin Energy      =      -0.1582676340969977 [Eh]
	 SCS Opposite-Spin Energy  =      -1.7631534233415300 [Eh]
	 SCS Correlation Energy    =      -1.9214210574385278 [Eh]
	 SCS Total Energy          =    -495.5988401137737469 [Eh]
	-----------------------------------------------------------

  Dipole Moment: [D]
     X:     0.7171      Y:    -0.1220      Z:     0.0003     Total:     0.7274

*** Psi4 exiting successfully. Buy a developer a beer!
