                               Psi4 1.4a3.dev225

  ==> Input File <==

--------------------------------------------------------------------------
#psi4
#
memory 32 gb

molecule  {
0 1
  O        2.4005690    -0.7555910     0.0000930
  O       -3.4134850     0.7931250     0.0001120
  O        1.6118980     1.3746640    -0.0001560
  O       -2.6294380    -1.3322590    -0.0001410
  C        0.0590550    -0.4958080     0.0000270
  C       -1.0635090     0.5281750     0.0000410
  C        1.3498316     0.0988506    -0.0000138
  C       -2.4159880    -0.1313140    -0.0000070
  C        3.7306770    -0.1974070     0.0000330
  H       -0.0086930    -1.1555200     0.8707660
  H       -0.0087430    -1.1555360    -0.8706970
  H       -0.9969410     1.1888870    -0.8701370
  H       -0.9969750     1.1888400     0.8702580
  H        4.3972900    -1.0573420     0.0001120
  H        3.8858800     0.4149390     0.8894490
  H        3.8858720     0.4147700    -0.8895010
  H       -4.2474240     0.2791820     0.0000590
units angstrom
no_reorient  #important for SAPT in psi4, default
symmetry c1  #important for SAPT in psi4, default
}

set PROPERTIES_ORIGIN ["COM"]
properties('MP2/aug-cc-pvtz', properties = ['dipole'])
--------------------------------------------------------------------------

    Molecular point group: c1
  Charge       = 0
  Multiplicity = 1
  Basis Set: AUG-CC-PVTZ
    Blend: AUG-CC-PVTZ
  Basis Set: (AUG-CC-PVTZ AUX)
    Blend: AUG-CC-PVTZ-JKFIT

    Orbital Energies [Eh]
    ---------------------

    Doubly Occupied:

       1A    -20.623900     2A    -20.613478     3A    -20.562490
       4A    -20.542999     5A    -11.400926     6A    -11.398091
       7A    -11.291298     8A    -11.263572     9A    -11.260604
      10A     -1.468924    11A     -1.450308    12A     -1.366745
      13A     -1.315355    14A     -1.114435    15A     -1.010129
      16A     -0.942659    17A     -0.820165    18A     -0.770485
      19A     -0.728680    20A     -0.711774    21A     -0.693463
      22A     -0.669076    23A     -0.666092    24A     -0.661385
      25A     -0.616663    26A     -0.599824    27A     -0.569905
      28A     -0.553364    29A     -0.546425    30A     -0.523652
      31A     -0.506192    32A     -0.492345    33A     -0.468382
      34A     -0.451641    35A     -0.451262

  @DF-RHF Final Energy:  -493.65516923926089

   => Energetics <=

    Nuclear Repulsion Energy =            445.0812703745431236
    One-Electron Energy =               -1559.2195045785865659
    Two-Electron Energy =                 620.4830649647824430
    Total Energy =                       -493.6551692392608857
  Basis Set: (AUG-CC-PVTZ AUX)
    Blend: AUG-CC-PVTZ-RI
    Molecular point group: c1

    Geometry (in Angstrom), charge = 0, multiplicity = 1:

       Center              X                  Y                   Z               Mass
    ------------   -----------------  -----------------  -----------------  -----------------
         O            2.450550401409    -0.748227613049     0.000094497356    15.994914619570
         O           -3.363503598591     0.800488386951     0.000113497356    15.994914619570
         O            1.661879401409     1.382027386951    -0.000154502644    15.994914619570
         O           -2.579456598591    -1.324895613049    -0.000139502644    15.994914619570
         C            0.109036401409    -0.488444613049     0.000028497356    12.000000000000
         C           -1.013527598591     0.535538386951     0.000042497356    12.000000000000
         C            1.399813001409     0.106213986951    -0.000012302644    12.000000000000
         C           -2.366006598591    -0.123950613049    -0.000005502644    12.000000000000
         C            3.780658401409    -0.190043613049     0.000034497356    12.000000000000
         H            0.041288401409    -1.148156613049     0.870767497356     1.007825032230
         H            0.041238401409    -1.148172613049    -0.870695502644     1.007825032230
         H           -0.946959598591     1.196250386951    -0.870135502644     1.007825032230
         H           -0.946993598591     1.196203386951     0.870259497356     1.007825032230
         H            4.447271401409    -1.049978613049     0.000113497356     1.007825032230
         H            3.935861401409     0.422302386951     0.889450497356     1.007825032230
         H            3.935853401409     0.422133386951    -0.889499502644     1.007825032230
         H           -4.197442598591     0.286545386951     0.000060497356     1.007825032230

  Basis Set: AUG-CC-PVTZ
    Blend: AUG-CC-PVTZ
  Basis Set: (AUG-CC-PVTZ AUX)
    Blend: AUG-CC-PVTZ-JKFIT
	 Reference Energy          =    -493.6551692392608857 [Eh]
	 Singles Energy            =      -0.0000000000000000 [Eh]
	 Same-Spin Energy          =      -0.4774525565745088 [Eh]
	 Opposite-Spin Energy      =      -1.4742247750973860 [Eh]
	 Correlation Energy        =      -1.9516773316718949 [Eh]
	 Total Energy              =    -495.6068465709327597 [Eh]

	 ================> DF-SCS-MP2 Energies <==================
	-----------------------------------------------------------
	 SCS Same-Spin Scale       =       0.3333333333333333 [-]
	 SCS Opposite-Spin Scale   =       1.2000000000000000 [-]
	 SCS Same-Spin Energy      =      -0.1591508521915029 [Eh]
	 SCS Opposite-Spin Energy  =      -1.7690697301168632 [Eh]
	 SCS Correlation Energy    =      -1.9282205823083660 [Eh]
	 SCS Total Energy          =    -495.5833898215692557 [Eh]
	-----------------------------------------------------------

  Dipole Moment: [D]
     X:     0.3834      Y:    -0.5015      Z:     0.0003     Total:     0.6313

*** Psi4 exiting successfully. Buy a developer a beer!
