                               Psi4 1.4a3.dev225

  ==> Input File <==

--------------------------------------------------------------------------
#psi4
#
memory 32 gb

molecule  {
0 1
  O        2.4005690    -0.7555910     0.0000930
  O       -3.4134850     0.7931250     0.0001120
  O        1.6118980     1.3746640    -0.0001560
  O       -2.6294380    -1.3322590    -0.0001410
  C        0.0590550    -0.4958080     0.0000270
  C       -1.0635090     0.5281750     0.0000410
  C        1.4119940     0.1700650    -0.0000220
  C       -2.4159880    -0.1313140    -0.0000070
  C        3.7306770    -0.1974070     0.0000330
  H       -0.0086930    -1.1555200     0.8707660
  H       -0.0087430    -1.1555360    -0.8706970
  H       -0.9969410     1.1888870    -0.8701370
  H       -0.9969750     1.1888400     0.8702580
  H        4.4375348    -1.0186121    -0.0991401
  H        3.8858800     0.4149390     0.8894490
  H        3.8858720     0.4147700    -0.8895010
  H       -4.2474240     0.2791820     0.0000590
units angstrom
no_reorient  #important for SAPT in psi4, default
symmetry c1  #important for SAPT in psi4, default
}

set PROPERTIES_ORIGIN ["COM"]
properties('MP2/aug-cc-pvtz', properties = ['dipole'])
--------------------------------------------------------------------------

    Molecular point group: c1
  Charge       = 0
  Multiplicity = 1
  Basis Set: AUG-CC-PVTZ
    Blend: AUG-CC-PVTZ
  Basis Set: (AUG-CC-PVTZ AUX)
    Blend: AUG-CC-PVTZ-JKFIT

    Orbital Energies [Eh]
    ---------------------

    Doubly Occupied:

       1A    -20.621290     2A    -20.612699     3A    -20.559408
       4A    -20.554556     5A    -11.397663     6A    -11.390705
       7A    -11.290429     8A    -11.258569     9A    -11.256762
      10A     -1.466154    11A     -1.462012    12A     -1.363785
      13A     -1.361421    14A     -1.097514    15A     -0.998708
      16A     -0.932354    17A     -0.814664    18A     -0.772362
      19A     -0.725259    20A     -0.708983    21A     -0.690288
      22A     -0.679496    23A     -0.669064    24A     -0.661505
      25A     -0.611622    26A     -0.601811    27A     -0.567412
      28A     -0.550008    29A     -0.544674    30A     -0.531610
      31A     -0.510819    32A     -0.489461    33A     -0.470089
      34A     -0.464262    35A     -0.457464

  @DF-RHF Final Energy:  -493.67533698110810

   => Energetics <=

    Nuclear Repulsion Energy =            445.2232600029660148
    One-Electron Energy =               -1559.5074338236249787
    Two-Electron Energy =                 620.6088368395508041
    Total Energy =                       -493.6753369811081029
  Basis Set: (AUG-CC-PVTZ AUX)
    Blend: AUG-CC-PVTZ-RI
    Molecular point group: c1

    Geometry (in Angstrom), charge = 0, multiplicity = 1:

       Center              X                  Y                   Z               Mass
    ------------   -----------------  -----------------  -----------------  -----------------
         O            2.444593910477    -0.754995187092     0.000852793615    15.994914619570
         O           -3.369460089523     0.793720812908     0.000871793615    15.994914619570
         O            1.655922910477     1.375259812908     0.000603793615    15.994914619570
         O           -2.585413089523    -1.331663187092     0.000618793615    15.994914619570
         C            0.103079910477    -0.495212187092     0.000786793615    12.000000000000
         C           -1.019484089523     0.528770812908     0.000800793615    12.000000000000
         C            1.456018910477     0.170660812908     0.000737793615    12.000000000000
         C           -2.371963089523    -0.130718187092     0.000752793615    12.000000000000
         C            3.774701910477    -0.196811187092     0.000792793615    12.000000000000
         H            0.035331910477    -1.154924187092     0.871525793615     1.007825032230
         H            0.035281910477    -1.154940187092    -0.869937206385     1.007825032230
         H           -0.952916089523     1.189482812908    -0.869377206385     1.007825032230
         H           -0.952950089523     1.189435812908     0.871017793615     1.007825032230
         H            4.481559710477    -1.018016287092    -0.098380306385     1.007825032230
         H            3.929904910477     0.415534812908     0.890208793615     1.007825032230
         H            3.929896910477     0.415365812908    -0.888741206385     1.007825032230
         H           -4.203399089523     0.279777812908     0.000818793615     1.007825032230

  Basis Set: AUG-CC-PVTZ
    Blend: AUG-CC-PVTZ
  Basis Set: (AUG-CC-PVTZ AUX)
    Blend: AUG-CC-PVTZ-JKFIT
	 Reference Energy          =    -493.6753369811081029 [Eh]
	 Singles Energy            =      -0.0000000000000000 [Eh]
	 Same-Spin Energy          =      -0.4750795990226878 [Eh]
	 Opposite-Spin Energy      =      -1.4699051746322203 [Eh]
	 Correlation Energy        =      -1.9449847736549080 [Eh]
	 Total Energy              =    -495.6203217547629833 [Eh]

	 ================> DF-SCS-MP2 Energies <==================
	-----------------------------------------------------------
	 SCS Same-Spin Scale       =       0.3333333333333333 [-]
	 SCS Opposite-Spin Scale   =       1.2000000000000000 [-]
	 SCS Same-Spin Energy      =      -0.1583598663408959 [Eh]
	 SCS Opposite-Spin Energy  =      -1.7638862095586643 [Eh]
	 SCS Correlation Energy    =      -1.9222460758995601 [Eh]
	 SCS Total Energy          =    -495.5975830570076823 [Eh]
	-----------------------------------------------------------

  Dipole Moment: [D]
     X:     0.6991      Y:    -0.1194      Z:    -0.0417     Total:     0.7105

*** Psi4 exiting successfully. Buy a developer a beer!
