                               Psi4 1.4a3.dev225

  ==> Input File <==

--------------------------------------------------------------------------
#psi4
#
memory 32 gb

molecule  {
0 1
  O        2.4005690    -0.7555910     0.0000930
  O       -3.4134850     0.7931250     0.0001120
  O        1.6118980     1.3746640    -0.0001560
  O       -2.6294380    -1.3322590    -0.0001410
  C        0.0590550    -0.4958080     0.0000270
  C       -1.0635090     0.5281750     0.0000410
  C        1.4119940     0.1700650    -0.0000220
  C       -2.4159880    -0.1313140    -0.0000070
  C        3.7767818    -0.1780590     0.0000309
  H       -0.0086930    -1.1555200     0.8707660
  H       -0.0087430    -1.1555360    -0.8706970
  H       -0.9969410     1.1888870    -0.8701370
  H       -0.9969750     1.1888400     0.8702580
  H        4.3972900    -1.0573420     0.0001120
  H        3.8858800     0.4149390     0.8894490
  H        3.8858720     0.4147700    -0.8895010
  H       -4.2474240     0.2791820     0.0000590
units angstrom
no_reorient  #important for SAPT in psi4, default
symmetry c1  #important for SAPT in psi4, default
}

set PROPERTIES_ORIGIN ["COM"]
properties('MP2/aug-cc-pvtz', properties = ['dipole'])
--------------------------------------------------------------------------

    Molecular point group: c1
  Charge       = 0
  Multiplicity = 1
  Basis Set: AUG-CC-PVTZ
    Blend: AUG-CC-PVTZ
  Basis Set: (AUG-CC-PVTZ AUX)
    Blend: AUG-CC-PVTZ-JKFIT

    Orbital Energies [Eh]
    ---------------------

    Doubly Occupied:

       1A    -20.620423     2A    -20.607050     3A    -20.558420
       4A    -20.551464     5A    -11.396596     6A    -11.387203
       7A    -11.292084     8A    -11.257118     9A    -11.254679
      10A     -1.465213    11A     -1.451596    12A     -1.362821
      13A     -1.353703    14A     -1.095315    15A     -0.996940
      16A     -0.934220    17A     -0.812857    18A     -0.767104
      19A     -0.722805    20A     -0.707885    21A     -0.686548
      22A     -0.674436    23A     -0.662836    24A     -0.659932
      25A     -0.611433    26A     -0.600846    27A     -0.569481
      28A     -0.554280    29A     -0.544076    30A     -0.532701
      31A     -0.510684    32A     -0.488587    33A     -0.469700
      34A     -0.462719    35A     -0.454577

  @DF-RHF Final Energy:  -493.67392650998949

   => Energetics <=

    Nuclear Repulsion Energy =            444.3719861195556859
    One-Electron Energy =               -1557.9351616469534747
    Two-Electron Energy =                 619.8892490174082468
    Total Energy =                       -493.6739265099895420
  Basis Set: (AUG-CC-PVTZ AUX)
    Blend: AUG-CC-PVTZ-RI
    Molecular point group: c1

    Geometry (in Angstrom), charge = 0, multiplicity = 1:

       Center              X                  Y                   Z               Mass
    ------------   -----------------  -----------------  -----------------  -----------------
         O            2.440711078662    -0.756457923636     0.000095433420    15.994914619570
         O           -3.373342921338     0.792258076364     0.000114433420    15.994914619570
         O            1.652040078662     1.373797076364    -0.000153566580    15.994914619570
         O           -2.589295921338    -1.333125923636    -0.000138566580    15.994914619570
         C            0.099197078662    -0.496674923636     0.000029433420    12.000000000000
         C           -1.023366921338     0.527308076364     0.000043433420    12.000000000000
         C            1.452136078662     0.169198076364    -0.000019566580    12.000000000000
         C           -2.375845921338    -0.132180923636    -0.000004566580    12.000000000000
         C            3.816923878662    -0.178925923636     0.000033333420    12.000000000000
         H            0.031449078662    -1.156386923636     0.870768433420     1.007825032230
         H            0.031399078662    -1.156402923636    -0.870694566580     1.007825032230
         H           -0.956798921338     1.188020076364    -0.870134566580     1.007825032230
         H           -0.956832921338     1.187973076364     0.870260433420     1.007825032230
         H            4.437432078662    -1.058208923636     0.000114433420     1.007825032230
         H            3.926022078662     0.414072076364     0.889451433420     1.007825032230
         H            3.926014078662     0.413903076364    -0.889498566580     1.007825032230
         H           -4.207281921338     0.278315076364     0.000061433420     1.007825032230

  Basis Set: AUG-CC-PVTZ
    Blend: AUG-CC-PVTZ
  Basis Set: (AUG-CC-PVTZ AUX)
    Blend: AUG-CC-PVTZ-JKFIT
	 Reference Energy          =    -493.6739265099894851 [Eh]
	 Singles Energy            =      -0.0000000000000000 [Eh]
	 Same-Spin Energy          =      -0.4750935543665077 [Eh]
	 Opposite-Spin Energy      =      -1.4704865665607914 [Eh]
	 Correlation Energy        =      -1.9455801209272992 [Eh]
	 Total Energy              =    -495.6195066309167601 [Eh]

	 ================> DF-SCS-MP2 Energies <==================
	-----------------------------------------------------------
	 SCS Same-Spin Scale       =       0.3333333333333333 [-]
	 SCS Opposite-Spin Scale   =       1.2000000000000000 [-]
	 SCS Same-Spin Energy      =      -0.1583645181221692 [Eh]
	 SCS Opposite-Spin Energy  =      -1.7645838798729496 [Eh]
	 SCS Correlation Energy    =      -1.9229483979951190 [Eh]
	 SCS Total Energy          =    -495.5968749079846134 [Eh]
	-----------------------------------------------------------

  Dipole Moment: [D]
     X:     0.8856      Y:    -0.1088      Z:     0.0003     Total:     0.8923

*** Psi4 exiting successfully. Buy a developer a beer!
