                               Psi4 1.4a3.dev225

  ==> Input File <==

--------------------------------------------------------------------------
#psi4
#
memory 32 gb

molecule  {
0 1
  O        2.4005690    -0.7555910     0.0000930
  O       -3.4134850     0.7931250     0.0001120
  O        1.6118980     1.3746640    -0.0001560
  O       -2.6294380    -1.3322590    -0.0001410
  C        0.0590550    -0.4958080     0.0000270
  C       -1.0635090     0.5281750     0.0000410
  C        1.4119940     0.1700650    -0.0000220
  C       -2.4220468    -0.1183642    -0.0220358
  C        3.7306770    -0.1974070     0.0000330
  H       -0.0086930    -1.1555200     0.8707660
  H       -0.0087430    -1.1555360    -0.8706970
  H       -0.9969410     1.1888870    -0.8701370
  H       -0.9969750     1.1888400     0.8702580
  H        4.3972900    -1.0573420     0.0001120
  H        3.8858800     0.4149390     0.8894490
  H        3.8858720     0.4147700    -0.8895010
  H       -4.2474240     0.2791820     0.0000590
units angstrom
no_reorient  #important for SAPT in psi4, default
symmetry c1  #important for SAPT in psi4, default
}

set PROPERTIES_ORIGIN ["COM"]
properties('MP2/aug-cc-pvtz', properties = ['dipole'])
--------------------------------------------------------------------------

    Molecular point group: c1
  Charge       = 0
  Multiplicity = 1
  Basis Set: AUG-CC-PVTZ
    Blend: AUG-CC-PVTZ
  Basis Set: (AUG-CC-PVTZ AUX)
    Blend: AUG-CC-PVTZ-JKFIT

    Orbital Energies [Eh]
    ---------------------

    Doubly Occupied:

       1A    -20.625099     2A    -20.611757     3A    -20.556591
       4A    -20.554328     5A    -11.398352     6A    -11.390096
       7A    -11.290371     8A    -11.258488     9A    -11.256349
      10A     -1.469329    11A     -1.461723    12A     -1.361271
      13A     -1.358912    14A     -1.096978    15A     -0.999003
      16A     -0.932681    17A     -0.817979    18A     -0.772552
      19A     -0.724851    20A     -0.709611    21A     -0.689758
      22A     -0.678785    23A     -0.668187    24A     -0.662258
      25A     -0.612426    26A     -0.600332    27A     -0.565153
      28A     -0.549890    29A     -0.544914    30A     -0.534710
      31A     -0.510806    32A     -0.485497    33A     -0.469827
      34A     -0.463376    35A     -0.456469

  @DF-RHF Final Energy:  -493.67543824793103

   => Energetics <=

    Nuclear Repulsion Energy =            445.2229917874012699
    One-Electron Energy =               -1559.5194405842162269
    Two-Electron Energy =                 620.6210105488838735
    Total Energy =                       -493.6754382479310834
  Basis Set: (AUG-CC-PVTZ AUX)
    Blend: AUG-CC-PVTZ-RI
    Molecular point group: c1

    Geometry (in Angstrom), charge = 0, multiplicity = 1:

       Center              X                  Y                   Z               Mass
    ------------   -----------------  -----------------  -----------------  -----------------
         O            2.445451706442    -0.755876455243     0.002097219836    15.994914619570
         O           -3.368602293558     0.792839544757     0.002116219836    15.994914619570
         O            1.656780706442     1.374378544757     0.001848219836    15.994914619570
         O           -2.584555293558    -1.332544455243     0.001863219836    15.994914619570
         C            0.103937706442    -0.496093455243     0.002031219836    12.000000000000
         C           -1.018626293558     0.527889544757     0.002045219836    12.000000000000
         C            1.456876706442     0.169779544757     0.001982219836    12.000000000000
         C           -2.377164093558    -0.118649655243    -0.020031580164    12.000000000000
         C            3.775559706442    -0.197692455243     0.002037219836    12.000000000000
         H            0.036189706442    -1.155805455243     0.872770219836     1.007825032230
         H            0.036139706442    -1.155821455243    -0.868692780164     1.007825032230
         H           -0.952058293558     1.188601544757    -0.868132780164     1.007825032230
         H           -0.952092293558     1.188554544757     0.872262219836     1.007825032230
         H            4.442172706442    -1.057627455243     0.002116219836     1.007825032230
         H            3.930762706442     0.414653544757     0.891453219836     1.007825032230
         H            3.930754706442     0.414484544757    -0.887496780164     1.007825032230
         H           -4.202541293558     0.278896544757     0.002063219836     1.007825032230

  Basis Set: AUG-CC-PVTZ
    Blend: AUG-CC-PVTZ
  Basis Set: (AUG-CC-PVTZ AUX)
    Blend: AUG-CC-PVTZ-JKFIT
	 Reference Energy          =    -493.6754382479310266 [Eh]
	 Singles Energy            =      -0.0000000000000000 [Eh]
	 Same-Spin Energy          =      -0.4752160723260958 [Eh]
	 Opposite-Spin Energy      =      -1.4701110405653699 [Eh]
	 Correlation Energy        =      -1.9453271128914658 [Eh]
	 Total Energy              =    -495.6207653608224746 [Eh]

	 ================> DF-SCS-MP2 Energies <==================
	-----------------------------------------------------------
	 SCS Same-Spin Scale       =       0.3333333333333333 [-]
	 SCS Opposite-Spin Scale   =       1.2000000000000000 [-]
	 SCS Same-Spin Energy      =      -0.1584053574420319 [Eh]
	 SCS Opposite-Spin Energy  =      -1.7641332486784438 [Eh]
	 SCS Correlation Energy    =      -1.9225386061204757 [Eh]
	 SCS Total Energy          =    -495.5979768540515238 [Eh]
	-----------------------------------------------------------

  Dipole Moment: [D]
     X:     0.6296      Y:    -0.0273      Z:    -0.0216     Total:     0.6306

*** Psi4 exiting successfully. Buy a developer a beer!
