                               Psi4 1.4a3.dev225

  ==> Input File <==

--------------------------------------------------------------------------
#psi4
#
memory 32 gb

molecule  {
0 1
  O        2.4005690    -0.7555910     0.0000930
  O       -3.4134850     0.7931250     0.0001120
  O        1.6118980     1.3746640    -0.0001560
  O       -2.6294380    -1.3322590    -0.0001410
  C        0.0590550    -0.4958080     0.0000270
  C       -1.0635090     0.5281750     0.0000410
  C        1.4119940     0.1700650    -0.0000220
  C       -2.4159880    -0.1313140    -0.0000070
  C        3.7306770    -0.1974070     0.0000330
  H       -0.0086930    -1.1555200     0.8707660
  H       -0.0087430    -1.1555360    -0.8706970
  H       -0.9969410     1.1888870    -0.8701370
  H       -0.9969750     1.1888400     0.8702580
  H        4.3972900    -1.0573420     0.0001120
  H        3.8858800     0.4149390     0.8894490
  H        3.8716460     0.3586546    -0.8079616
  H       -4.2474240     0.2791820     0.0000590
units angstrom
no_reorient  #important for SAPT in psi4, default
symmetry c1  #important for SAPT in psi4, default
}

set PROPERTIES_ORIGIN ["COM"]
properties('MP2/aug-cc-pvtz', properties = ['dipole'])
--------------------------------------------------------------------------

    Molecular point group: c1
  Charge       = 0
  Multiplicity = 1
  Basis Set: AUG-CC-PVTZ
    Blend: AUG-CC-PVTZ
  Basis Set: (AUG-CC-PVTZ AUX)
    Blend: AUG-CC-PVTZ-JKFIT

    Orbital Energies [Eh]
    ---------------------

    Doubly Occupied:

       1A    -20.621146     2A    -20.610618     3A    -20.559246
       4A    -20.554329     5A    -11.397480     6A    -11.390036
       7A    -11.278726     8A    -11.258309     9A    -11.256339
      10A     -1.465999    11A     -1.461433    12A     -1.363627
      13A     -1.361102    14A     -1.097433    15A     -1.003956
      16A     -0.937250    17A     -0.816044    18A     -0.774958
      19A     -0.725693    20A     -0.708902    21A     -0.692460
      22A     -0.679857    23A     -0.667716    24A     -0.664203
      25A     -0.613542    26A     -0.601799    27A     -0.568193
      28A     -0.555164    29A     -0.544325    30A     -0.536678
      31A     -0.511661    32A     -0.489349    33A     -0.471456
      34A     -0.463972    35A     -0.457087

  @DF-RHF Final Energy:  -493.67057861192382

   => Energetics <=

    Nuclear Repulsion Energy =            445.7356198959957965
    One-Electron Energy =               -1560.4922231156158432
    Two-Electron Energy =                 621.0860246076962312
    Total Energy =                       -493.6705786119238155
  Basis Set: (AUG-CC-PVTZ AUX)
    Blend: AUG-CC-PVTZ-RI
    Molecular point group: c1

    Geometry (in Angstrom), charge = 0, multiplicity = 1:

       Center              X                  Y                   Z               Mass
    ------------   -----------------  -----------------  -----------------  -----------------
         O            2.445009664011    -0.754271271366    -0.000527114613    15.994914619570
         O           -3.369044335989     0.794444728634    -0.000508114613    15.994914619570
         O            1.656338664011     1.375983728634    -0.000776114613    15.994914619570
         O           -2.584997335989    -1.330939271366    -0.000761114613    15.994914619570
         C            0.103495664011    -0.494488271366    -0.000593114613    12.000000000000
         C           -1.019068335989     0.529494728634    -0.000579114613    12.000000000000
         C            1.456434664011     0.171384728634    -0.000642114613    12.000000000000
         C           -2.371547335989    -0.129994271366    -0.000627114613    12.000000000000
         C            3.775117664011    -0.196087271366    -0.000587114613    12.000000000000
         H            0.035747664011    -1.154200271366     0.870145885387     1.007825032230
         H            0.035697664011    -1.154216271366    -0.871317114613     1.007825032230
         H           -0.952500335989     1.190206728634    -0.870757114613     1.007825032230
         H           -0.952534335989     1.190159728634     0.869637885387     1.007825032230
         H            4.441730664011    -1.056022271366    -0.000508114613     1.007825032230
         H            3.930320664011     0.416258728634     0.888828885387     1.007825032230
         H            3.916086664011     0.359974328634    -0.808581714613     1.007825032230
         H           -4.202983335989     0.280501728634    -0.000561114613     1.007825032230

  Basis Set: AUG-CC-PVTZ
    Blend: AUG-CC-PVTZ
  Basis Set: (AUG-CC-PVTZ AUX)
    Blend: AUG-CC-PVTZ-JKFIT
	 Reference Energy          =    -493.6705786119238155 [Eh]
	 Singles Energy            =      -0.0000000000000000 [Eh]
	 Same-Spin Energy          =      -0.4749770385023255 [Eh]
	 Opposite-Spin Energy      =      -1.4693048194734883 [Eh]
	 Correlation Energy        =      -1.9442818579758139 [Eh]
	 Total Energy              =    -495.6148604698996110 [Eh]

	 ================> DF-SCS-MP2 Energies <==================
	-----------------------------------------------------------
	 SCS Same-Spin Scale       =       0.3333333333333333 [-]
	 SCS Opposite-Spin Scale   =       1.2000000000000000 [-]
	 SCS Same-Spin Energy      =      -0.1583256795007751 [Eh]
	 SCS Opposite-Spin Energy  =      -1.7631657833681860 [Eh]
	 SCS Correlation Energy    =      -1.9214914628689612 [Eh]
	 SCS Total Energy          =    -495.5920700747927867 [Eh]
	-----------------------------------------------------------

  Dipole Moment: [D]
     X:     0.7256      Y:    -0.1211      Z:    -0.0240     Total:     0.7360

*** Psi4 exiting successfully. Buy a developer a beer!
