                               Psi4 1.4a3.dev225

  ==> Input File <==

--------------------------------------------------------------------------
#psi4
#
memory 32 gb

molecule  {
0 1
  O        2.4005690    -0.7555910     0.0000930
  O       -3.4134850     0.7931250     0.0001120
  O        1.6118980     1.3746640    -0.0001560
  O       -2.6294380    -1.3322590    -0.0001410
  C        0.0590550    -0.4958080     0.0000270
  C       -1.0635090     0.5281750     0.0000410
  C        1.4119940     0.1700650    -0.0000220
  C       -2.4159880    -0.1313140    -0.0000070
  C        3.7306770    -0.1974070     0.0000330
  H       -0.0086930    -1.1555200     0.8707660
  H       -0.0087430    -1.1555360    -0.8706970
  H       -0.9969410     1.1888870    -0.8701370
  H       -0.9969750     1.1888400     0.8702580
  H        4.4045176    -1.0515311    -0.0164594
  H        3.8858800     0.4149390     0.8894490
  H        3.8858720     0.4147700    -0.8895010
  H       -4.2474240     0.2791820     0.0000590
units angstrom
no_reorient  #important for SAPT in psi4, default
symmetry c1  #important for SAPT in psi4, default
}

set PROPERTIES_ORIGIN ["COM"]
properties('MP2/aug-cc-pvtz', properties = ['dipole'])
--------------------------------------------------------------------------

    Molecular point group: c1
  Charge       = 0
  Multiplicity = 1
  Basis Set: AUG-CC-PVTZ
    Blend: AUG-CC-PVTZ
  Basis Set: (AUG-CC-PVTZ AUX)
    Blend: AUG-CC-PVTZ-JKFIT

    Orbital Energies [Eh]
    ---------------------

    Doubly Occupied:

       1A    -20.621241     2A    -20.612032     3A    -20.559354
       4A    -20.554524     5A    -11.397597     6A    -11.390319
       7A    -11.290474     8A    -11.258470     9A    -11.256586
      10A     -1.466102    11A     -1.461881    12A     -1.363732
      13A     -1.361382    14A     -1.097422    15A     -0.998792
      16A     -0.931966    17A     -0.814282    18A     -0.772210
      19A     -0.725476    20A     -0.708944    21A     -0.689874
      22A     -0.679009    23A     -0.668179    24A     -0.661661
      25A     -0.611029    26A     -0.601912    27A     -0.567154
      28A     -0.549522    29A     -0.544630    30A     -0.534502
      31A     -0.510920    32A     -0.489414    33A     -0.470024
      34A     -0.464137    35A     -0.457308

  @DF-RHF Final Energy:  -493.67650759207572

   => Energetics <=

    Nuclear Repulsion Energy =            445.2727196296407897
    One-Electron Energy =               -1559.6143394709347376
    Two-Electron Energy =                 620.6651122492182822
    Total Energy =                       -493.6765075920757226
  Basis Set: (AUG-CC-PVTZ AUX)
    Blend: AUG-CC-PVTZ-RI
    Molecular point group: c1

    Geometry (in Angstrom), charge = 0, multiplicity = 1:

       Center              X                  Y                   Z               Mass
    ------------   -----------------  -----------------  -----------------  -----------------
         O            2.444845917379    -0.754743929710     0.000221725350    15.994914619570
         O           -3.369208082621     0.793972070290     0.000240725350    15.994914619570
         O            1.656174917379     1.375511070290    -0.000027274650    15.994914619570
         O           -2.585161082621    -1.331411929710    -0.000012274650    15.994914619570
         C            0.103331917379    -0.494960929710     0.000155725350    12.000000000000
         C           -1.019232082621     0.529022070290     0.000169725350    12.000000000000
         C            1.456270917379     0.170912070290     0.000106725350    12.000000000000
         C           -2.371711082621    -0.130466929710     0.000121725350    12.000000000000
         C            3.774953917379    -0.196559929710     0.000161725350    12.000000000000
         H            0.035583917379    -1.154672929710     0.870894725350     1.007825032230
         H            0.035533917379    -1.154688929710    -0.870568274650     1.007825032230
         H           -0.952664082621     1.189734070290    -0.870008274650     1.007825032230
         H           -0.952698082621     1.189687070290     0.870386725350     1.007825032230
         H            4.448794517379    -1.050684029710    -0.016330674650     1.007825032230
         H            3.930156917379     0.415786070290     0.889577725350     1.007825032230
         H            3.930148917379     0.415617070290    -0.889372274650     1.007825032230
         H           -4.203147082621     0.280029070290     0.000187725350     1.007825032230

  Basis Set: AUG-CC-PVTZ
    Blend: AUG-CC-PVTZ
  Basis Set: (AUG-CC-PVTZ AUX)
    Blend: AUG-CC-PVTZ-JKFIT
	 Reference Energy          =    -493.6765075920757226 [Eh]
	 Singles Energy            =      -0.0000000000000000 [Eh]
	 Same-Spin Energy          =      -0.4750526710084561 [Eh]
	 Opposite-Spin Energy      =      -1.4698747521535638 [Eh]
	 Correlation Energy        =      -1.9449274231620199 [Eh]
	 Total Energy              =    -495.6214350152377506 [Eh]

	 ================> DF-SCS-MP2 Energies <==================
	-----------------------------------------------------------
	 SCS Same-Spin Scale       =       0.3333333333333333 [-]
	 SCS Opposite-Spin Scale   =       1.2000000000000000 [-]
	 SCS Same-Spin Energy      =      -0.1583508903361520 [Eh]
	 SCS Opposite-Spin Energy  =      -1.7638497025842765 [Eh]
	 SCS Correlation Energy    =      -1.9222005929204287 [Eh]
	 SCS Total Energy          =    -495.5987081849961555 [Eh]
	-----------------------------------------------------------

  Dipole Moment: [D]
     X:     0.6943      Y:    -0.1274      Z:    -0.0064     Total:     0.7059

*** Psi4 exiting successfully. Buy a developer a beer!
