                               Psi4 1.4a3.dev225

  ==> Input File <==

--------------------------------------------------------------------------
#psi4
#
memory 32 gb

molecule  {
0 1
  O        2.4005690    -0.7555910     0.0000930
  O       -3.4134850     0.7931250     0.0001120
  O        1.6118980     1.3746640    -0.0001560
  O       -2.6294380    -1.3322590    -0.0001410
  C        0.0590550    -0.4958080     0.0000270
  C       -1.0635090     0.5281750     0.0000410
  C        1.4282995     0.1871770    -0.0000240
  C       -2.4159880    -0.1313140    -0.0000070
  C        3.7306770    -0.1974070     0.0000330
  H       -0.0086930    -1.1555200     0.8707660
  H       -0.0087430    -1.1555360    -0.8706970
  H       -0.9969410     1.1888870    -0.8701370
  H       -0.9969750     1.1888400     0.8702580
  H        4.3972900    -1.0573420     0.0001120
  H        3.8858800     0.4149390     0.8894490
  H        3.8858720     0.4147700    -0.8895010
  H       -4.2474240     0.2791820     0.0000590
units angstrom
no_reorient  #important for SAPT in psi4, default
symmetry c1  #important for SAPT in psi4, default
}

set PROPERTIES_ORIGIN ["COM"]
properties('MP2/aug-cc-pvtz', properties = ['dipole'])
--------------------------------------------------------------------------

    Molecular point group: c1
  Charge       = 0
  Multiplicity = 1
  Basis Set: AUG-CC-PVTZ
    Blend: AUG-CC-PVTZ
  Basis Set: (AUG-CC-PVTZ AUX)
    Blend: AUG-CC-PVTZ-JKFIT

    Orbital Energies [Eh]
    ---------------------

    Doubly Occupied:

       1A    -20.620532     2A    -20.611658     3A    -20.558510
       4A    -20.557206     5A    -11.396703     6A    -11.388277
       7A    -11.290399     8A    -11.257149     9A    -11.255117
      10A     -1.466686    11A     -1.465181    12A     -1.371936
      13A     -1.362895    14A     -1.093646    15A     -0.996234
      16A     -0.929077    17A     -0.812741    18A     -0.772768
      19A     -0.725124    20A     -0.708321    21A     -0.689693
      22A     -0.682957    23A     -0.667964    24A     -0.661587
      25A     -0.609652    26A     -0.601946    27A     -0.567321
      28A     -0.552069    29A     -0.543060    30A     -0.536279
      31A     -0.511672    32A     -0.488631    33A     -0.473439
      34A     -0.462446    35A     -0.456779

  @DF-RHF Final Energy:  -493.67740867891973

   => Energetics <=

    Nuclear Repulsion Energy =            445.3557395073107159
    One-Electron Energy =               -1559.7749888431944782
    Two-Electron Energy =                 620.7418406569639728
    Total Energy =                       -493.6774086789197327
  Basis Set: (AUG-CC-PVTZ AUX)
    Blend: AUG-CC-PVTZ-RI
    Molecular point group: c1

    Geometry (in Angstrom), charge = 0, multiplicity = 1:

       Center              X                  Y                   Z               Mass
    ------------   -----------------  -----------------  -----------------  -----------------
         O            2.443419238939    -0.756254715964     0.000095424332    15.994914619570
         O           -3.370634761061     0.792461284036     0.000114424332    15.994914619570
         O            1.654748238939     1.374000284036    -0.000153575668    15.994914619570
         O           -2.586587761061    -1.332922715964    -0.000138575668    15.994914619570
         C            0.101905238939    -0.496471715964     0.000029424332    12.000000000000
         C           -1.020658761061     0.527511284036     0.000043424332    12.000000000000
         C            1.471149738939     0.186513284036    -0.000021575668    12.000000000000
         C           -2.373137761061    -0.131977715964    -0.000004575668    12.000000000000
         C            3.773527238939    -0.198070715964     0.000035424332    12.000000000000
         H            0.034157238939    -1.156183715964     0.870768424332     1.007825032230
         H            0.034107238939    -1.156199715964    -0.870694575668     1.007825032230
         H           -0.954090761061     1.188223284036    -0.870134575668     1.007825032230
         H           -0.954124761061     1.188176284036     0.870260424332     1.007825032230
         H            4.440140238939    -1.058005715964     0.000114424332     1.007825032230
         H            3.928730238939     0.414275284036     0.889451424332     1.007825032230
         H            3.928722238939     0.414106284036    -0.889498575668     1.007825032230
         H           -4.204573761061     0.278518284036     0.000061424332     1.007825032230

  Basis Set: AUG-CC-PVTZ
    Blend: AUG-CC-PVTZ
  Basis Set: (AUG-CC-PVTZ AUX)
    Blend: AUG-CC-PVTZ-JKFIT
	 Reference Energy          =    -493.6774086789197327 [Eh]
	 Singles Energy            =      -0.0000000000000000 [Eh]
	 Same-Spin Energy          =      -0.4745899716420646 [Eh]
	 Opposite-Spin Energy      =      -1.4690365790722608 [Eh]
	 Correlation Energy        =      -1.9436265507143253 [Eh]
	 Total Energy              =    -495.6210352296340602 [Eh]

	 ================> DF-SCS-MP2 Energies <==================
	-----------------------------------------------------------
	 SCS Same-Spin Scale       =       0.3333333333333333 [-]
	 SCS Opposite-Spin Scale   =       1.2000000000000000 [-]
	 SCS Same-Spin Energy      =      -0.1581966572140215 [Eh]
	 SCS Opposite-Spin Energy  =      -1.7628438948867129 [Eh]
	 SCS Correlation Energy    =      -1.9210405521007343 [Eh]
	 SCS Total Energy          =    -495.5984492310204814 [Eh]
	-----------------------------------------------------------

  Dipole Moment: [D]
     X:     0.7803      Y:    -0.0310      Z:     0.0003     Total:     0.7809

*** Psi4 exiting successfully. Buy a developer a beer!
