                               Psi4 1.4a3.dev225

  ==> Input File <==

--------------------------------------------------------------------------
#psi4
#
memory 32 gb

molecule  {
0 1
  O        2.4005690    -0.7555910     0.0000930
  O       -3.4134850     0.7931250     0.0001120
  O        1.6118980     1.3746640    -0.0001560
  O       -2.6294380    -1.3322590    -0.0001410
  C        0.0590550    -0.4958080     0.0000270
  C       -1.0635090     0.5281750     0.0000410
  C        1.4119940     0.1700650    -0.0000220
  C       -2.4159880    -0.1313140    -0.0000070
  C        3.8228866    -0.1587109     0.0000288
  H       -0.0086930    -1.1555200     0.8707660
  H       -0.0087430    -1.1555360    -0.8706970
  H       -0.9969410     1.1888870    -0.8701370
  H       -0.9969750     1.1888400     0.8702580
  H        4.3972900    -1.0573420     0.0001120
  H        3.8858800     0.4149390     0.8894490
  H        3.8858720     0.4147700    -0.8895010
  H       -4.2474240     0.2791820     0.0000590
units angstrom
no_reorient  #important for SAPT in psi4, default
symmetry c1  #important for SAPT in psi4, default
}

set PROPERTIES_ORIGIN ["COM"]
properties('MP2/aug-cc-pvtz', properties = ['dipole'])
--------------------------------------------------------------------------

    Molecular point group: c1
  Charge       = 0
  Multiplicity = 1
  Basis Set: AUG-CC-PVTZ
    Blend: AUG-CC-PVTZ
  Basis Set: (AUG-CC-PVTZ AUX)
    Blend: AUG-CC-PVTZ-JKFIT

    Orbital Energies [Eh]
    ---------------------

    Doubly Occupied:

       1A    -20.619608     2A    -20.601883     3A    -20.557489
       4A    -20.548500     5A    -11.395599     6A    -11.384173
       7A    -11.294763     8A    -11.255775     9A    -11.252789
      10A     -1.464349    11A     -1.442937    12A     -1.361928
      13A     -1.346137    14A     -1.093299    15A     -0.995982
      16A     -0.936360    17A     -0.811455    18A     -0.762300
      19A     -0.720162    20A     -0.706836    21A     -0.683974
      22A     -0.671668    23A     -0.659128    24A     -0.657032
      25A     -0.612568    26A     -0.601754    27A     -0.573028
      28A     -0.558405    29A     -0.543886    30A     -0.525167
      31A     -0.510000    32A     -0.487734    33A     -0.468009
      34A     -0.461431    35A     -0.451769

  @DF-RHF Final Energy:  -493.66802627223728

   => Energetics <=

    Nuclear Repulsion Energy =            443.4908066575741827
    One-Electron Energy =               -1556.2819092404758976
    Two-Electron Energy =                 619.1230763106643735
    Total Energy =                       -493.6680262722372845
  Basis Set: (AUG-CC-PVTZ AUX)
    Blend: AUG-CC-PVTZ-RI
    Molecular point group: c1

    Geometry (in Angstrom), charge = 0, multiplicity = 1:

       Center              X                  Y                   Z               Mass
    ------------   -----------------  -----------------  -----------------  -----------------
         O            2.436521074603    -0.758216278895     0.000095624268    15.994914619570
         O           -3.377532925397     0.790499721105     0.000114624268    15.994914619570
         O            1.647850074603     1.372038721105    -0.000153375732    15.994914619570
         O           -2.593485925397    -1.334884278895    -0.000138375732    15.994914619570
         C            0.095007074603    -0.498433278895     0.000029624268    12.000000000000
         C           -1.027556925397     0.525549721105     0.000043624268    12.000000000000
         C            1.447946074603     0.167439721105    -0.000019375732    12.000000000000
         C           -2.380035925397    -0.133939278895    -0.000004375732    12.000000000000
         C            3.858838674603    -0.161336178895     0.000031424268    12.000000000000
         H            0.027259074603    -1.158145278895     0.870768624268     1.007825032230
         H            0.027209074603    -1.158161278895    -0.870694375732     1.007825032230
         H           -0.960988925397     1.186261721105    -0.870134375732     1.007825032230
         H           -0.961022925397     1.186214721105     0.870260624268     1.007825032230
         H            4.433242074603    -1.059967278895     0.000114624268     1.007825032230
         H            3.921832074603     0.412313721105     0.889451624268     1.007825032230
         H            3.921824074603     0.412144721105    -0.889498375732     1.007825032230
         H           -4.211471925397     0.276556721105     0.000061624268     1.007825032230

  Basis Set: AUG-CC-PVTZ
    Blend: AUG-CC-PVTZ
  Basis Set: (AUG-CC-PVTZ AUX)
    Blend: AUG-CC-PVTZ-JKFIT
	 Reference Energy          =    -493.6680262722372845 [Eh]
	 Singles Energy            =      -0.0000000000000000 [Eh]
	 Same-Spin Energy          =      -0.4752329043088136 [Eh]
	 Opposite-Spin Energy      =      -1.4712517851534175 [Eh]
	 Correlation Energy        =      -1.9464846894622312 [Eh]
	 Total Energy              =    -495.6145109616995228 [Eh]

	 ================> DF-SCS-MP2 Energies <==================
	-----------------------------------------------------------
	 SCS Same-Spin Scale       =       0.3333333333333333 [-]
	 SCS Opposite-Spin Scale   =       1.2000000000000000 [-]
	 SCS Same-Spin Energy      =      -0.1584109681029379 [Eh]
	 SCS Opposite-Spin Energy  =      -1.7655021421841008 [Eh]
	 SCS Correlation Energy    =      -1.9239131102870386 [Eh]
	 SCS Total Energy          =    -495.5919393825243446 [Eh]
	-----------------------------------------------------------

  Dipole Moment: [D]
     X:     1.0667      Y:    -0.0906      Z:     0.0003     Total:     1.0705

*** Psi4 exiting successfully. Buy a developer a beer!
