                               Psi4 1.4a3.dev225

  ==> Input File <==

--------------------------------------------------------------------------
#psi4
#
memory 32 gb

molecule  {
0 1
  O        2.4005690    -0.7555910     0.0000930
  O       -3.4134850     0.7931250     0.0001120
  O        1.6118980     1.3746640    -0.0001560
  O       -2.6294380    -1.3322590    -0.0001410
  C        0.0590550    -0.4958080     0.0000270
  C       -1.0635090     0.5281750     0.0000410
  C        1.3959896     0.1526710    -0.0000200
  C       -2.4159880    -0.1313140    -0.0000070
  C        3.7306770    -0.1974070     0.0000330
  H       -0.0086930    -1.1555200     0.8707660
  H       -0.0087430    -1.1555360    -0.8706970
  H       -0.9969410     1.1888870    -0.8701370
  H       -0.9969750     1.1888400     0.8702580
  H        4.3972900    -1.0573420     0.0001120
  H        3.8858800     0.4149390     0.8894490
  H        3.8858720     0.4147700    -0.8895010
  H       -4.2474240     0.2791820     0.0000590
units angstrom
no_reorient  #important for SAPT in psi4, default
symmetry c1  #important for SAPT in psi4, default
}

set PROPERTIES_ORIGIN ["COM"]
properties('MP2/aug-cc-pvtz', properties = ['dipole'])
--------------------------------------------------------------------------

    Molecular point group: c1
  Charge       = 0
  Multiplicity = 1
  Basis Set: AUG-CC-PVTZ
    Blend: AUG-CC-PVTZ
  Basis Set: (AUG-CC-PVTZ AUX)
    Blend: AUG-CC-PVTZ-JKFIT

    Orbital Energies [Eh]
    ---------------------

    Doubly Occupied:

       1A    -20.621912     2A    -20.612218     3A    -20.560151
       4A    -20.551774     5A    -11.398440     6A    -11.392236
       7A    -11.290623     8A    -11.259734     9A    -11.257792
      10A     -1.466803    11A     -1.458078    12A     -1.364485
      13A     -1.350281    14A     -1.101350    15A     -1.001531
      16A     -0.934684    17A     -0.815695    18A     -0.771686
      19A     -0.726106    20A     -0.709603    21A     -0.690333
      22A     -0.675144    23A     -0.668170    24A     -0.661648
      25A     -0.612392    26A     -0.601605    27A     -0.567266
      28A     -0.547765    29A     -0.546657    30A     -0.532774
      31A     -0.509871    32A     -0.490157    33A     -0.466040
      34A     -0.465548    35A     -0.456870

  @DF-RHF Final Energy:  -493.67379805285805

   => Energetics <=

    Nuclear Repulsion Energy =            445.2203618881299008
    One-Electron Energy =               -1559.5134795781282264
    Two-Electron Energy =                 620.6193196371402792
    Total Energy =                       -493.6737980528580465
  Basis Set: (AUG-CC-PVTZ AUX)
    Blend: AUG-CC-PVTZ-RI
    Molecular point group: c1

    Geometry (in Angstrom), charge = 0, multiplicity = 1:

       Center              X                  Y                   Z               Mass
    ------------   -----------------  -----------------  -----------------  -----------------
         O            2.446355562535    -0.753118810808     0.000095060812    15.994914619570
         O           -3.367698437465     0.795597189192     0.000114060812    15.994914619570
         O            1.657684562535     1.377136189192    -0.000153939188    15.994914619570
         O           -2.583651437465    -1.329786810808    -0.000138939188    15.994914619570
         C            0.104841562535    -0.493335810808     0.000029060812    12.000000000000
         C           -1.017722437465     0.530647189192     0.000043060812    12.000000000000
         C            1.441776162535     0.155143189192    -0.000017939188    12.000000000000
         C           -2.370201437465    -0.128841810808    -0.000004939188    12.000000000000
         C            3.776463562535    -0.194934810808     0.000035060812    12.000000000000
         H            0.037093562535    -1.153047810808     0.870768060812     1.007825032230
         H            0.037043562535    -1.153063810808    -0.870694939188     1.007825032230
         H           -0.951154437465     1.191359189192    -0.870134939188     1.007825032230
         H           -0.951188437465     1.191312189192     0.870260060812     1.007825032230
         H            4.443076562535    -1.054869810808     0.000114060812     1.007825032230
         H            3.931666562535     0.417411189192     0.889451060812     1.007825032230
         H            3.931658562535     0.417242189192    -0.889498939188     1.007825032230
         H           -4.201637437465     0.281654189192     0.000061060812     1.007825032230

  Basis Set: AUG-CC-PVTZ
    Blend: AUG-CC-PVTZ
  Basis Set: (AUG-CC-PVTZ AUX)
    Blend: AUG-CC-PVTZ-JKFIT
	 Reference Energy          =    -493.6737980528580465 [Eh]
	 Singles Energy            =      -0.0000000000000000 [Eh]
	 Same-Spin Energy          =      -0.4755798955528317 [Eh]
	 Opposite-Spin Energy      =      -1.4708310507486582 [Eh]
	 Correlation Energy        =      -1.9464109463014898 [Eh]
	 Total Energy              =    -495.6202089991595585 [Eh]

	 ================> DF-SCS-MP2 Energies <==================
	-----------------------------------------------------------
	 SCS Same-Spin Scale       =       0.3333333333333333 [-]
	 SCS Opposite-Spin Scale   =       1.2000000000000000 [-]
	 SCS Same-Spin Energy      =      -0.1585266318509439 [Eh]
	 SCS Opposite-Spin Energy  =      -1.7649972608983897 [Eh]
	 SCS Correlation Energy    =      -1.9235238927493337 [Eh]
	 SCS Total Energy          =    -495.5973219456074048 [Eh]
	-----------------------------------------------------------

  Dipole Moment: [D]
     X:     0.6105      Y:    -0.2240      Z:     0.0003     Total:     0.6503

*** Psi4 exiting successfully. Buy a developer a beer!
