                               Psi4 1.4a3.dev225

  ==> Input File <==

--------------------------------------------------------------------------
#psi4
#
memory 32 gb

molecule  {
0 1
  O        2.4005690    -0.7555910     0.0000930
  O       -3.4134850     0.7931250     0.0001120
  O        1.6118980     1.3746640    -0.0001560
  O       -2.6294380    -1.3322590    -0.0001410
  C        0.0590550    -0.4958080     0.0000270
  C       -1.0635090     0.5281750     0.0000410
  C        1.4119940     0.1700650    -0.0000220
  C       -2.4159880    -0.1313140    -0.0000070
  C        3.7306770    -0.1974070     0.0000330
  H       -0.0086930    -1.1555200     0.8707660
  H       -0.0087430    -1.1555360    -0.8706970
  H       -0.9969410     1.1888870    -0.8701370
  H       -0.9981907     1.1767688     0.8543580
  H        4.3972900    -1.0573420     0.0001120
  H        3.8858800     0.4149390     0.8894490
  H        3.8858720     0.4147700    -0.8895010
  H       -4.2474240     0.2791820     0.0000590
units angstrom
no_reorient  #important for SAPT in psi4, default
symmetry c1  #important for SAPT in psi4, default
}

set PROPERTIES_ORIGIN ["COM"]
properties('MP2/aug-cc-pvtz', properties = ['dipole'])
--------------------------------------------------------------------------

    Molecular point group: c1
  Charge       = 0
  Multiplicity = 1
  Basis Set: AUG-CC-PVTZ
    Blend: AUG-CC-PVTZ
  Basis Set: (AUG-CC-PVTZ AUX)
    Blend: AUG-CC-PVTZ-JKFIT

    Orbital Energies [Eh]
    ---------------------

    Doubly Occupied:

       1A    -20.621306     2A    -20.611888     3A    -20.559300
       4A    -20.554539     5A    -11.397499     6A    -11.390234
       7A    -11.290474     8A    -11.256672     9A    -11.255969
      10A     -1.466126    11A     -1.461856    12A     -1.363716
      13A     -1.361391    14A     -1.098146    15A     -0.999266
      16A     -0.932109    17A     -0.814810    18A     -0.772659
      19A     -0.725896    20A     -0.708963    21A     -0.690283
      22A     -0.679216    23A     -0.668095    24A     -0.662298
      25A     -0.611160    26A     -0.601838    27A     -0.567434
      28A     -0.550504    29A     -0.544792    30A     -0.534882
      31A     -0.511649    32A     -0.489456    33A     -0.470038
      34A     -0.464133    35A     -0.457304

  @DF-RHF Final Energy:  -493.67659252815332

   => Energetics <=

    Nuclear Repulsion Energy =            445.3834194378832194
    One-Electron Energy =               -1559.8282169818655802
    Two-Electron Energy =                 620.7682050158289258
    Total Energy =                       -493.6765925281533782
  Basis Set: (AUG-CC-PVTZ AUX)
    Blend: AUG-CC-PVTZ-RI
    Molecular point group: c1

    Geometry (in Angstrom), charge = 0, multiplicity = 1:

       Center              X                  Y                   Z               Mass
    ------------   -----------------  -----------------  -----------------  -----------------
         O            2.444910361665    -0.754607442890     0.000216600826    15.994914619570
         O           -3.369143638335     0.794108557110     0.000235600826    15.994914619570
         O            1.656239361665     1.375647557110    -0.000032399174    15.994914619570
         O           -2.585096638335    -1.331275442890    -0.000017399174    15.994914619570
         C            0.103396361665    -0.494824442890     0.000150600826    12.000000000000
         C           -1.019167638335     0.529158557110     0.000164600826    12.000000000000
         C            1.456335361665     0.171048557110     0.000101600826    12.000000000000
         C           -2.371646638335    -0.130330442890     0.000116600826    12.000000000000
         C            3.775018361665    -0.196423442890     0.000156600826    12.000000000000
         H            0.035648361665    -1.154536442890     0.870889600826     1.007825032230
         H            0.035598361665    -1.154552442890    -0.870573399174     1.007825032230
         H           -0.952599638335     1.189870557110    -0.870013399174     1.007825032230
         H           -0.953849338335     1.177752357110     0.854481600826     1.007825032230
         H            4.441631361665    -1.056358442890     0.000235600826     1.007825032230
         H            3.930221361665     0.415922557110     0.889572600826     1.007825032230
         H            3.930213361665     0.415753557110    -0.889377399174     1.007825032230
         H           -4.203082638335     0.280165557110     0.000182600826     1.007825032230

  Basis Set: AUG-CC-PVTZ
    Blend: AUG-CC-PVTZ
  Basis Set: (AUG-CC-PVTZ AUX)
    Blend: AUG-CC-PVTZ-JKFIT
	 Reference Energy          =    -493.6765925281533214 [Eh]
	 Singles Energy            =      -0.0000000000000000 [Eh]
	 Same-Spin Energy          =      -0.4750378577854314 [Eh]
	 Opposite-Spin Energy      =      -1.4697521604021264 [Eh]
	 Correlation Energy        =      -1.9447900181875579 [Eh]
	 Total Energy              =    -495.6213825463408966 [Eh]

	 ================> DF-SCS-MP2 Energies <==================
	-----------------------------------------------------------
	 SCS Same-Spin Scale       =       0.3333333333333333 [-]
	 SCS Opposite-Spin Scale   =       1.2000000000000000 [-]
	 SCS Same-Spin Energy      =      -0.1583459525951438 [Eh]
	 SCS Opposite-Spin Energy  =      -1.7637025924825516 [Eh]
	 SCS Correlation Energy    =      -1.9220485450776954 [Eh]
	 SCS Total Energy          =    -495.5986410732310219 [Eh]
	-----------------------------------------------------------

  Dipole Moment: [D]
     X:     0.6903      Y:    -0.1272      Z:     0.0011     Total:     0.7020

*** Psi4 exiting successfully. Buy a developer a beer!
