                               Psi4 1.4a3.dev225

  ==> Input File <==

--------------------------------------------------------------------------
#psi4
#
memory 32 gb

molecule  {
0 1
  O        2.4005690    -0.7555910     0.0000930
  O       -3.4134850     0.7931250     0.0001120
  O        1.6118980     1.3746640    -0.0001560
  O       -2.6294380    -1.3322590    -0.0001410
  C        0.0590550    -0.4958080     0.0000270
  C       -1.0635090     0.5281750     0.0000410
  C        1.4119940     0.1700650    -0.0000220
  C       -2.4159880    -0.1313140    -0.0000070
  C        3.7491189    -0.1896678     0.0000322
  H       -0.0086930    -1.1555200     0.8707660
  H       -0.0087430    -1.1555360    -0.8706970
  H       -0.9969410     1.1888870    -0.8701370
  H       -0.9969750     1.1888400     0.8702580
  H        4.3972900    -1.0573420     0.0001120
  H        3.8858800     0.4149390     0.8894490
  H        3.8858720     0.4147700    -0.8895010
  H       -4.2474240     0.2791820     0.0000590
units angstrom
no_reorient  #important for SAPT in psi4, default
symmetry c1  #important for SAPT in psi4, default
}

set PROPERTIES_ORIGIN ["COM"]
properties('MP2/aug-cc-pvtz', properties = ['dipole'])
--------------------------------------------------------------------------

    Molecular point group: c1
  Charge       = 0
  Multiplicity = 1
  Basis Set: AUG-CC-PVTZ
    Blend: AUG-CC-PVTZ
  Basis Set: (AUG-CC-PVTZ AUX)
    Blend: AUG-CC-PVTZ-JKFIT

    Orbital Energies [Eh]
    ---------------------

    Doubly Occupied:

       1A    -20.620908     2A    -20.609995     3A    -20.558974
       4A    -20.553281     5A    -11.397189     6A    -11.389020
       7A    -11.290991     8A    -11.257917     9A    -11.255802
      10A     -1.465732    11A     -1.457536    12A     -1.363356
      13A     -1.358302    14A     -1.096557    15A     -0.997956
      16A     -0.932836    17A     -0.813679    18A     -0.770126
      19A     -0.724426    20A     -0.708514    21A     -0.688426
      22A     -0.676867    23A     -0.666089    24A     -0.660872
      25A     -0.611082    26A     -0.601242    27A     -0.567748
      28A     -0.551429    29A     -0.544034    30A     -0.535091
      31A     -0.510876    32A     -0.489081    33A     -0.470093
      34A     -0.463535    35A     -0.456211

  @DF-RHF Final Energy:  -493.67593428782095

   => Energetics <=

    Nuclear Repulsion Energy =            444.9150736575127212
    One-Electron Energy =               -1558.9504764377525134
    Two-Electron Energy =                 620.3594684924188414
    Total Energy =                       -493.6759342878209509
  Basis Set: (AUG-CC-PVTZ AUX)
    Blend: AUG-CC-PVTZ-RI
    Molecular point group: c1

    Geometry (in Angstrom), charge = 0, multiplicity = 1:

       Center              X                  Y                   Z               Mass
    ------------   -----------------  -----------------  -----------------  -----------------
         O            2.443225082914    -0.755402915934     0.000095315276    15.994914619570
         O           -3.370828917086     0.793313084066     0.000114315276    15.994914619570
         O            1.654554082914     1.374852084066    -0.000153684724    15.994914619570
         O           -2.586781917086    -1.332070915934    -0.000138684724    15.994914619570
         C            0.101711082914    -0.495619915934     0.000029315276    12.000000000000
         C           -1.020852917086     0.528363084066     0.000043315276    12.000000000000
         C            1.454650082914     0.170253084066    -0.000019684724    12.000000000000
         C           -2.373331917086    -0.131125915934    -0.000004684724    12.000000000000
         C            3.791774982914    -0.189479715934     0.000034515276    12.000000000000
         H            0.033963082914    -1.155331915934     0.870768315276     1.007825032230
         H            0.033913082914    -1.155347915934    -0.870694684724     1.007825032230
         H           -0.954284917086     1.189075084066    -0.870134684724     1.007825032230
         H           -0.954318917086     1.189028084066     0.870260315276     1.007825032230
         H            4.439946082914    -1.057153915934     0.000114315276     1.007825032230
         H            3.928536082914     0.415127084066     0.889451315276     1.007825032230
         H            3.928528082914     0.414958084066    -0.889498684724     1.007825032230
         H           -4.204767917086     0.279370084066     0.000061315276     1.007825032230

  Basis Set: AUG-CC-PVTZ
    Blend: AUG-CC-PVTZ
  Basis Set: (AUG-CC-PVTZ AUX)
    Blend: AUG-CC-PVTZ-JKFIT
	 Reference Energy          =    -493.6759342878209509 [Eh]
	 Singles Energy            =      -0.0000000000000000 [Eh]
	 Same-Spin Energy          =      -0.4750578662127704 [Eh]
	 Opposite-Spin Energy      =      -1.4701021183457574 [Eh]
	 Correlation Energy        =      -1.9451599845585279 [Eh]
	 Total Energy              =    -495.6210942723794801 [Eh]

	 ================> DF-SCS-MP2 Energies <==================
	-----------------------------------------------------------
	 SCS Same-Spin Scale       =       0.3333333333333333 [-]
	 SCS Opposite-Spin Scale   =       1.2000000000000000 [-]
	 SCS Same-Spin Energy      =      -0.1583526220709235 [Eh]
	 SCS Opposite-Spin Energy  =      -1.7641225420149089 [Eh]
	 SCS Correlation Energy    =      -1.9224751640858324 [Eh]
	 SCS Total Energy          =    -495.5984094519067753 [Eh]
	-----------------------------------------------------------

  Dipole Moment: [D]
     X:     0.7715      Y:    -0.1204      Z:     0.0003     Total:     0.7808

*** Psi4 exiting successfully. Buy a developer a beer!
