                               Psi4 1.4a3.dev225

  ==> Input File <==

--------------------------------------------------------------------------
#psi4
#
memory 32 gb

molecule  {
0 1
  O        2.4005690    -0.7555910     0.0000930
  O       -3.4134850     0.7931250     0.0001120
  O        1.6118980     1.3746640    -0.0001560
  O       -2.6294380    -1.3322590    -0.0001410
  C        0.0590550    -0.4958080     0.0000270
  C       -1.0635090     0.5281750     0.0000410
  C        1.3802913     0.1350003    -0.0000180
  C       -2.4159880    -0.1313140    -0.0000070
  C        3.7306770    -0.1974070     0.0000330
  H       -0.0086930    -1.1555200     0.8707660
  H       -0.0087430    -1.1555360    -0.8706970
  H       -0.9969410     1.1888870    -0.8701370
  H       -0.9969750     1.1888400     0.8702580
  H        4.3972900    -1.0573420     0.0001120
  H        3.8858800     0.4149390     0.8894490
  H        3.8858720     0.4147700    -0.8895010
  H       -4.2474240     0.2791820     0.0000590
units angstrom
no_reorient  #important for SAPT in psi4, default
symmetry c1  #important for SAPT in psi4, default
}

set PROPERTIES_ORIGIN ["COM"]
properties('MP2/aug-cc-pvtz', properties = ['dipole'])
--------------------------------------------------------------------------

    Molecular point group: c1
  Charge       = 0
  Multiplicity = 1
  Basis Set: AUG-CC-PVTZ
    Blend: AUG-CC-PVTZ
  Basis Set: (AUG-CC-PVTZ AUX)
    Blend: AUG-CC-PVTZ-JKFIT

    Orbital Energies [Eh]
    ---------------------

    Doubly Occupied:

       1A    -20.622582     2A    -20.612598     3A    -20.560941
       4A    -20.548958     5A    -11.399279     6A    -11.394237
       7A    -11.290813     8A    -11.261011     9A    -11.258867
      10A     -1.467515    11A     -1.454986    12A     -1.365246
      13A     -1.338794    14A     -1.105501    15A     -1.004333
      16A     -0.937408    17A     -0.817184    18A     -0.771238
      19A     -0.726842    20A     -0.710303    21A     -0.691122
      22A     -0.671697    23A     -0.668381    24A     -0.661586
      25A     -0.613802    26A     -0.601206    27A     -0.567767
      28A     -0.548984    29A     -0.546755    30A     -0.530170
      31A     -0.508668    32A     -0.490895    33A     -0.466686
      34A     -0.461561    35A     -0.455762

  @DF-RHF Final Energy:  -493.66929354588052

   => Energetics <=

    Nuclear Repulsion Energy =            445.1653291168740338
    One-Electron Energy =               -1559.4018846616536393
    Two-Electron Energy =                 620.5672619988989709
    Total Energy =                       -493.6692935458805778
  Basis Set: (AUG-CC-PVTZ AUX)
    Blend: AUG-CC-PVTZ-RI
    Molecular point group: c1

    Geometry (in Angstrom), charge = 0, multiplicity = 1:

       Center              X                  Y                   Z               Mass
    ------------   -----------------  -----------------  -----------------  -----------------
         O            2.447782223982    -0.751512897656     0.000094879052    15.994914619570
         O           -3.366271776018     0.797203102344     0.000113879052    15.994914619570
         O            1.659111223982     1.378742102344    -0.000154120948    15.994914619570
         O           -2.582224776018    -1.328180897656    -0.000139120948    15.994914619570
         C            0.106268223982    -0.491729897656     0.000028879052    12.000000000000
         C           -1.016295776018     0.532253102344     0.000042879052    12.000000000000
         C            1.427504523982     0.139078402344    -0.000016120948    12.000000000000
         C           -2.368774776018    -0.127235897656    -0.000005120948    12.000000000000
         C            3.777890223982    -0.193328897656     0.000034879052    12.000000000000
         H            0.038520223982    -1.151441897656     0.870767879052     1.007825032230
         H            0.038470223982    -1.151457897656    -0.870695120948     1.007825032230
         H           -0.949727776018     1.192965102344    -0.870135120948     1.007825032230
         H           -0.949761776018     1.192918102344     0.870259879052     1.007825032230
         H            4.444503223982    -1.053263897656     0.000113879052     1.007825032230
         H            3.933093223982     0.419017102344     0.889450879052     1.007825032230
         H            3.933085223982     0.418848102344    -0.889499120948     1.007825032230
         H           -4.200210776018     0.283260102344     0.000060879052     1.007825032230

  Basis Set: AUG-CC-PVTZ
    Blend: AUG-CC-PVTZ
  Basis Set: (AUG-CC-PVTZ AUX)
    Blend: AUG-CC-PVTZ-JKFIT
	 Reference Energy          =    -493.6692935458805209 [Eh]
	 Singles Energy            =      -0.0000000000000000 [Eh]
	 Same-Spin Energy          =      -0.4761561608472021 [Eh]
	 Opposite-Spin Energy      =      -1.4718762748049641 [Eh]
	 Correlation Energy        =      -1.9480324356521663 [Eh]
	 Total Energy              =    -495.6173259815327015 [Eh]

	 ================> DF-SCS-MP2 Energies <==================
	-----------------------------------------------------------
	 SCS Same-Spin Scale       =       0.3333333333333333 [-]
	 SCS Opposite-Spin Scale   =       1.2000000000000000 [-]
	 SCS Same-Spin Energy      =      -0.1587187202824007 [Eh]
	 SCS Opposite-Spin Energy  =      -1.7662515297659569 [Eh]
	 SCS Correlation Energy    =      -1.9249702500483576 [Eh]
	 SCS Total Energy          =    -495.5942637959288959 [Eh]
	-----------------------------------------------------------

  Dipole Moment: [D]
     X:     0.5319      Y:    -0.3180      Z:     0.0003     Total:     0.6197

*** Psi4 exiting successfully. Buy a developer a beer!
