                               Psi4 1.4a3.dev225

  ==> Input File <==

--------------------------------------------------------------------------
#psi4
#
memory 32 gb

molecule  {
0 1
  O        2.4005690    -0.7555910     0.0000930
  O       -3.4134850     0.7931250     0.0001120
  O        1.6118980     1.3746640    -0.0001560
  O       -2.6294380    -1.3322590    -0.0001410
  C        0.0590550    -0.4958080     0.0000270
  C       -1.0635090     0.5281750     0.0000410
  C        1.4119940     0.1700650    -0.0000220
  C       -2.3710462    -0.1093997    -0.0000054
  C        3.7306770    -0.1974070     0.0000330
  H       -0.0086930    -1.1555200     0.8707660
  H       -0.0087430    -1.1555360    -0.8706970
  H       -0.9969410     1.1888870    -0.8701370
  H       -0.9969750     1.1888400     0.8702580
  H        4.3972900    -1.0573420     0.0001120
  H        3.8858800     0.4149390     0.8894490
  H        3.8858720     0.4147700    -0.8895010
  H       -4.2474240     0.2791820     0.0000590
units angstrom
no_reorient  #important for SAPT in psi4, default
symmetry c1  #important for SAPT in psi4, default
}

set PROPERTIES_ORIGIN ["COM"]
properties('MP2/aug-cc-pvtz', properties = ['dipole'])
--------------------------------------------------------------------------

    Molecular point group: c1
  Charge       = 0
  Multiplicity = 1
  Basis Set: AUG-CC-PVTZ
    Blend: AUG-CC-PVTZ
  Basis Set: (AUG-CC-PVTZ AUX)
    Blend: AUG-CC-PVTZ-JKFIT

    Orbital Energies [Eh]
    ---------------------

    Doubly Occupied:

       1A    -20.616622     2A    -20.613606     3A    -20.557088
       4A    -20.556635     5A    -11.401665     6A    -11.392393
       7A    -11.291743     8A    -11.261108     9A    -11.259838
      10A     -1.463759    11A     -1.452292    12A     -1.363394
      13A     -1.344831    14A     -1.107511    15A     -1.006037
      16A     -0.937772    17A     -0.812296    18A     -0.773586
      19A     -0.729462    20A     -0.701159    21A     -0.692676
      22A     -0.679737    23A     -0.666181    24A     -0.662814
      25A     -0.606342    26A     -0.599617    27A     -0.568328
      28A     -0.550979    29A     -0.548183    30A     -0.536577
      31A     -0.514050    32A     -0.479354    33A     -0.471531
      34A     -0.466341    35A     -0.457763

  @DF-RHF Final Energy:  -493.66921091506765

   => Energetics <=

    Nuclear Repulsion Energy =            445.3512108170809256
    One-Electron Energy =               -1559.7543053989468262
    Two-Electron Energy =                 620.7338836667981923
    Total Energy =                       -493.6692109150676515
  Basis Set: (AUG-CC-PVTZ AUX)
    Blend: AUG-CC-PVTZ-RI
    Molecular point group: c1

    Geometry (in Angstrom), charge = 0, multiplicity = 1:

       Center              X                  Y                   Z               Mass
    ------------   -----------------  -----------------  -----------------  -----------------
         O            2.440816772098    -0.756691148971     0.000095097164    15.994914619570
         O           -3.373237227902     0.792024851029     0.000114097164    15.994914619570
         O            1.652145772098     1.373563851029    -0.000153902836    15.994914619570
         O           -2.589190227902    -1.333359148971    -0.000138902836    15.994914619570
         C            0.099302772098    -0.496908148971     0.000029097164    12.000000000000
         C           -1.023261227902     0.527074851029     0.000043097164    12.000000000000
         C            1.452241772098     0.168964851029    -0.000019902836    12.000000000000
         C           -2.330798427902    -0.110499848971    -0.000003302836    12.000000000000
         C            3.770924772098    -0.198507148971     0.000035097164    12.000000000000
         H            0.031554772098    -1.156620148971     0.870768097164     1.007825032230
         H            0.031504772098    -1.156636148971    -0.870694902836     1.007825032230
         H           -0.956693227902     1.187786851029    -0.870134902836     1.007825032230
         H           -0.956727227902     1.187739851029     0.870260097164     1.007825032230
         H            4.437537772098    -1.058442148971     0.000114097164     1.007825032230
         H            3.926127772098     0.413838851029     0.889451097164     1.007825032230
         H            3.926119772098     0.413669851029    -0.889498902836     1.007825032230
         H           -4.207176227902     0.278081851029     0.000061097164     1.007825032230

  Basis Set: AUG-CC-PVTZ
    Blend: AUG-CC-PVTZ
  Basis Set: (AUG-CC-PVTZ AUX)
    Blend: AUG-CC-PVTZ-JKFIT
	 Reference Energy          =    -493.6692109150676515 [Eh]
	 Singles Energy            =      -0.0000000000000000 [Eh]
	 Same-Spin Energy          =      -0.4761584706035519 [Eh]
	 Opposite-Spin Energy      =      -1.4720475791915741 [Eh]
	 Correlation Energy        =      -1.9482060497951261 [Eh]
	 Total Energy              =    -495.6174169648627981 [Eh]

	 ================> DF-SCS-MP2 Energies <==================
	-----------------------------------------------------------
	 SCS Same-Spin Scale       =       0.3333333333333333 [-]
	 SCS Opposite-Spin Scale   =       1.2000000000000000 [-]
	 SCS Same-Spin Energy      =      -0.1587194902011839 [Eh]
	 SCS Opposite-Spin Energy  =      -1.7664570950298890 [Eh]
	 SCS Correlation Energy    =      -1.9251765852310729 [Eh]
	 SCS Total Energy          =    -495.5943875002987511 [Eh]
	-----------------------------------------------------------

  Dipole Moment: [D]
     X:     1.0013      Y:    -0.0396      Z:     0.0003     Total:     1.0021

*** Psi4 exiting successfully. Buy a developer a beer!
