                               Psi4 1.4a3.dev225

  ==> Input File <==

--------------------------------------------------------------------------
#psi4
#
memory 32 gb

molecule  {
0 1
  O        2.4005690    -0.7555910     0.0000930
  O       -3.4134850     0.7931250     0.0001120
  O        1.6118980     1.3746640    -0.0001560
  O       -2.6294380    -1.3322590    -0.0001410
  C        0.0590550    -0.4958080     0.0000270
  C       -1.0635090     0.5281750     0.0000410
  C        1.4119940     0.1700650    -0.0000220
  C       -2.4159880    -0.1313140    -0.0000070
  C        3.7122351    -0.2051462     0.0000338
  H       -0.0086930    -1.1555200     0.8707660
  H       -0.0087430    -1.1555360    -0.8706970
  H       -0.9969410     1.1888870    -0.8701370
  H       -0.9969750     1.1888400     0.8702580
  H        4.3972900    -1.0573420     0.0001120
  H        3.8858800     0.4149390     0.8894490
  H        3.8858720     0.4147700    -0.8895010
  H       -4.2474240     0.2791820     0.0000590
units angstrom
no_reorient  #important for SAPT in psi4, default
symmetry c1  #important for SAPT in psi4, default
}

set PROPERTIES_ORIGIN ["COM"]
properties('MP2/aug-cc-pvtz', properties = ['dipole'])
--------------------------------------------------------------------------

    Molecular point group: c1
  Charge       = 0
  Multiplicity = 1
  Basis Set: AUG-CC-PVTZ
    Blend: AUG-CC-PVTZ
  Basis Set: (AUG-CC-PVTZ AUX)
    Blend: AUG-CC-PVTZ-JKFIT

    Orbital Energies [Eh]
    ---------------------

    Doubly Occupied:

       1A    -20.621554     2A    -20.613757     3A    -20.559712
       4A    -20.555769     5A    -11.397979     6A    -11.391459
       7A    -11.290147     8A    -11.258985     9A    -11.257298
      10A     -1.466886    11A     -1.466075    12A     -1.364595
      13A     -1.363946    14A     -1.098267    15A     -0.999848
      16A     -0.930991    17A     -0.814728    18A     -0.774295
      19A     -0.726631    20A     -0.709365    21A     -0.691411
      22A     -0.681386    23A     -0.669758    24A     -0.662550
      25A     -0.611052    26A     -0.602653    27A     -0.566999
      28A     -0.547660    29A     -0.545597    30A     -0.533130
      31A     -0.510880    32A     -0.489722    33A     -0.469563
      34A     -0.464716    35A     -0.458301

  @DF-RHF Final Energy:  -493.67644105044815

   => Energetics <=

    Nuclear Repulsion Energy =            445.6586383819018806
    One-Electron Energy =               -1560.3348258707983405
    Two-Electron Energy =                 620.9997464384482555
    Total Energy =                       -493.6764410504481475
  Basis Set: (AUG-CC-PVTZ AUX)
    Blend: AUG-CC-PVTZ-RI
    Molecular point group: c1

    Geometry (in Angstrom), charge = 0, multiplicity = 1:

       Center              X                  Y                   Z               Mass
    ------------   -----------------  -----------------  -----------------  -----------------
         O            2.446577082526    -0.753996238997     0.000095169868    15.994914619570
         O           -3.367476917474     0.794719761003     0.000114169868    15.994914619570
         O            1.657906082526     1.376258761003    -0.000153830132    15.994914619570
         O           -2.583429917474    -1.330664238997    -0.000138830132    15.994914619570
         C            0.105063082526    -0.494213238997     0.000029169868    12.000000000000
         C           -1.017500917474     0.529769761003     0.000043169868    12.000000000000
         C            1.458002082526     0.171659761003    -0.000019830132    12.000000000000
         C           -2.369979917474    -0.129719238997    -0.000004830132    12.000000000000
         C            3.758243182526    -0.203551438997     0.000035969868    12.000000000000
         H            0.037315082526    -1.153925238997     0.870768169868     1.007825032230
         H            0.037265082526    -1.153941238997    -0.870694830132     1.007825032230
         H           -0.950932917474     1.190481761003    -0.870134830132     1.007825032230
         H           -0.950966917474     1.190434761003     0.870260169868     1.007825032230
         H            4.443298082526    -1.055747238997     0.000114169868     1.007825032230
         H            3.931888082526     0.416533761003     0.889451169868     1.007825032230
         H            3.931880082526     0.416364761003    -0.889498830132     1.007825032230
         H           -4.201415917474     0.280776761003     0.000061169868     1.007825032230

  Basis Set: AUG-CC-PVTZ
    Blend: AUG-CC-PVTZ
  Basis Set: (AUG-CC-PVTZ AUX)
    Blend: AUG-CC-PVTZ-JKFIT
	 Reference Energy          =    -493.6764410504481475 [Eh]
	 Singles Energy            =      -0.0000000000000000 [Eh]
	 Same-Spin Energy          =      -0.4750755368399945 [Eh]
	 Opposite-Spin Energy      =      -1.4696953763433398 [Eh]
	 Correlation Energy        =      -1.9447709131833344 [Eh]
	 Total Energy              =    -495.6212119636314810 [Eh]

	 ================> DF-SCS-MP2 Energies <==================
	-----------------------------------------------------------
	 SCS Same-Spin Scale       =       0.3333333333333333 [-]
	 SCS Opposite-Spin Scale   =       1.2000000000000000 [-]
	 SCS Same-Spin Energy      =      -0.1583585122799981 [Eh]
	 SCS Opposite-Spin Energy  =      -1.7636344516120077 [Eh]
	 SCS Correlation Energy    =      -1.9219929638920059 [Eh]
	 SCS Total Energy          =    -495.5984340143401710 [Eh]
	-----------------------------------------------------------

  Dipole Moment: [D]
     X:     0.6125      Y:    -0.1367      Z:     0.0003     Total:     0.6276

*** Psi4 exiting successfully. Buy a developer a beer!
