                               Psi4 1.4a3.dev225

  ==> Input File <==

--------------------------------------------------------------------------
#psi4
#
memory 32 gb

molecule  {
0 1
  O        2.4005690    -0.7555910     0.0000930
  O       -3.4134850     0.7931250     0.0001120
  O        1.6118980     1.3746640    -0.0001560
  O       -2.6294380    -1.3322590    -0.0001410
  C        0.0590550    -0.4958080     0.0000270
  C       -1.0635090     0.5281750     0.0000410
  C        1.4119940     0.1700650    -0.0000220
  C       -2.4609298    -0.1532283    -0.0000086
  C        3.7306770    -0.1974070     0.0000330
  H       -0.0086930    -1.1555200     0.8707660
  H       -0.0087430    -1.1555360    -0.8706970
  H       -0.9969410     1.1888870    -0.8701370
  H       -0.9969750     1.1888400     0.8702580
  H        4.3972900    -1.0573420     0.0001120
  H        3.8858800     0.4149390     0.8894490
  H        3.8858720     0.4147700    -0.8895010
  H       -4.2474240     0.2791820     0.0000590
units angstrom
no_reorient  #important for SAPT in psi4, default
symmetry c1  #important for SAPT in psi4, default
}

set PROPERTIES_ORIGIN ["COM"]
properties('MP2/aug-cc-pvtz', properties = ['dipole'])
--------------------------------------------------------------------------

    Molecular point group: c1
  Charge       = 0
  Multiplicity = 1
  Basis Set: AUG-CC-PVTZ
    Blend: AUG-CC-PVTZ
  Basis Set: (AUG-CC-PVTZ AUX)
    Blend: AUG-CC-PVTZ-JKFIT

    Orbital Energies [Eh]
    ---------------------

    Doubly Occupied:

       1A    -20.625906     2A    -20.610194     3A    -20.561859
       4A    -20.552388     5A    -11.394127     6A    -11.388071
       7A    -11.289220     8A    -11.254998     9A    -11.253311
      10A     -1.479834    11A     -1.460045    12A     -1.382873
      13A     -1.359396    14A     -1.088825    15A     -0.992259
      16A     -0.925623    17A     -0.815846    18A     -0.770648
      19A     -0.722277    20A     -0.717290    21A     -0.687463
      22A     -0.678529    23A     -0.670979    24A     -0.662383
      25A     -0.614769    26A     -0.603288    27A     -0.567078
      28A     -0.547466    29A     -0.540164    30A     -0.533280
      31A     -0.507615    32A     -0.499722    33A     -0.468293
      34A     -0.458747    35A     -0.455888

  @DF-RHF Final Energy:  -493.67638964295492

   => Energetics <=

    Nuclear Repulsion Energy =            445.2409488669784423
    One-Electron Energy =               -1559.5533683319774809
    Two-Electron Energy =                 620.6360298220440654
    Total Energy =                       -493.6763896429549732
  Basis Set: (AUG-CC-PVTZ AUX)
    Blend: AUG-CC-PVTZ-RI
    Molecular point group: c1

    Geometry (in Angstrom), charge = 0, multiplicity = 1:

       Center              X                  Y                   Z               Mass
    ------------   -----------------  -----------------  -----------------  -----------------
         O            2.448985393343    -0.752708005960     0.000095387980    15.994914619570
         O           -3.365068606657     0.796007994040     0.000114387980    15.994914619570
         O            1.660314393343     1.377546994040    -0.000153612020    15.994914619570
         O           -2.581021606657    -1.329376005960    -0.000138612020    15.994914619570
         C            0.107471393343    -0.492925005960     0.000029387980    12.000000000000
         C           -1.015092606657     0.531057994040     0.000043387980    12.000000000000
         C            1.460410393343     0.172947994040    -0.000019612020    12.000000000000
         C           -2.412513406657    -0.150345305960    -0.000006212020    12.000000000000
         C            3.779093393343    -0.194524005960     0.000035387980    12.000000000000
         H            0.039723393343    -1.152637005960     0.870768387980     1.007825032230
         H            0.039673393343    -1.152653005960    -0.870694612020     1.007825032230
         H           -0.948524606657     1.191769994040    -0.870134612020     1.007825032230
         H           -0.948558606657     1.191722994040     0.870260387980     1.007825032230
         H            4.445706393343    -1.054459005960     0.000114387980     1.007825032230
         H            3.934296393343     0.417821994040     0.889451387980     1.007825032230
         H            3.934288393343     0.417652994040    -0.889498612020     1.007825032230
         H           -4.199007606657     0.282064994040     0.000061387980     1.007825032230

  Basis Set: AUG-CC-PVTZ
    Blend: AUG-CC-PVTZ
  Basis Set: (AUG-CC-PVTZ AUX)
    Blend: AUG-CC-PVTZ-JKFIT
	 Reference Energy          =    -493.6763896429549163 [Eh]
	 Singles Energy            =      -0.0000000000000000 [Eh]
	 Same-Spin Energy          =      -0.4742587799510192 [Eh]
	 Opposite-Spin Energy      =      -1.4682930446353555 [Eh]
	 Correlation Energy        =      -1.9425518245863747 [Eh]
	 Total Energy              =    -495.6189414675412763 [Eh]

	 ================> DF-SCS-MP2 Energies <==================
	-----------------------------------------------------------
	 SCS Same-Spin Scale       =       0.3333333333333333 [-]
	 SCS Opposite-Spin Scale   =       1.2000000000000000 [-]
	 SCS Same-Spin Energy      =      -0.1580862599836731 [Eh]
	 SCS Opposite-Spin Energy  =      -1.7619516535624264 [Eh]
	 SCS Correlation Energy    =      -1.9200379135460994 [Eh]
	 SCS Total Energy          =    -495.5964275565009984 [Eh]
	-----------------------------------------------------------

  Dipole Moment: [D]
     X:     0.3824      Y:    -0.2285      Z:     0.0003     Total:     0.4455

*** Psi4 exiting successfully. Buy a developer a beer!
