                               Psi4 1.4a3.dev225

  ==> Input File <==

--------------------------------------------------------------------------
#psi4
#
memory 32 gb

molecule  {
0 1
  O        2.4005690    -0.7555910     0.0000930
  O       -3.4134850     0.7931250     0.0001120
  O        1.6118980     1.3746640    -0.0001560
  O       -2.6294380    -1.3322590    -0.0001410
  C        0.0590550    -0.4958080     0.0000270
  C       -1.0635090     0.5281750     0.0000410
  C        1.4119940     0.1700650    -0.0000220
  C       -2.4159880    -0.1313140    -0.0000070
  C        3.7306770    -0.1974070     0.0000330
  H       -0.0086930    -1.1555200     0.8707660
  H       -0.0087430    -1.1555360    -0.8706970
  H       -0.9969410     1.1888870    -0.8701370
  H       -1.0000141     1.1586620     0.8305081
  H        4.3972900    -1.0573420     0.0001120
  H        3.8858800     0.4149390     0.8894490
  H        3.8858720     0.4147700    -0.8895010
  H       -4.2474240     0.2791820     0.0000590
units angstrom
no_reorient  #important for SAPT in psi4, default
symmetry c1  #important for SAPT in psi4, default
}

set PROPERTIES_ORIGIN ["COM"]
properties('MP2/aug-cc-pvtz', properties = ['dipole'])
--------------------------------------------------------------------------

    Molecular point group: c1
  Charge       = 0
  Multiplicity = 1
  Basis Set: AUG-CC-PVTZ
    Blend: AUG-CC-PVTZ
  Basis Set: (AUG-CC-PVTZ AUX)
    Blend: AUG-CC-PVTZ-JKFIT

    Orbital Energies [Eh]
    ---------------------

    Doubly Occupied:

       1A    -20.621422     2A    -20.611875     3A    -20.559249
       4A    -20.554575     5A    -11.397388     6A    -11.390233
       7A    -11.290464     8A    -11.256307     9A    -11.252762
      10A     -1.466186    11A     -1.461858    12A     -1.363717
      13A     -1.361416    14A     -1.099398    15A     -0.999990
      16A     -0.932447    17A     -0.815825    18A     -0.773418
      19A     -0.726521    20A     -0.709014    21A     -0.691038
      22A     -0.679652    23A     -0.668233    24A     -0.663156
      25A     -0.611407    26A     -0.601847    27A     -0.568017
      28A     -0.552114    29A     -0.544969    30A     -0.534865
      31A     -0.512619    32A     -0.489527    33A     -0.470090
      34A     -0.464168    35A     -0.457351

  @DF-RHF Final Energy:  -493.67564669121833

   => Energetics <=

    Nuclear Repulsion Energy =            445.5366917904306092
    One-Electron Energy =               -1560.1184421218260923
    Two-Electron Energy =                 620.9061036401773208
    Total Energy =                       -493.6756466912182759
  Basis Set: (AUG-CC-PVTZ AUX)
    Blend: AUG-CC-PVTZ-RI
    Molecular point group: c1

    Geometry (in Angstrom), charge = 0, multiplicity = 1:

       Center              X                  Y                   Z               Mass
    ------------   -----------------  -----------------  -----------------  -----------------
         O            2.444924278939    -0.754469241026     0.000398637444    15.994914619570
         O           -3.369129721061     0.794246758974     0.000417637444    15.994914619570
         O            1.656253278939     1.375785758974     0.000149637444    15.994914619570
         O           -2.585082721061    -1.331137241026     0.000164637444    15.994914619570
         C            0.103410278939    -0.494686241026     0.000332637444    12.000000000000
         C           -1.019153721061     0.529296758974     0.000346637444    12.000000000000
         C            1.456349278939     0.171186758974     0.000283637444    12.000000000000
         C           -2.371632721061    -0.130192241026     0.000298637444    12.000000000000
         C            3.775032278939    -0.196285241026     0.000338637444    12.000000000000
         H            0.035662278939    -1.154398241026     0.871071637444     1.007825032230
         H            0.035612278939    -1.154414241026    -0.870391362556     1.007825032230
         H           -0.952585721061     1.190008758974    -0.869831362556     1.007825032230
         H           -0.955658821061     1.159783758974     0.830813737444     1.007825032230
         H            4.441645278939    -1.056220241026     0.000417637444     1.007825032230
         H            3.930235278939     0.416060758974     0.889754637444     1.007825032230
         H            3.930227278939     0.415891758974    -0.889195362556     1.007825032230
         H           -4.203068721061     0.280303758974     0.000364637444     1.007825032230

  Basis Set: AUG-CC-PVTZ
    Blend: AUG-CC-PVTZ
  Basis Set: (AUG-CC-PVTZ AUX)
    Blend: AUG-CC-PVTZ-JKFIT
	 Reference Energy          =    -493.6756466912183328 [Eh]
	 Singles Energy            =      -0.0000000000000000 [Eh]
	 Same-Spin Energy          =      -0.4750135276172696 [Eh]
	 Opposite-Spin Energy      =      -1.4695807644070951 [Eh]
	 Correlation Energy        =      -1.9445942920243646 [Eh]
	 Total Energy              =    -495.6202409832426952 [Eh]

	 ================> DF-SCS-MP2 Energies <==================
	-----------------------------------------------------------
	 SCS Same-Spin Scale       =       0.3333333333333333 [-]
	 SCS Opposite-Spin Scale   =       1.2000000000000000 [-]
	 SCS Same-Spin Energy      =      -0.1583378425390898 [Eh]
	 SCS Opposite-Spin Energy  =      -1.7634969172885140 [Eh]
	 SCS Correlation Energy    =      -1.9218347598276038 [Eh]
	 SCS Total Energy          =    -495.5974814510459510 [Eh]
	-----------------------------------------------------------

  Dipole Moment: [D]
     X:     0.6862      Y:    -0.1260      Z:     0.0016     Total:     0.6977

*** Psi4 exiting successfully. Buy a developer a beer!
