                               Psi4 1.4a3.dev225

  ==> Input File <==

--------------------------------------------------------------------------
#psi4
#
memory 32 gb

molecule  {
0 1
  O        2.4005690    -0.7555910     0.0000930
  O       -3.4134850     0.7931250     0.0001120
  O        1.6118980     1.3746640    -0.0001560
  O       -2.6294380    -1.3322590    -0.0001410
  C        0.0590550    -0.4958080     0.0000270
  C       -1.0635090     0.5281750     0.0000410
  C        1.4119940     0.1700650    -0.0000220
  C       -2.4159880    -0.1313140    -0.0000070
  C        3.7306770    -0.1974070     0.0000330
  H       -0.0086930    -1.1555200     0.8707660
  H       -0.0056459    -1.1253985    -0.8309209
  H       -0.9969410     1.1888870    -0.8701370
  H       -0.9969750     1.1888400     0.8702580
  H        4.3972900    -1.0573420     0.0001120
  H        3.8858800     0.4149390     0.8894490
  H        3.8858720     0.4147700    -0.8895010
  H       -4.2474240     0.2791820     0.0000590
units angstrom
no_reorient  #important for SAPT in psi4, default
symmetry c1  #important for SAPT in psi4, default
}

set PROPERTIES_ORIGIN ["COM"]
properties('MP2/aug-cc-pvtz', properties = ['dipole'])
--------------------------------------------------------------------------

    Molecular point group: c1
  Charge       = 0
  Multiplicity = 1
  Basis Set: AUG-CC-PVTZ
    Blend: AUG-CC-PVTZ
  Basis Set: (AUG-CC-PVTZ AUX)
    Blend: AUG-CC-PVTZ-JKFIT

    Orbital Energies [Eh]
    ---------------------

    Doubly Occupied:

       1A    -20.621207     2A    -20.612070     3A    -20.559400
       4A    -20.554390     5A    -11.397579     6A    -11.390013
       7A    -11.290562     8A    -11.258072     9A    -11.250952
      10A     -1.466095    11A     -1.461925    12A     -1.363760
      13A     -1.361338    14A     -1.099408    15A     -0.999243
      16A     -0.933890    17A     -0.814278    18A     -0.773991
      19A     -0.726755    20A     -0.709301    21A     -0.691385
      22A     -0.678904    23A     -0.668600    24A     -0.661904
      25A     -0.613438    26A     -0.601950    27A     -0.567655
      28A     -0.549541    29A     -0.545479    30A     -0.534978
      31A     -0.514004    32A     -0.489447    33A     -0.470029
      34A     -0.464083    35A     -0.457396

  @DF-RHF Final Energy:  -493.67565839315500

   => Energetics <=

    Nuclear Repulsion Energy =            445.5393512920041417
    One-Electron Energy =               -1560.1239714359630852
    Two-Electron Energy =                 620.9089617508039964
    Total Energy =                       -493.6756583931550040
  Basis Set: (AUG-CC-PVTZ AUX)
    Blend: AUG-CC-PVTZ-RI
    Molecular point group: c1

    Geometry (in Angstrom), charge = 0, multiplicity = 1:

       Center              X                  Y                   Z               Mass
    ------------   -----------------  -----------------  -----------------  -----------------
         O            2.444877443811    -0.754929604786    -0.000208352275    15.994914619570
         O           -3.369176556189     0.793786395214    -0.000189352275    15.994914619570
         O            1.656206443811     1.375325395214    -0.000457352275    15.994914619570
         O           -2.585129556189    -1.331597604786    -0.000442352275    15.994914619570
         C            0.103363443811    -0.495146604786    -0.000274352275    12.000000000000
         C           -1.019200556189     0.528836395214    -0.000260352275    12.000000000000
         C            1.456302443811     0.170726395214    -0.000323352275    12.000000000000
         C           -2.371679556189    -0.130652604786    -0.000308352275    12.000000000000
         C            3.774985443811    -0.196745604786    -0.000268352275    12.000000000000
         H            0.035615443811    -1.154858604786     0.870464647725     1.007825032230
         H            0.038662543811    -1.124737104786    -0.831222252275     1.007825032230
         H           -0.952632556189     1.189548395214    -0.870438352275     1.007825032230
         H           -0.952666556189     1.189501395214     0.869956647725     1.007825032230
         H            4.441598443811    -1.056680604786    -0.000189352275     1.007825032230
         H            3.930188443811     0.415600395214     0.889147647725     1.007825032230
         H            3.930180443811     0.415431395214    -0.889802352275     1.007825032230
         H           -4.203115556189     0.279843395214    -0.000242352275     1.007825032230

  Basis Set: AUG-CC-PVTZ
    Blend: AUG-CC-PVTZ
  Basis Set: (AUG-CC-PVTZ AUX)
    Blend: AUG-CC-PVTZ-JKFIT
	 Reference Energy          =    -493.6756583931550040 [Eh]
	 Singles Energy            =      -0.0000000000000000 [Eh]
	 Same-Spin Energy          =      -0.4750122817997738 [Eh]
	 Opposite-Spin Energy      =      -1.4695717756887021 [Eh]
	 Correlation Energy        =      -1.9445840574884761 [Eh]
	 Total Energy              =    -495.6202424506435023 [Eh]

	 ================> DF-SCS-MP2 Energies <==================
	-----------------------------------------------------------
	 SCS Same-Spin Scale       =       0.3333333333333333 [-]
	 SCS Opposite-Spin Scale   =       1.2000000000000000 [-]
	 SCS Same-Spin Energy      =      -0.1583374272665913 [Eh]
	 SCS Opposite-Spin Energy  =      -1.7634861308264425 [Eh]
	 SCS Correlation Energy    =      -1.9218235580930336 [Eh]
	 SCS Total Energy          =    -495.5974819512480281 [Eh]
	-----------------------------------------------------------

  Dipole Moment: [D]
     X:     0.6997      Y:    -0.1311      Z:    -0.0019     Total:     0.7119

*** Psi4 exiting successfully. Buy a developer a beer!
