                               Psi4 1.4a3.dev225

  ==> Input File <==

--------------------------------------------------------------------------
#psi4
#
memory 32 gb

molecule  {
0 1
  O        2.4005690    -0.7555910     0.0000930
  O       -3.4134850     0.7931250     0.0001120
  O        1.6118980     1.3746640    -0.0001560
  O       -2.6294380    -1.3322590    -0.0001410
  C        0.0590550    -0.4958080     0.0000270
  C       -1.0635090     0.5281750     0.0000410
  C        1.4119940     0.1700650    -0.0000220
  C       -2.4026365    -0.1566071     0.0440439
  C        3.7306770    -0.1974070     0.0000330
  H       -0.0086930    -1.1555200     0.8707660
  H       -0.0087430    -1.1555360    -0.8706970
  H       -0.9969410     1.1888870    -0.8701370
  H       -0.9969750     1.1888400     0.8702580
  H        4.3972900    -1.0573420     0.0001120
  H        3.8858800     0.4149390     0.8894490
  H        3.8858720     0.4147700    -0.8895010
  H       -4.2474240     0.2791820     0.0000590
units angstrom
no_reorient  #important for SAPT in psi4, default
symmetry c1  #important for SAPT in psi4, default
}

set PROPERTIES_ORIGIN ["COM"]
properties('MP2/aug-cc-pvtz', properties = ['dipole'])
--------------------------------------------------------------------------

    Molecular point group: c1
  Charge       = 0
  Multiplicity = 1
  Basis Set: AUG-CC-PVTZ
    Blend: AUG-CC-PVTZ
  Basis Set: (AUG-CC-PVTZ AUX)
    Blend: AUG-CC-PVTZ-JKFIT

    Orbital Energies [Eh]
    ---------------------

    Doubly Occupied:

       1A    -20.613157     2A    -20.612239     3A    -20.565003
       4A    -20.554955     5A    -11.396504     6A    -11.390584
       7A    -11.290746     8A    -11.258754     9A    -11.257075
      10A     -1.463373    11A     -1.462074    12A     -1.368296
      13A     -1.361773    14A     -1.098436    15A     -0.998621
      16A     -0.930548    17A     -0.807248    18A     -0.771454
      19A     -0.726703    20A     -0.708259    21A     -0.690218
      22A     -0.679217    23A     -0.667612    24A     -0.660850
      25A     -0.608551    26A     -0.604299    27A     -0.570491
      28A     -0.548746    29A     -0.543896    30A     -0.535264
      31A     -0.511288    32A     -0.495594    33A     -0.470382
      34A     -0.464992    35A     -0.458454

  @DF-RHF Final Energy:  -493.67532479958913

   => Energetics <=

    Nuclear Repulsion Energy =            445.3731038709300947
    One-Electron Energy =               -1559.8055457486864270
    Two-Electron Energy =                 620.7571170781673118
    Total Energy =                       -493.6753247995891343
  Basis Set: (AUG-CC-PVTZ AUX)
    Blend: AUG-CC-PVTZ-RI
    Molecular point group: c1

    Geometry (in Angstrom), charge = 0, multiplicity = 1:

       Center              X                  Y                   Z               Mass
    ------------   -----------------  -----------------  -----------------  -----------------
         O            2.443687698448    -0.752400940628    -0.003908103062    15.994914619570
         O           -3.370366301552     0.796315059372    -0.003889103062    15.994914619570
         O            1.655016698448     1.377854059372    -0.004157103062    15.994914619570
         O           -2.586319301552    -1.329068940628    -0.004142103062    15.994914619570
         C            0.102173698448    -0.492617940628    -0.003974103062    12.000000000000
         C           -1.020390301552     0.531365059372    -0.003960103062    12.000000000000
         C            1.455112698448     0.173255059372    -0.004023103062    12.000000000000
         C           -2.359517801552    -0.153417040628     0.040042796938    12.000000000000
         C            3.773795698448    -0.194216940628    -0.003968103062    12.000000000000
         H            0.034425698448    -1.152329940628     0.866764896938     1.007825032230
         H            0.034375698448    -1.152345940628    -0.874698103062     1.007825032230
         H           -0.953822301552     1.192077059372    -0.874138103062     1.007825032230
         H           -0.953856301552     1.192030059372     0.866256896938     1.007825032230
         H            4.440408698448    -1.054151940628    -0.003889103062     1.007825032230
         H            3.928998698448     0.418129059372     0.885447896938     1.007825032230
         H            3.928990698448     0.417960059372    -0.893502103062     1.007825032230
         H           -4.204305301552     0.282372059372    -0.003942103062     1.007825032230

  Basis Set: AUG-CC-PVTZ
    Blend: AUG-CC-PVTZ
  Basis Set: (AUG-CC-PVTZ AUX)
    Blend: AUG-CC-PVTZ-JKFIT
	 Reference Energy          =    -493.6753247995891343 [Eh]
	 Singles Energy            =      -0.0000000000000000 [Eh]
	 Same-Spin Energy          =      -0.4748743456627686 [Eh]
	 Opposite-Spin Energy      =      -1.4697630750204291 [Eh]
	 Correlation Energy        =      -1.9446374206831978 [Eh]
	 Total Energy              =    -495.6199622202723276 [Eh]

	 ================> DF-SCS-MP2 Energies <==================
	-----------------------------------------------------------
	 SCS Same-Spin Scale       =       0.3333333333333333 [-]
	 SCS Opposite-Spin Scale   =       1.2000000000000000 [-]
	 SCS Same-Spin Energy      =      -0.1582914485542562 [Eh]
	 SCS Opposite-Spin Energy  =      -1.7637156900245150 [Eh]
	 SCS Correlation Energy    =      -1.9220071385787711 [Eh]
	 SCS Total Energy          =    -495.5973319381678834 [Eh]
	-----------------------------------------------------------

  Dipole Moment: [D]
     X:     0.8330      Y:    -0.3345      Z:     0.0474     Total:     0.8989

*** Psi4 exiting successfully. Buy a developer a beer!
