                               Psi4 1.4a3.dev225

  ==> Input File <==

--------------------------------------------------------------------------
#psi4
#
memory 32 gb

molecule  {
0 1
  O        2.4005690    -0.7555910     0.0000930
  O       -3.4134850     0.7931250     0.0001120
  O        1.6118980     1.3746640    -0.0001560
  O       -2.6294380    -1.3322590    -0.0001410
  C        0.0590550    -0.4958080     0.0000270
  C       -1.0635090     0.5281750     0.0000410
  C        1.4119940     0.1700650    -0.0000220
  C       -2.4377334    -0.0783491    -0.0880550
  C        3.7306770    -0.1974070     0.0000330
  H       -0.0086930    -1.1555200     0.8707660
  H       -0.0087430    -1.1555360    -0.8706970
  H       -0.9969410     1.1888870    -0.8701370
  H       -0.9969750     1.1888400     0.8702580
  H        4.3972900    -1.0573420     0.0001120
  H        3.8858800     0.4149390     0.8894490
  H        3.8858720     0.4147700    -0.8895010
  H       -4.2474240     0.2791820     0.0000590
units angstrom
no_reorient  #important for SAPT in psi4, default
symmetry c1  #important for SAPT in psi4, default
}

set PROPERTIES_ORIGIN ["COM"]
properties('MP2/aug-cc-pvtz', properties = ['dipole'])
--------------------------------------------------------------------------

    Molecular point group: c1
  Charge       = 0
  Multiplicity = 1
  Basis Set: AUG-CC-PVTZ
    Blend: AUG-CC-PVTZ
  Basis Set: (AUG-CC-PVTZ AUX)
    Blend: AUG-CC-PVTZ-JKFIT

    Orbital Energies [Eh]
    ---------------------

    Doubly Occupied:

       1A    -20.635970     2A    -20.611436     3A    -20.553889
       4A    -20.548672     5A    -11.401406     6A    -11.389792
       7A    -11.290117     8A    -11.259290     9A    -11.255968
      10A     -1.483513    11A     -1.461389    12A     -1.360884
      13A     -1.337919    14A     -1.096030    15A     -0.999841
      16A     -0.935350    17A     -0.829759    18A     -0.773531
      19A     -0.722787    20A     -0.713076    21A     -0.689970
      22A     -0.678243    23A     -0.668451    24A     -0.664708
      25A     -0.616791    26A     -0.595389    27A     -0.558800
      28A     -0.550182    29A     -0.545737    30A     -0.534045
      31A     -0.510589    32A     -0.472392    33A     -0.468645
      34A     -0.461152    35A     -0.452456

  @DF-RHF Final Energy:  -493.66528964574212

   => Energetics <=

    Nuclear Repulsion Energy =            444.9789930697140221
    One-Electron Energy =               -1559.0322278557575828
    Two-Electron Energy =                 620.3879451403013263
    Total Energy =                       -493.6652896457421775
  Basis Set: (AUG-CC-PVTZ AUX)
    Blend: AUG-CC-PVTZ-RI
    Molecular point group: c1

    Geometry (in Angstrom), charge = 0, multiplicity = 1:

       Center              X                  Y                   Z               Mass
    ------------   -----------------  -----------------  -----------------  -----------------
         O            2.446877304594    -0.759513027388     0.008097044495    15.994914619570
         O           -3.367176695406     0.789202972612     0.008116044495    15.994914619570
         O            1.658206304594     1.370741972612     0.007848044495    15.994914619570
         O           -2.583129695406    -1.336181027388     0.007863044495    15.994914619570
         C            0.105363304594    -0.499730027388     0.008031044495    12.000000000000
         C           -1.017200695406     0.524252972612     0.008045044495    12.000000000000
         C            1.458302304594     0.166142972612     0.007982044495    12.000000000000
         C           -2.391425095406    -0.082271127388    -0.080050955505    12.000000000000
         C            3.776985304594    -0.201329027388     0.008037044495    12.000000000000
         H            0.037615304594    -1.159442027388     0.878770044495     1.007825032230
         H            0.037565304594    -1.159458027388    -0.862692955505     1.007825032230
         H           -0.950632695406     1.184964972612    -0.862132955505     1.007825032230
         H           -0.950666695406     1.184917972612     0.878262044495     1.007825032230
         H            4.443598304594    -1.061264027388     0.008116044495     1.007825032230
         H            3.932188304594     0.411016972612     0.897453044495     1.007825032230
         H            3.932180304594     0.410847972612    -0.881496955505     1.007825032230
         H           -4.201115695406     0.275259972612     0.008063044495     1.007825032230

  Basis Set: AUG-CC-PVTZ
    Blend: AUG-CC-PVTZ
  Basis Set: (AUG-CC-PVTZ AUX)
    Blend: AUG-CC-PVTZ-JKFIT
	 Reference Energy          =    -493.6652896457421207 [Eh]
	 Singles Energy            =      -0.0000000000000000 [Eh]
	 Same-Spin Energy          =      -0.4759518181150257 [Eh]
	 Opposite-Spin Energy      =      -1.4714532711736041 [Eh]
	 Correlation Energy        =      -1.9474050892886299 [Eh]
	 Total Energy              =    -495.6126947350307432 [Eh]

	 ================> DF-SCS-MP2 Energies <==================
	-----------------------------------------------------------
	 SCS Same-Spin Scale       =       0.3333333333333333 [-]
	 SCS Opposite-Spin Scale   =       1.2000000000000000 [-]
	 SCS Same-Spin Energy      =      -0.1586506060383419 [Eh]
	 SCS Opposite-Spin Energy  =      -1.7657439254083249 [Eh]
	 SCS Correlation Energy    =      -1.9243945314466668 [Eh]
	 SCS Total Energy          =    -495.5896841771888148 [Eh]
	-----------------------------------------------------------

  Dipole Moment: [D]
     X:     0.4655      Y:     0.2645      Z:    -0.0790     Total:     0.5412

*** Psi4 exiting successfully. Buy a developer a beer!
