                               Psi4 1.4a3.dev225

  ==> Input File <==

--------------------------------------------------------------------------
#psi4
#
memory 32 gb

molecule  {
0 1
  O        2.4005690    -0.7555910     0.0000930
  O       -3.4134850     0.7931250     0.0001120
  O        1.6118980     1.3746640    -0.0001560
  O       -2.6294380    -1.3322590    -0.0001410
  C        0.0590550    -0.4958080     0.0000270
  C       -1.0635090     0.5281750     0.0000410
  C        1.4119940     0.1700650    -0.0000220
  C       -2.4159880    -0.1313140    -0.0000070
  C        3.7306770    -0.1974070     0.0000330
  H       -0.0086930    -1.1555200     0.8707660
  H       -0.0087430    -1.1555360    -0.8706970
  H       -0.9969410     1.1888870    -0.8701370
  H       -0.9969750     1.1888400     0.8702580
  H        4.3972900    -1.0573420     0.0001120
  H        3.8858800     0.4149390     0.8894490
  H        3.9000980     0.4708854    -0.9710404
  H       -4.2474240     0.2791820     0.0000590
units angstrom
no_reorient  #important for SAPT in psi4, default
symmetry c1  #important for SAPT in psi4, default
}

set PROPERTIES_ORIGIN ["COM"]
properties('MP2/aug-cc-pvtz', properties = ['dipole'])
--------------------------------------------------------------------------

    Molecular point group: c1
  Charge       = 0
  Multiplicity = 1
  Basis Set: AUG-CC-PVTZ
    Blend: AUG-CC-PVTZ
  Basis Set: (AUG-CC-PVTZ AUX)
    Blend: AUG-CC-PVTZ-JKFIT

    Orbital Energies [Eh]
    ---------------------

    Doubly Occupied:

       1A    -20.621350     2A    -20.613572     3A    -20.559479
       4A    -20.554802     5A    -11.397729     6A    -11.390570
       7A    -11.301681     8A    -11.258647     9A    -11.256848
      10A     -1.466223    11A     -1.462558    12A     -1.363857
      13A     -1.361842    14A     -1.097530    15A     -0.996022
      16A     -0.928020    17A     -0.813070    18A     -0.770312
      19A     -0.725568    20A     -0.709040    21A     -0.688487
      22A     -0.678299    23A     -0.668528    24A     -0.659100
      25A     -0.609096    26A     -0.601879    27A     -0.566904
      28A     -0.545778    29A     -0.544710    30A     -0.530512
      31A     -0.509329    32A     -0.489475    33A     -0.467661
      34A     -0.464274    35A     -0.457477

  @DF-RHF Final Energy:  -493.66962182784368

   => Energetics <=

    Nuclear Repulsion Energy =            444.8833825264701431
    One-Electron Energy =               -1558.8455471359222884
    Two-Electron Energy =                 620.2925427816085175
    Total Energy =                       -493.6696218278436845
  Basis Set: (AUG-CC-PVTZ AUX)
    Blend: AUG-CC-PVTZ-RI
    Molecular point group: c1

    Geometry (in Angstrom), charge = 0, multiplicity = 1:

       Center              X                  Y                   Z               Mass
    ------------   -----------------  -----------------  -----------------  -----------------
         O            2.444792501429    -0.755127883565     0.000717599756    15.994914619570
         O           -3.369261498571     0.793588116435     0.000736599756    15.994914619570
         O            1.656121501429     1.375127116435     0.000468599756    15.994914619570
         O           -2.585214498571    -1.331795883565     0.000483599756    15.994914619570
         C            0.103278501429    -0.495344883565     0.000651599756    12.000000000000
         C           -1.019285498571     0.528638116435     0.000665599756    12.000000000000
         C            1.456217501429     0.170528116435     0.000602599756    12.000000000000
         C           -2.371764498571    -0.130850883565     0.000617599756    12.000000000000
         C            3.774900501429    -0.196943883565     0.000657599756    12.000000000000
         H            0.035530501429    -1.155056883565     0.871390599756     1.007825032230
         H            0.035480501429    -1.155072883565    -0.870072400244     1.007825032230
         H           -0.952717498571     1.189350116435    -0.869512400244     1.007825032230
         H           -0.952751498571     1.189303116435     0.870882599756     1.007825032230
         H            4.441513501429    -1.056878883565     0.000736599756     1.007825032230
         H            3.930103501429     0.415402116435     0.890073599756     1.007825032230
         H            3.944321501429     0.471348516435    -0.970415800244     1.007825032230
         H           -4.203200498571     0.279645116435     0.000683599756     1.007825032230

  Basis Set: AUG-CC-PVTZ
    Blend: AUG-CC-PVTZ
  Basis Set: (AUG-CC-PVTZ AUX)
    Blend: AUG-CC-PVTZ-JKFIT
	 Reference Energy          =    -493.6696218278436845 [Eh]
	 Singles Energy            =      -0.0000000000000000 [Eh]
	 Same-Spin Energy          =      -0.4751905594933364 [Eh]
	 Opposite-Spin Energy      =      -1.4707492288279822 [Eh]
	 Correlation Energy        =      -1.9459397883213185 [Eh]
	 Total Energy              =    -495.6155616161649959 [Eh]

	 ================> DF-SCS-MP2 Energies <==================
	-----------------------------------------------------------
	 SCS Same-Spin Scale       =       0.3333333333333333 [-]
	 SCS Opposite-Spin Scale   =       1.2000000000000000 [-]
	 SCS Same-Spin Energy      =      -0.1583968531644455 [Eh]
	 SCS Opposite-Spin Energy  =      -1.7648990745935786 [Eh]
	 SCS Correlation Energy    =      -1.9232959277580242 [Eh]
	 SCS Total Energy          =    -495.5929177556017180 [Eh]
	-----------------------------------------------------------

  Dipole Moment: [D]
     X:     0.6507      Y:    -0.1421      Z:     0.0368     Total:     0.6670

*** Psi4 exiting successfully. Buy a developer a beer!
