                               Psi4 1.4a3.dev225

  ==> Input File <==

--------------------------------------------------------------------------
#psi4
#
memory 32 gb

molecule  {
0 1
  O        2.4005690    -0.7555910     0.0000930
  O       -3.4134850     0.7931250     0.0001120
  O        1.6118980     1.3746640    -0.0001560
  O       -2.6294380    -1.3322590    -0.0001410
  C        0.0590550    -0.4958080     0.0000270
  C       -1.0635090     0.5281750     0.0000410
  C        1.4119940     0.1700650    -0.0000220
  C       -2.4159880    -0.1313140    -0.0000070
  C        3.7306770    -0.1974070     0.0000330
  H       -0.0086930    -1.1555200     0.8707660
  H       -0.0087430    -1.1555360    -0.8706970
  H       -0.9969410     1.1888870    -0.8701370
  H       -0.9969750     1.1888400     0.8702580
  H        4.3972900    -1.0573420     0.0001120
  H        3.8858800     0.4149390     0.8894490
  H        3.8858720     0.4147700    -0.8895010
  H       -4.1622924     0.3316472     0.0000644
units angstrom
no_reorient  #important for SAPT in psi4, default
symmetry c1  #important for SAPT in psi4, default
}

set PROPERTIES_ORIGIN ["COM"]
properties('MP2/aug-cc-pvtz', properties = ['dipole'])
--------------------------------------------------------------------------

    Molecular point group: c1
  Charge       = 0
  Multiplicity = 1
  Basis Set: AUG-CC-PVTZ
    Blend: AUG-CC-PVTZ
  Basis Set: (AUG-CC-PVTZ AUX)
    Blend: AUG-CC-PVTZ-JKFIT

    Orbital Energies [Eh]
    ---------------------

    Doubly Occupied:

       1A    -20.613892     2A    -20.612234     3A    -20.561399
       4A    -20.554915     5A    -11.399588     6A    -11.390651
       7A    -11.290745     8A    -11.259023     9A    -11.257058
      10A     -1.484013    11A     -1.462247    12A     -1.373939
      13A     -1.361768    14A     -1.098960    15A     -1.001380
      16A     -0.937070    17A     -0.830272    18A     -0.773903
      19A     -0.729182    20A     -0.716149    21A     -0.690513
      22A     -0.679880    23A     -0.669674    24A     -0.663254
      25A     -0.613396    26A     -0.606551    27A     -0.569835
      28A     -0.550551    29A     -0.545750    30A     -0.535348
      31A     -0.511645    32A     -0.492261    33A     -0.470347
      34A     -0.465647    35A     -0.458018

  @DF-RHF Final Energy:  -493.67192372620514

   => Energetics <=

    Nuclear Repulsion Energy =            445.9436248153075439
    One-Electron Energy =               -1560.7689814182394912
    Two-Electron Energy =                 621.1534328767269244
    Total Energy =                       -493.6719237262051365
  Basis Set: (AUG-CC-PVTZ AUX)
    Blend: AUG-CC-PVTZ-RI
    Molecular point group: c1

    Geometry (in Angstrom), charge = 0, multiplicity = 1:

       Center              X                  Y                   Z               Mass
    ------------   -----------------  -----------------  -----------------  -----------------
         O            2.444251307729    -0.755100023068     0.000095201356    15.994914619570
         O           -3.369802692271     0.793615976932     0.000114201356    15.994914619570
         O            1.655580307729     1.375154976932    -0.000153798644    15.994914619570
         O           -2.585755692271    -1.331768023068    -0.000138798644    15.994914619570
         C            0.102737307729    -0.495317023068     0.000029201356    12.000000000000
         C           -1.019826692271     0.528665976932     0.000043201356    12.000000000000
         C            1.455676307729     0.170555976932    -0.000019798644    12.000000000000
         C           -2.372305692271    -0.130823023068    -0.000004798644    12.000000000000
         C            3.774359307729    -0.196916023068     0.000035201356    12.000000000000
         H            0.034989307729    -1.155029023068     0.870768201356     1.007825032230
         H            0.034939307729    -1.155045023068    -0.870694798644     1.007825032230
         H           -0.953258692271     1.189377976932    -0.870134798644     1.007825032230
         H           -0.953292692271     1.189330976932     0.870260201356     1.007825032230
         H            4.440972307729    -1.056851023068     0.000114201356     1.007825032230
         H            3.929562307729     0.415429976932     0.889451201356     1.007825032230
         H            3.929554307729     0.415260976932    -0.889498798644     1.007825032230
         H           -4.118610092271     0.332138176932     0.000066601356     1.007825032230

  Basis Set: AUG-CC-PVTZ
    Blend: AUG-CC-PVTZ
  Basis Set: (AUG-CC-PVTZ AUX)
    Blend: AUG-CC-PVTZ-JKFIT
	 Reference Energy          =    -493.6719237262051365 [Eh]
	 Singles Energy            =      -0.0000000000000000 [Eh]
	 Same-Spin Energy          =      -0.4738003023840386 [Eh]
	 Opposite-Spin Energy      =      -1.4670707187948742 [Eh]
	 Correlation Energy        =      -1.9408710211789129 [Eh]
	 Total Energy              =    -495.6127947473840436 [Eh]

	 ================> DF-SCS-MP2 Energies <==================
	-----------------------------------------------------------
	 SCS Same-Spin Scale       =       0.3333333333333333 [-]
	 SCS Opposite-Spin Scale   =       1.2000000000000000 [-]
	 SCS Same-Spin Energy      =      -0.1579334341280129 [Eh]
	 SCS Opposite-Spin Energy  =      -1.7604848625538490 [Eh]
	 SCS Correlation Energy    =      -1.9184182966818617 [Eh]
	 SCS Total Energy          =    -495.5903420228870004 [Eh]
	-----------------------------------------------------------

  Dipole Moment: [D]
     X:     0.8168      Y:    -0.0998      Z:     0.0003     Total:     0.8229

*** Psi4 exiting successfully. Buy a developer a beer!
