                               Psi4 1.4a3.dev225

  ==> Input File <==

--------------------------------------------------------------------------
#psi4
#
memory 32 gb

molecule  {
0 1
  O        2.4005690    -0.7555910     0.0000930
  O       -3.4134850     0.7931250     0.0001120
  O        1.6118980     1.3746640    -0.0001560
  O       -2.6294380    -1.3322590    -0.0001410
  C        0.0590550    -0.4958080     0.0000270
  C       -1.0635090     0.5281750     0.0000410
  C        1.4119940     0.1700650    -0.0000220
  C       -2.4159880    -0.1313140    -0.0000070
  C        3.6845722    -0.2167550     0.0000351
  H       -0.0086930    -1.1555200     0.8707660
  H       -0.0087430    -1.1555360    -0.8706970
  H       -0.9969410     1.1888870    -0.8701370
  H       -0.9969750     1.1888400     0.8702580
  H        4.3972900    -1.0573420     0.0001120
  H        3.8858800     0.4149390     0.8894490
  H        3.8858720     0.4147700    -0.8895010
  H       -4.2474240     0.2791820     0.0000590
units angstrom
no_reorient  #important for SAPT in psi4, default
symmetry c1  #important for SAPT in psi4, default
}

set PROPERTIES_ORIGIN ["COM"]
properties('MP2/aug-cc-pvtz', properties = ['dipole'])
--------------------------------------------------------------------------

    Molecular point group: c1
  Charge       = 0
  Multiplicity = 1
  Basis Set: AUG-CC-PVTZ
    Blend: AUG-CC-PVTZ
  Basis Set: (AUG-CC-PVTZ AUX)
    Blend: AUG-CC-PVTZ-JKFIT

    Orbital Energies [Eh]
    ---------------------

    Doubly Occupied:

       1A    -20.622043     2A    -20.616477     3A    -20.560272
       4A    -20.557702     5A    -11.398576     6A    -11.393315
       7A    -11.289978     8A    -11.259798     9A    -11.258426
      10A     -1.474305    11A     -1.466890    12A     -1.369138
      13A     -1.364573    14A     -1.099605    15A     -1.001684
      16A     -0.929697    17A     -0.815459    18A     -0.777503
      19A     -0.728322    20A     -0.710028    21A     -0.694094
      22A     -0.685718    23A     -0.671996    24A     -0.664057
      25A     -0.611346    26A     -0.604233    27A     -0.567665
      28A     -0.547508    29A     -0.545181    30A     -0.528404
      31A     -0.510760    32A     -0.490198    33A     -0.468114
      34A     -0.465707    35A     -0.459776

  @DF-RHF Final Energy:  -493.67492974934407

   => Energetics <=

    Nuclear Repulsion Energy =            446.2327025996466432
    One-Electron Energy =               -1561.3981738442644200
    Two-Electron Energy =                 621.4905414952736464
    Total Energy =                       -493.6749297493440736
  Basis Set: (AUG-CC-PVTZ AUX)
    Blend: AUG-CC-PVTZ-RI
    Molecular point group: c1

    Geometry (in Angstrom), charge = 0, multiplicity = 1:

       Center              X                  Y                   Z               Mass
    ------------   -----------------  -----------------  -----------------  -----------------
         O            2.449091086779    -0.752941231295     0.000095051724    15.994914619570
         O           -3.364962913221     0.795774768705     0.000114051724    15.994914619570
         O            1.660420086779     1.377313768705    -0.000153948276    15.994914619570
         O           -2.580915913221    -1.329609231295    -0.000138948276    15.994914619570
         C            0.107577086779    -0.493158231295     0.000029051724    12.000000000000
         C           -1.014986913221     0.530824768705     0.000043051724    12.000000000000
         C            1.460516086779     0.172714768705    -0.000019948276    12.000000000000
         C           -2.367465913221    -0.128664231295    -0.000004948276    12.000000000000
         C            3.733094286779    -0.214105231295     0.000037151724    12.000000000000
         H            0.039829086779    -1.152870231295     0.870768051724     1.007825032230
         H            0.039779086779    -1.152886231295    -0.870694948276     1.007825032230
         H           -0.948418913221     1.191536768705    -0.870134948276     1.007825032230
         H           -0.948452913221     1.191489768705     0.870260051724     1.007825032230
         H            4.445812086779    -1.054692231295     0.000114051724     1.007825032230
         H            3.934402086779     0.417588768705     0.889451051724     1.007825032230
         H            3.934394086779     0.417419768705    -0.889498948276     1.007825032230
         H           -4.198901913221     0.281831768705     0.000061051724     1.007825032230

  Basis Set: AUG-CC-PVTZ
    Blend: AUG-CC-PVTZ
  Basis Set: (AUG-CC-PVTZ AUX)
    Blend: AUG-CC-PVTZ-JKFIT
	 Reference Energy          =    -493.6749297493440736 [Eh]
	 Singles Energy            =      -0.0000000000000000 [Eh]
	 Same-Spin Energy          =      -0.4751434393910620 [Eh]
	 Opposite-Spin Energy      =      -1.4694817289153703 [Eh]
	 Correlation Energy        =      -1.9446251683064324 [Eh]
	 Total Energy              =    -495.6195549176505324 [Eh]

	 ================> DF-SCS-MP2 Energies <==================
	-----------------------------------------------------------
	 SCS Same-Spin Scale       =       0.3333333333333333 [-]
	 SCS Opposite-Spin Scale   =       1.2000000000000000 [-]
	 SCS Same-Spin Energy      =      -0.1583811464636873 [Eh]
	 SCS Opposite-Spin Energy  =      -1.7633780746984444 [Eh]
	 SCS Correlation Energy    =      -1.9217592211621317 [Eh]
	 SCS Total Energy          =    -495.5966889705061931 [Eh]
	-----------------------------------------------------------

  Dipole Moment: [D]
     X:     0.4875      Y:    -0.1497      Z:     0.0003     Total:     0.5100

*** Psi4 exiting successfully. Buy a developer a beer!
