                               Psi4 1.4a3.dev225

  ==> Input File <==

--------------------------------------------------------------------------
#psi4
#
memory 32 gb

molecule  {
0 1
  O        2.4005690    -0.7555910     0.0000930
  O       -3.4134850     0.7931250     0.0001120
  O        1.6118980     1.3746640    -0.0001560
  O       -2.6294380    -1.3322590    -0.0001410
  C        0.0590550    -0.4958080     0.0000270
  C       -1.0635090     0.5281750     0.0000410
  C        1.4119940     0.1700650    -0.0000220
  C       -2.4461008    -0.0507419    -0.1319448
  C        3.7306770    -0.1974070     0.0000330
  H       -0.0086930    -1.1555200     0.8707660
  H       -0.0087430    -1.1555360    -0.8706970
  H       -0.9969410     1.1888870    -0.8701370
  H       -0.9969750     1.1888400     0.8702580
  H        4.3972900    -1.0573420     0.0001120
  H        3.8858800     0.4149390     0.8894490
  H        3.8858720     0.4147700    -0.8895010
  H       -4.2474240     0.2791820     0.0000590
units angstrom
no_reorient  #important for SAPT in psi4, default
symmetry c1  #important for SAPT in psi4, default
}

set PROPERTIES_ORIGIN ["COM"]
properties('MP2/aug-cc-pvtz', properties = ['dipole'])
--------------------------------------------------------------------------

    Molecular point group: c1
  Charge       = 0
  Multiplicity = 1
  Basis Set: AUG-CC-PVTZ
    Blend: AUG-CC-PVTZ
  Basis Set: (AUG-CC-PVTZ AUX)
    Blend: AUG-CC-PVTZ-JKFIT

    Orbital Energies [Eh]
    ---------------------

    Doubly Occupied:

       1A    -20.642566     2A    -20.611298     3A    -20.553682
       4A    -20.543720     5A    -11.403917     6A    -11.389673
       7A    -11.290004     8A    -11.260308     9A    -11.255875
      10A     -1.494476    11A     -1.461237    12A     -1.360723
      13A     -1.320640    14A     -1.095635    15A     -1.000632
      16A     -0.937349    17A     -0.837536    18A     -0.774107
      19A     -0.721524    20A     -0.716309    21A     -0.690538
      22A     -0.677851    23A     -0.668946    24A     -0.666301
      25A     -0.619293    26A     -0.592209    27A     -0.556757
      28A     -0.548735    29A     -0.544318    30A     -0.533200
      31A     -0.510404    32A     -0.469894    33A     -0.461289
      34A     -0.459601    35A     -0.448251

  @DF-RHF Final Energy:  -493.65288438166101

   => Energetics <=

    Nuclear Repulsion Energy =            444.7677946671559539
    One-Electron Energy =               -1558.6037656721246094
    Two-Electron Energy =                 620.1830866233075312
    Total Energy =                       -493.6528843816610106
  Basis Set: (AUG-CC-PVTZ AUX)
    Blend: AUG-CC-PVTZ-RI
    Molecular point group: c1

    Geometry (in Angstrom), charge = 0, multiplicity = 1:

       Center              X                  Y                   Z               Mass
    ------------   -----------------  -----------------  -----------------  -----------------
         O            2.447637733876    -0.762021969625     0.012085749362    15.994914619570
         O           -3.366416266124     0.786694030375     0.012104749362    15.994914619570
         O            1.658966733876     1.368233030375     0.011836749362    15.994914619570
         O           -2.582369266124    -1.338689969625     0.011851749362    15.994914619570
         C            0.106123733876    -0.502238969625     0.012019749362    12.000000000000
         C           -1.016440266124     0.521744030375     0.012033749362    12.000000000000
         C            1.459062733876     0.163634030375     0.011970749362    12.000000000000
         C           -2.399032066124    -0.057172869625    -0.119952050638    12.000000000000
         C            3.777745733876    -0.203837969625     0.012025749362    12.000000000000
         H            0.038375733876    -1.161950969625     0.882758749362     1.007825032230
         H            0.038325733876    -1.161966969625    -0.858704250638     1.007825032230
         H           -0.949872266124     1.182456030375    -0.858144250638     1.007825032230
         H           -0.949906266124     1.182409030375     0.882250749362     1.007825032230
         H            4.444358733876    -1.063772969625     0.012104749362     1.007825032230
         H            3.932948733876     0.408508030375     0.901441749362     1.007825032230
         H            3.932940733876     0.408339030375    -0.877508250638     1.007825032230
         H           -4.200355266124     0.272751030375     0.012051749362     1.007825032230

  Basis Set: AUG-CC-PVTZ
    Blend: AUG-CC-PVTZ
  Basis Set: (AUG-CC-PVTZ AUX)
    Blend: AUG-CC-PVTZ-JKFIT
	 Reference Energy          =    -493.6528843816610106 [Eh]
	 Singles Energy            =      -0.0000000000000000 [Eh]
	 Same-Spin Energy          =      -0.4766400586031755 [Eh]
	 Opposite-Spin Energy      =      -1.4728775058432018 [Eh]
	 Correlation Energy        =      -1.9495175644463774 [Eh]
	 Total Energy              =    -495.6024019461073635 [Eh]

	 ================> DF-SCS-MP2 Energies <==================
	-----------------------------------------------------------
	 SCS Same-Spin Scale       =       0.3333333333333333 [-]
	 SCS Opposite-Spin Scale   =       1.2000000000000000 [-]
	 SCS Same-Spin Energy      =      -0.1588800195343918 [Eh]
	 SCS Opposite-Spin Energy  =      -1.7674530070118422 [Eh]
	 SCS Correlation Energy    =      -1.9263330265462340 [Eh]
	 SCS Total Energy          =    -495.5792174082072279 [Eh]
	-----------------------------------------------------------

  Dipole Moment: [D]
     X:     0.3771      Y:     0.4463      Z:    -0.1092     Total:     0.5944

*** Psi4 exiting successfully. Buy a developer a beer!
