                               Psi4 1.4a3.dev225

  ==> Input File <==

--------------------------------------------------------------------------
#psi4
#
memory 32 gb

molecule  {
0 1
  O        2.4005690    -0.7555910     0.0000930
  O       -3.4134850     0.7931250     0.0001120
  O        1.6118980     1.3746640    -0.0001560
  O       -2.6294380    -1.3322590    -0.0001410
  C        0.0590550    -0.4958080     0.0000270
  C       -1.0635090     0.5281750     0.0000410
  C        1.4087198     0.1503348    -0.0000198
  C       -2.4159880    -0.1313140    -0.0000070
  C        3.7306770    -0.1974070     0.0000330
  H       -0.0086930    -1.1555200     0.8707660
  H       -0.0087430    -1.1555360    -0.8706970
  H       -0.9969410     1.1888870    -0.8701370
  H       -0.9969750     1.1888400     0.8702580
  H        4.3972900    -1.0573420     0.0001120
  H        3.8858800     0.4149390     0.8894490
  H        3.8858720     0.4147700    -0.8895010
  H       -4.2474240     0.2791820     0.0000590
units angstrom
no_reorient  #important for SAPT in psi4, default
symmetry c1  #important for SAPT in psi4, default
}

set PROPERTIES_ORIGIN ["COM"]
properties('MP2/aug-cc-pvtz', properties = ['dipole'])
--------------------------------------------------------------------------

    Molecular point group: c1
  Charge       = 0
  Multiplicity = 1
  Basis Set: AUG-CC-PVTZ
    Blend: AUG-CC-PVTZ
  Basis Set: (AUG-CC-PVTZ AUX)
    Blend: AUG-CC-PVTZ-JKFIT

    Orbital Energies [Eh]
    ---------------------

    Doubly Occupied:

       1A    -20.621406     2A    -20.614958     3A    -20.559539
       4A    -20.550558     5A    -11.397838     6A    -11.391598
       7A    -11.292043     8A    -11.258851     9A    -11.257074
      10A     -1.466281    11A     -1.462647    12A     -1.363913
      13A     -1.351107    14A     -1.099018    15A     -1.002183
      16A     -0.934476    17A     -0.815203    18A     -0.773392
      19A     -0.725356    20A     -0.708915    21A     -0.691066
      22A     -0.676001    23A     -0.668947    24A     -0.662433
      25A     -0.611644    26A     -0.600936    27A     -0.566298
      28A     -0.548015    29A     -0.546066    30A     -0.534133
      31A     -0.509772    32A     -0.489618    33A     -0.466793
      34A     -0.464680    35A     -0.455880

  @DF-RHF Final Energy:  -493.67456866384191

   => Energetics <=

    Nuclear Repulsion Energy =            445.2341655429222556
    One-Electron Energy =               -1559.5401948528151479
    Two-Electron Energy =                 620.6314606460509822
    Total Energy =                       -493.6745686638419102
  Basis Set: (AUG-CC-PVTZ AUX)
    Blend: AUG-CC-PVTZ-RI
    Molecular point group: c1

    Geometry (in Angstrom), charge = 0, multiplicity = 1:

       Center              X                  Y                   Z               Mass
    ------------   -----------------  -----------------  -----------------  -----------------
         O            2.445198642004    -0.752906496961     0.000095042636    15.994914619570
         O           -3.368855357996     0.795809503039     0.000114042636    15.994914619570
         O            1.656527642004     1.377348503039    -0.000153957364    15.994914619570
         O           -2.584808357996    -1.329574496961    -0.000138957364    15.994914619570
         C            0.103684642004    -0.493123496961     0.000029042636    12.000000000000
         C           -1.018879357996     0.530859503039     0.000043042636    12.000000000000
         C            1.453349442004     0.153019303039    -0.000017757364    12.000000000000
         C           -2.371358357996    -0.128629496961    -0.000004957364    12.000000000000
         C            3.775306642004    -0.194722496961     0.000035042636    12.000000000000
         H            0.035936642004    -1.152835496961     0.870768042636     1.007825032230
         H            0.035886642004    -1.152851496961    -0.870694957364     1.007825032230
         H           -0.952311357996     1.191571503039    -0.870134957364     1.007825032230
         H           -0.952345357996     1.191524503039     0.870260042636     1.007825032230
         H            4.441919642004    -1.054657496961     0.000114042636     1.007825032230
         H            3.930509642004     0.417623503039     0.889451042636     1.007825032230
         H            3.930501642004     0.417454503039    -0.889498957364     1.007825032230
         H           -4.202794357996     0.281866503039     0.000061042636     1.007825032230

  Basis Set: AUG-CC-PVTZ
    Blend: AUG-CC-PVTZ
  Basis Set: (AUG-CC-PVTZ AUX)
    Blend: AUG-CC-PVTZ-JKFIT
	 Reference Energy          =    -493.6745686638419102 [Eh]
	 Singles Energy            =      -0.0000000000000000 [Eh]
	 Same-Spin Energy          =      -0.4754214710214478 [Eh]
	 Opposite-Spin Energy      =      -1.4705037510953103 [Eh]
	 Correlation Energy        =      -1.9459252221167582 [Eh]
	 Total Energy              =    -495.6204938859586946 [Eh]

	 ================> DF-SCS-MP2 Energies <==================
	-----------------------------------------------------------
	 SCS Same-Spin Scale       =       0.3333333333333333 [-]
	 SCS Opposite-Spin Scale   =       1.2000000000000000 [-]
	 SCS Same-Spin Energy      =      -0.1584738236738159 [Eh]
	 SCS Opposite-Spin Energy  =      -1.7646045013143723 [Eh]
	 SCS Correlation Energy    =      -1.9230783249881882 [Eh]
	 SCS Total Energy          =    -495.5976469888300926 [Eh]
	-----------------------------------------------------------

  Dipole Moment: [D]
     X:     0.7202      Y:    -0.2528      Z:     0.0003     Total:     0.7632

*** Psi4 exiting successfully. Buy a developer a beer!
