                               Psi4 1.4a3.dev225

  ==> Input File <==

--------------------------------------------------------------------------
#psi4
#
memory 32 gb

molecule  {
0 1
  O        2.4005690    -0.7555910     0.0000930
  O       -3.4134850     0.7931250     0.0001120
  O        1.6118980     1.3746640    -0.0001560
  O       -2.6294380    -1.3322590    -0.0001410
  C        0.0590550    -0.4958080     0.0000270
  C       -1.0635090     0.5281750     0.0000410
  C        1.4119940     0.1700650    -0.0000220
  C       -2.4159880    -0.1313140    -0.0000070
  C        3.5462577    -0.2747991     0.0000413
  H       -0.0086930    -1.1555200     0.8707660
  H       -0.0087430    -1.1555360    -0.8706970
  H       -0.9969410     1.1888870    -0.8701370
  H       -0.9969750     1.1888400     0.8702580
  H        4.3972900    -1.0573420     0.0001120
  H        3.8858800     0.4149390     0.8894490
  H        3.8858720     0.4147700    -0.8895010
  H       -4.2474240     0.2791820     0.0000590
units angstrom
no_reorient  #important for SAPT in psi4, default
symmetry c1  #important for SAPT in psi4, default
}

set PROPERTIES_ORIGIN ["COM"]
properties('MP2/aug-cc-pvtz', properties = ['dipole'])
--------------------------------------------------------------------------

    Molecular point group: c1
  Charge       = 0
  Multiplicity = 1
  Basis Set: AUG-CC-PVTZ
    Blend: AUG-CC-PVTZ
  Basis Set: (AUG-CC-PVTZ AUX)
    Blend: AUG-CC-PVTZ-JKFIT

    Orbital Energies [Eh]
    ---------------------

    Doubly Occupied:

       1A    -20.629940     2A    -20.624721     3A    -20.568885
       4A    -20.563339     5A    -11.403537     6A    -11.401849
       7A    -11.295020     8A    -11.264952     9A    -11.263959
      10A     -1.529756    11A     -1.469736    12A     -1.391800
      13A     -1.367513    14A     -1.107597    15A     -1.016792
      16A     -0.927239    17A     -0.817316    18A     -0.793850
      19A     -0.737681    20A     -0.717436    21A     -0.716511
      22A     -0.710585    23A     -0.681055    24A     -0.672982
      25A     -0.616169    26A     -0.615872    27A     -0.576353
      28A     -0.555441    29A     -0.541493    30A     -0.512525
      31A     -0.492890    32A     -0.491371    33A     -0.470971
      34A     -0.465551    35A     -0.442852

  @DF-RHF Final Energy:  -493.63400918869900

   => Energetics <=

    Nuclear Repulsion Energy =            449.3715271079764761
    One-Electron Energy =               -1567.0999935261877454
    Two-Electron Energy =                 624.0944572295121588
    Total Energy =                       -493.6340091886989967
  Basis Set: (AUG-CC-PVTZ AUX)
    Blend: AUG-CC-PVTZ-RI
    Molecular point group: c1

    Geometry (in Angstrom), charge = 0, multiplicity = 1:

       Center              X                  Y                   Z               Mass
    ------------   -----------------  -----------------  -----------------  -----------------
         O            2.461661108042    -0.747666183695     0.000094488268    15.994914619570
         O           -3.352392891958     0.801049816305     0.000113488268    15.994914619570
         O            1.672990108042     1.382588816305    -0.000154511732    15.994914619570
         O           -2.568345891958    -1.324334183695    -0.000139511732    15.994914619570
         C            0.120147108042    -0.487883183695     0.000028488268    12.000000000000
         C           -1.002416891958     0.536099816305     0.000042488268    12.000000000000
         C            1.473086108042     0.177989816305    -0.000020511732    12.000000000000
         C           -2.354895891958    -0.123389183695    -0.000005511732    12.000000000000
         C            3.607349808042    -0.266874283695     0.000042788268    12.000000000000
         H            0.052399108042    -1.147595183695     0.870767488268     1.007825032230
         H            0.052349108042    -1.147611183695    -0.870695511732     1.007825032230
         H           -0.935848891958     1.196811816305    -0.870135511732     1.007825032230
         H           -0.935882891958     1.196764816305     0.870259488268     1.007825032230
         H            4.458382108042    -1.049417183695     0.000113488268     1.007825032230
         H            3.946972108042     0.422863816305     0.889450488268     1.007825032230
         H            3.946964108042     0.422694816305    -0.889499511732     1.007825032230
         H           -4.186331891958     0.287106816305     0.000060488268     1.007825032230

  Basis Set: AUG-CC-PVTZ
    Blend: AUG-CC-PVTZ
  Basis Set: (AUG-CC-PVTZ AUX)
    Blend: AUG-CC-PVTZ-JKFIT
	 Reference Energy          =    -493.6340091886989967 [Eh]
	 Singles Energy            =      -0.0000000000000000 [Eh]
	 Same-Spin Energy          =      -0.4763177925075820 [Eh]
	 Opposite-Spin Energy      =      -1.4699082400744365 [Eh]
	 Correlation Energy        =      -1.9462260325820187 [Eh]
	 Total Energy              =    -495.5802352212810433 [Eh]

	 ================> DF-SCS-MP2 Energies <==================
	-----------------------------------------------------------
	 SCS Same-Spin Scale       =       0.3333333333333333 [-]
	 SCS Opposite-Spin Scale   =       1.2000000000000000 [-]
	 SCS Same-Spin Energy      =      -0.1587725975025273 [Eh]
	 SCS Opposite-Spin Energy  =      -1.7638898880893239 [Eh]
	 SCS Correlation Energy    =      -1.9226624855918513 [Eh]
	 SCS Total Energy          =    -495.5566716742908397 [Eh]
	-----------------------------------------------------------

  Dipole Moment: [D]
     X:    -0.2457      Y:    -0.2307      Z:     0.0003     Total:     0.3371

*** Psi4 exiting successfully. Buy a developer a beer!
