                               Psi4 1.4a3.dev225

  ==> Input File <==

--------------------------------------------------------------------------
#psi4
#
memory 32 gb

molecule  {
0 1
  O        2.4005690    -0.7555910     0.0000930
  O       -3.4134850     0.7931250     0.0001120
  O        1.6118980     1.3746640    -0.0001560
  O       -2.6294380    -1.3322590    -0.0001410
  C        0.0590550    -0.4958080     0.0000270
  C       -1.0635090     0.5281750     0.0000410
  C        1.4119940     0.1700650    -0.0000220
  C       -2.4339647    -0.1400797    -0.0000076
  C        3.7306770    -0.1974070     0.0000330
  H       -0.0086930    -1.1555200     0.8707660
  H       -0.0087430    -1.1555360    -0.8706970
  H       -0.9969410     1.1888870    -0.8701370
  H       -0.9969750     1.1888400     0.8702580
  H        4.3972900    -1.0573420     0.0001120
  H        3.8858800     0.4149390     0.8894490
  H        3.8858720     0.4147700    -0.8895010
  H       -4.2474240     0.2791820     0.0000590
units angstrom
no_reorient  #important for SAPT in psi4, default
symmetry c1  #important for SAPT in psi4, default
}

set PROPERTIES_ORIGIN ["COM"]
properties('MP2/aug-cc-pvtz', properties = ['dipole'])
--------------------------------------------------------------------------

    Molecular point group: c1
  Charge       = 0
  Multiplicity = 1
  Basis Set: AUG-CC-PVTZ
    Blend: AUG-CC-PVTZ
  Basis Set: (AUG-CC-PVTZ AUX)
    Blend: AUG-CC-PVTZ-JKFIT

    Orbital Energies [Eh]
    ---------------------

    Doubly Occupied:

       1A    -20.623083     2A    -20.611219     3A    -20.560300
       4A    -20.553668     5A    -11.396101     6A    -11.389375
       7A    -11.289979     8A    -11.257174     9A    -11.255252
      10A     -1.471566    11A     -1.461146    12A     -1.371339
      13A     -1.360597    14A     -1.093810    15A     -0.996114
      16A     -0.929434    17A     -0.814903    18A     -0.771592
      19A     -0.724123    20A     -0.712240    21A     -0.688837
      22A     -0.678616    23A     -0.669186    24A     -0.661693
      25A     -0.612668    26A     -0.602493    27A     -0.566954
      28A     -0.548748    29A     -0.542837    30A     -0.534242
      31A     -0.509613    32A     -0.493510    33A     -0.469329
      34A     -0.462406    35A     -0.456799

  @DF-RHF Final Energy:  -493.67734381411685

   => Energetics <=

    Nuclear Repulsion Energy =            445.2642867058469847
    One-Electron Energy =               -1559.6013667906647697
    Two-Electron Energy =                 620.6597362707010461
    Total Energy =                       -493.6773438141168526
  Basis Set: (AUG-CC-PVTZ AUX)
    Blend: AUG-CC-PVTZ-RI
    Molecular point group: c1

    Geometry (in Angstrom), charge = 0, multiplicity = 1:

       Center              X                  Y                   Z               Mass
    ------------   -----------------  -----------------  -----------------  -----------------
         O            2.446534805152    -0.753902950681     0.000095297100    15.994914619570
         O           -3.367519194848     0.794813049319     0.000114297100    15.994914619570
         O            1.657863805152     1.376352049319    -0.000153702900    15.994914619570
         O           -2.583472194848    -1.330570950681    -0.000138702900    15.994914619570
         C            0.105020805152    -0.494119950681     0.000029297100    12.000000000000
         C           -1.017543194848     0.529863049319     0.000043297100    12.000000000000
         C            1.457959805152     0.171753049319    -0.000019702900    12.000000000000
         C           -2.387998894848    -0.138391650681    -0.000005302900    12.000000000000
         C            3.776642805152    -0.195718950681     0.000035297100    12.000000000000
         H            0.037272805152    -1.153831950681     0.870768297100     1.007825032230
         H            0.037222805152    -1.153847950681    -0.870694702900     1.007825032230
         H           -0.950975194848     1.190575049319    -0.870134702900     1.007825032230
         H           -0.951009194848     1.190528049319     0.870260297100     1.007825032230
         H            4.443255805152    -1.055653950681     0.000114297100     1.007825032230
         H            3.931845805152     0.416627049319     0.889451297100     1.007825032230
         H            3.931837805152     0.416458049319    -0.889498702900     1.007825032230
         H           -4.201458194848     0.280870049319     0.000061297100     1.007825032230

  Basis Set: AUG-CC-PVTZ
    Blend: AUG-CC-PVTZ
  Basis Set: (AUG-CC-PVTZ AUX)
    Blend: AUG-CC-PVTZ-JKFIT
	 Reference Energy          =    -493.6773438141168526 [Eh]
	 Singles Energy            =      -0.0000000000000000 [Eh]
	 Same-Spin Energy          =      -0.4747008172568561 [Eh]
	 Opposite-Spin Energy      =      -1.4691769114558197 [Eh]
	 Correlation Energy        =      -1.9438777287126758 [Eh]
	 Total Energy              =    -495.6212215428295167 [Eh]

	 ================> DF-SCS-MP2 Energies <==================
	-----------------------------------------------------------
	 SCS Same-Spin Scale       =       0.3333333333333333 [-]
	 SCS Opposite-Spin Scale   =       1.2000000000000000 [-]
	 SCS Same-Spin Energy      =      -0.1582336057522853 [Eh]
	 SCS Opposite-Spin Energy  =      -1.7630122937469836 [Eh]
	 SCS Correlation Energy    =      -1.9212458994992689 [Eh]
	 SCS Total Energy          =    -495.5985897136161498 [Eh]
	-----------------------------------------------------------

  Dipole Moment: [D]
     X:     0.5695      Y:    -0.1670      Z:     0.0003     Total:     0.5934

*** Psi4 exiting successfully. Buy a developer a beer!
