                               Psi4 1.4a3.dev225

  ==> Input File <==

--------------------------------------------------------------------------
#psi4
#
memory 32 gb

molecule  {
0 1
  O        2.4005690    -0.7555910     0.0000930
  O       -3.4134850     0.7931250     0.0001120
  O        1.6118980     1.3746640    -0.0001560
  O       -2.6294380    -1.3322590    -0.0001410
  C        0.0590550    -0.4958080     0.0000270
  C       -1.0635090     0.5281750     0.0000410
  C        1.4119940     0.1700650    -0.0000220
  C       -2.4159880    -0.1313140    -0.0000070
  C        3.7306770    -0.1974070     0.0000330
  H       -0.0086930    -1.1555200     0.8707660
  H       -0.0087430    -1.1555360    -0.8706970
  H       -0.9969410     1.1888870    -0.8701370
  H       -0.9969750     1.1888400     0.8702580
  H        4.3497417    -1.0866502     0.0993633
  H        3.8858800     0.4149390     0.8894490
  H        3.8858720     0.4147700    -0.8895010
  H       -4.2474240     0.2791820     0.0000590
units angstrom
no_reorient  #important for SAPT in psi4, default
symmetry c1  #important for SAPT in psi4, default
}

set PROPERTIES_ORIGIN ["COM"]
properties('MP2/aug-cc-pvtz', properties = ['dipole'])
--------------------------------------------------------------------------

    Molecular point group: c1
  Charge       = 0
  Multiplicity = 1
  Basis Set: AUG-CC-PVTZ
    Blend: AUG-CC-PVTZ
  Basis Set: (AUG-CC-PVTZ AUX)
    Blend: AUG-CC-PVTZ-JKFIT

    Orbital Energies [Eh]
    ---------------------

    Doubly Occupied:

       1A    -20.621170     2A    -20.611105     3A    -20.559276
       4A    -20.554444     5A    -11.397502     6A    -11.389703
       7A    -11.290513     8A    -11.258326     9A    -11.256331
      10A     -1.466027    11A     -1.461718    12A     -1.363658
      13A     -1.361334    14A     -1.097296    15A     -0.999123
      16A     -0.931641    17A     -0.813835    18A     -0.772180
      19A     -0.725818    20A     -0.708891    21A     -0.689991
      22A     -0.678636    23A     -0.667526    24A     -0.661291
      25A     -0.611519    26A     -0.600710    27A     -0.567027
      28A     -0.550063    29A     -0.543482    30A     -0.535867
      31A     -0.510699    32A     -0.489341    33A     -0.469834
      34A     -0.463911    35A     -0.457011

  @DF-RHF Final Energy:  -493.67506320298122

   => Energetics <=

    Nuclear Repulsion Energy =            445.3601663687228438
    One-Electron Energy =               -1559.7968600564456665
    Two-Electron Energy =                 620.7616304847415449
    Total Energy =                       -493.6750632029811641
  Basis Set: (AUG-CC-PVTZ AUX)
    Blend: AUG-CC-PVTZ-RI
    Molecular point group: c1

    Geometry (in Angstrom), charge = 0, multiplicity = 1:

       Center              X                  Y                   Z               Mass
    ------------   -----------------  -----------------  -----------------  -----------------
         O            2.445263999618    -0.754475879856    -0.000662302366    15.994914619570
         O           -3.368790000382     0.794240120144    -0.000643302366    15.994914619570
         O            1.656592999618     1.375779120144    -0.000911302366    15.994914619570
         O           -2.584743000382    -1.331143879856    -0.000896302366    15.994914619570
         C            0.103749999618    -0.494692879856    -0.000728302366    12.000000000000
         C           -1.018814000382     0.529290120144    -0.000714302366    12.000000000000
         C            1.456688999618     0.171180120144    -0.000777302366    12.000000000000
         C           -2.371293000382    -0.130198879856    -0.000762302366    12.000000000000
         C            3.775371999618    -0.196291879856    -0.000722302366    12.000000000000
         H            0.036001999618    -1.154404879856     0.870010697634     1.007825032230
         H            0.035951999618    -1.154420879856    -0.871452302366     1.007825032230
         H           -0.952246000382     1.190002120144    -0.870892302366     1.007825032230
         H           -0.952280000382     1.189955120144     0.869502697634     1.007825032230
         H            4.394436699618    -1.085535079856     0.098607997634     1.007825032230
         H            3.930574999618     0.416054120144     0.888693697634     1.007825032230
         H            3.930566999618     0.415885120144    -0.890256302366     1.007825032230
         H           -4.202729000382     0.280297120144    -0.000696302366     1.007825032230

  Basis Set: AUG-CC-PVTZ
    Blend: AUG-CC-PVTZ
  Basis Set: (AUG-CC-PVTZ AUX)
    Blend: AUG-CC-PVTZ-JKFIT
	 Reference Energy          =    -493.6750632029812209 [Eh]
	 Singles Energy            =      -0.0000000000000000 [Eh]
	 Same-Spin Energy          =      -0.4751478414075347 [Eh]
	 Opposite-Spin Energy      =      -1.4700232552122356 [Eh]
	 Correlation Energy        =      -1.9451710966197704 [Eh]
	 Total Energy              =    -495.6202342996010088 [Eh]

	 ================> DF-SCS-MP2 Energies <==================
	-----------------------------------------------------------
	 SCS Same-Spin Scale       =       0.3333333333333333 [-]
	 SCS Opposite-Spin Scale   =       1.2000000000000000 [-]
	 SCS Same-Spin Energy      =      -0.1583826138025116 [Eh]
	 SCS Opposite-Spin Energy  =      -1.7640279062546826 [Eh]
	 SCS Correlation Energy    =      -1.9224105200571941 [Eh]
	 SCS Total Energy          =    -495.5974737230384335 [Eh]
	-----------------------------------------------------------

  Dipole Moment: [D]
     X:     0.6834      Y:    -0.1300      Z:     0.0389     Total:     0.6967

*** Psi4 exiting successfully. Buy a developer a beer!
