                               Psi4 1.4a3.dev225

  ==> Input File <==

--------------------------------------------------------------------------
#psi4
#
memory 32 gb

molecule  {
0 1
  O        2.4005690    -0.7555910     0.0000930
  O       -3.4134850     0.7931250     0.0001120
  O        1.6118980     1.3746640    -0.0001560
  O       -2.6294380    -1.3322590    -0.0001410
  C        0.0590550    -0.4958080     0.0000270
  C       -1.0635090     0.5281750     0.0000410
  C        1.4119940     0.1700650    -0.0000220
  C       -2.4095172    -0.1440629     0.0220218
  C        3.7306770    -0.1974070     0.0000330
  H       -0.0086930    -1.1555200     0.8707660
  H       -0.0087430    -1.1555360    -0.8706970
  H       -0.9969410     1.1888870    -0.8701370
  H       -0.9969750     1.1888400     0.8702580
  H        4.3972900    -1.0573420     0.0001120
  H        3.8858800     0.4149390     0.8894490
  H        3.8858720     0.4147700    -0.8895010
  H       -4.2474240     0.2791820     0.0000590
units angstrom
no_reorient  #important for SAPT in psi4, default
symmetry c1  #important for SAPT in psi4, default
}

set PROPERTIES_ORIGIN ["COM"]
properties('MP2/aug-cc-pvtz', properties = ['dipole'])
--------------------------------------------------------------------------

    Molecular point group: c1
  Charge       = 0
  Multiplicity = 1
  Basis Set: AUG-CC-PVTZ
    Blend: AUG-CC-PVTZ
  Basis Set: (AUG-CC-PVTZ AUX)
    Blend: AUG-CC-PVTZ-JKFIT

    Orbital Energies [Eh]
    ---------------------

    Doubly Occupied:

       1A    -20.617249     2A    -20.612059     3A    -20.562147
       4A    -20.554723     5A    -11.396963     6A    -11.390398
       7A    -11.290606     8A    -11.258537     9A    -11.256791
      10A     -1.464047    11A     -1.461972    12A     -1.366886
      13A     -1.361569    14A     -1.097888    15A     -0.998696
      16A     -0.931193    17A     -0.810616    18A     -0.771822
      19A     -0.726147    20A     -0.708497    21A     -0.689997
      22A     -0.679074    23A     -0.667834    24A     -0.661189
      25A     -0.609691    26A     -0.603178    27A     -0.568897
      28A     -0.549116    29A     -0.544201    30A     -0.535078
      31A     -0.511061    32A     -0.492807    33A     -0.470184
      34A     -0.464676    35A     -0.457913

  @DF-RHF Final Energy:  -493.67647440449940

   => Energetics <=

    Nuclear Repulsion Energy =            445.3340751134092557
    One-Electron Energy =               -1559.7336965024808251
    Two-Electron Energy =                 620.7231469845722813
    Total Energy =                       -493.6764744044993449
  Basis Set: (AUG-CC-PVTZ AUX)
    Blend: AUG-CC-PVTZ-RI
    Molecular point group: c1

    Geometry (in Angstrom), charge = 0, multiplicity = 1:

       Center              X                  Y                   Z               Mass
    ------------   -----------------  -----------------  -----------------  -----------------
         O            2.444313016439    -0.753540957479    -0.001906734693    15.994914619570
         O           -3.369740983561     0.795175042521    -0.001887734693    15.994914619570
         O            1.655642016439     1.376714042521    -0.002155734693    15.994914619570
         O           -2.585693983561    -1.330208957479    -0.002140734693    15.994914619570
         C            0.102799016439    -0.493757957479    -0.001972734693    12.000000000000
         C           -1.019764983561     0.530225042521    -0.001958734693    12.000000000000
         C            1.455738016439     0.172115042521    -0.002021734693    12.000000000000
         C           -2.365773183561    -0.142012857479     0.020022065307    12.000000000000
         C            3.774421016439    -0.195356957479    -0.001966734693    12.000000000000
         H            0.035051016439    -1.153469957479     0.868766265307     1.007825032230
         H            0.035001016439    -1.153485957479    -0.872696734693     1.007825032230
         H           -0.953196983561     1.190937042521    -0.872136734693     1.007825032230
         H           -0.953230983561     1.190890042521     0.868258265307     1.007825032230
         H            4.441034016439    -1.055291957479    -0.001887734693     1.007825032230
         H            3.929624016439     0.416989042521     0.887449265307     1.007825032230
         H            3.929616016439     0.416820042521    -0.891500734693     1.007825032230
         H           -4.203679983561     0.281232042521    -0.001940734693     1.007825032230

  Basis Set: AUG-CC-PVTZ
    Blend: AUG-CC-PVTZ
  Basis Set: (AUG-CC-PVTZ AUX)
    Blend: AUG-CC-PVTZ-JKFIT
	 Reference Energy          =    -493.6764744044994018 [Eh]
	 Singles Energy            =      -0.0000000000000000 [Eh]
	 Same-Spin Energy          =      -0.4749426192700975 [Eh]
	 Opposite-Spin Energy      =      -1.4697659285480551 [Eh]
	 Correlation Energy        =      -1.9447085478181525 [Eh]
	 Total Energy              =    -495.6211829523175538 [Eh]

	 ================> DF-SCS-MP2 Energies <==================
	-----------------------------------------------------------
	 SCS Same-Spin Scale       =       0.3333333333333333 [-]
	 SCS Opposite-Spin Scale   =       1.2000000000000000 [-]
	 SCS Same-Spin Energy      =      -0.1583142064233658 [Eh]
	 SCS Opposite-Spin Energy  =      -1.7637191142576660 [Eh]
	 SCS Correlation Energy    =      -1.9220333206810318 [Eh]
	 SCS Total Energy          =    -495.5985077251804114 [Eh]
	-----------------------------------------------------------

  Dipole Moment: [D]
     X:     0.7608      Y:    -0.2309      Z:     0.0234     Total:     0.7954

*** Psi4 exiting successfully. Buy a developer a beer!
