                               Psi4 1.4a3.dev225

  ==> Input File <==

--------------------------------------------------------------------------
#psi4
#
memory 32 gb

molecule  {
0 1
  O        2.4005690    -0.7555910     0.0000930
  O       -3.4134850     0.7931250     0.0001120
  O        1.6118980     1.3746640    -0.0001560
  O       -2.6294380    -1.3322590    -0.0001410
  C        0.0590550    -0.4958080     0.0000270
  C       -1.0635090     0.5281750     0.0000410
  C        1.4119940     0.1700650    -0.0000220
  C       -2.4159880    -0.1313140    -0.0000070
  C        3.7306770    -0.1974070     0.0000330
  H       -0.0086930    -1.1555200     0.8707660
  H       -0.0087430    -1.1555360    -0.8706970
  H       -0.9969410     1.1888870    -0.8701370
  H       -0.9969750     1.1888400     0.8702580
  H        4.3972900    -1.0573420     0.0001120
  H        3.8858800     0.4149390     0.8894490
  H        3.8787590     0.3867123    -0.8487313
  H       -4.2474240     0.2791820     0.0000590
units angstrom
no_reorient  #important for SAPT in psi4, default
symmetry c1  #important for SAPT in psi4, default
}

set PROPERTIES_ORIGIN ["COM"]
properties('MP2/aug-cc-pvtz', properties = ['dipole'])
--------------------------------------------------------------------------

    Molecular point group: c1
  Charge       = 0
  Multiplicity = 1
  Basis Set: AUG-CC-PVTZ
    Blend: AUG-CC-PVTZ
  Basis Set: (AUG-CC-PVTZ AUX)
    Blend: AUG-CC-PVTZ-JKFIT

    Orbital Energies [Eh]
    ---------------------

    Doubly Occupied:

       1A    -20.621184     2A    -20.611209     3A    -20.559289
       4A    -20.554410     5A    -11.397527     6A    -11.390120
       7A    -11.284647     8A    -11.258372     9A    -11.256434
      10A     -1.466040    11A     -1.461609    12A     -1.363669
      13A     -1.361214    14A     -1.097396    15A     -1.001024
      16A     -0.934407    17A     -0.815031    18A     -0.773471
      19A     -0.725580    20A     -0.708910    21A     -0.690970
      22A     -0.679376    23A     -0.667850    24A     -0.662967
      25A     -0.612215    26A     -0.601812    27A     -0.567513
      28A     -0.552353    29A     -0.544427    30A     -0.536016
      31A     -0.511349    32A     -0.489374    33A     -0.470807
      34A     -0.464035    35A     -0.457174

  @DF-RHF Final Energy:  -493.67563497199302

   => Energetics <=

    Nuclear Repulsion Energy =            445.5025010037159632
    One-Electron Energy =               -1560.0567116364509275
    Two-Electron Energy =                 620.8785756607419444
    Total Energy =                       -493.6756349719930768
  Basis Set: (AUG-CC-PVTZ AUX)
    Blend: AUG-CC-PVTZ-RI
    Molecular point group: c1

    Geometry (in Angstrom), charge = 0, multiplicity = 1:

       Center              X                  Y                   Z               Mass
    ------------   -----------------  -----------------  -----------------  -----------------
         O            2.444955373366    -0.754485424416    -0.000215936021    15.994914619570
         O           -3.369098626634     0.794230575584    -0.000196936021    15.994914619570
         O            1.656284373366     1.375769575584    -0.000464936021    15.994914619570
         O           -2.585051626634    -1.331153424416    -0.000449936021    15.994914619570
         C            0.103441373366    -0.494702424416    -0.000281936021    12.000000000000
         C           -1.019122626634     0.529280575584    -0.000267936021    12.000000000000
         C            1.456380373366     0.171170575584    -0.000330936021    12.000000000000
         C           -2.371601626634    -0.130208424416    -0.000315936021    12.000000000000
         C            3.775063373366    -0.196301424416    -0.000275936021    12.000000000000
         H            0.035693373366    -1.154414424416     0.870457063979     1.007825032230
         H            0.035643373366    -1.154430424416    -0.871005936021     1.007825032230
         H           -0.952554626634     1.189992575584    -0.870445936021     1.007825032230
         H           -0.952588626634     1.189945575584     0.869949063979     1.007825032230
         H            4.441676373366    -1.056236424416    -0.000196936021     1.007825032230
         H            3.930266373366     0.416044575584     0.889140063979     1.007825032230
         H            3.923145373366     0.387817875584    -0.849040236021     1.007825032230
         H           -4.203037626634     0.280287575584    -0.000249936021     1.007825032230

  Basis Set: AUG-CC-PVTZ
    Blend: AUG-CC-PVTZ
  Basis Set: (AUG-CC-PVTZ AUX)
    Blend: AUG-CC-PVTZ-JKFIT
	 Reference Energy          =    -493.6756349719930199 [Eh]
	 Singles Energy            =      -0.0000000000000000 [Eh]
	 Same-Spin Energy          =      -0.4750078657239125 [Eh]
	 Opposite-Spin Energy      =      -1.4695511512854114 [Eh]
	 Correlation Energy        =      -1.9445590170093239 [Eh]
	 Total Energy              =    -495.6201939890023596 [Eh]

	 ================> DF-SCS-MP2 Energies <==================
	-----------------------------------------------------------
	 SCS Same-Spin Scale       =       0.3333333333333333 [-]
	 SCS Opposite-Spin Scale   =       1.2000000000000000 [-]
	 SCS Same-Spin Energy      =      -0.1583359552413042 [Eh]
	 SCS Opposite-Spin Energy  =      -1.7634613815424935 [Eh]
	 SCS Correlation Energy    =      -1.9217973367837977 [Eh]
	 SCS Total Energy          =    -495.5974323087768312 [Eh]
	-----------------------------------------------------------

  Dipole Moment: [D]
     X:     0.7105      Y:    -0.1239      Z:    -0.0134     Total:     0.7214

*** Psi4 exiting successfully. Buy a developer a beer!
