                               Psi4 1.4a3.dev225

  ==> Input File <==

--------------------------------------------------------------------------
#psi4
#
memory 32 gb

molecule  {
0 1
  O        2.4005690    -0.7555910     0.0000930
  O       -3.4134850     0.7931250     0.0001120
  O        1.6118980     1.3746640    -0.0001560
  O       -2.6294380    -1.3322590    -0.0001410
  C        0.0590550    -0.4958080     0.0000270
  C       -1.0635090     0.5281750     0.0000410
  C        1.4119940     0.1700650    -0.0000220
  C       -2.4159880    -0.1313140    -0.0000070
  C        3.7306770    -0.1974070     0.0000330
  H       -0.0086930    -1.1555200     0.8707660
  H       -0.0087430    -1.1555360    -0.8706970
  H       -0.9969410     1.1888870    -0.8701370
  H       -0.9969750     1.1888400     0.8702580
  H        4.3972900    -1.0573420     0.0001120
  H        3.8858800     0.4149390     0.8894490
  H        3.8574200     0.3025392    -0.7264221
  H       -4.2474240     0.2791820     0.0000590
units angstrom
no_reorient  #important for SAPT in psi4, default
symmetry c1  #important for SAPT in psi4, default
}

set PROPERTIES_ORIGIN ["COM"]
properties('MP2/aug-cc-pvtz', properties = ['dipole'])
--------------------------------------------------------------------------

    Molecular point group: c1
  Charge       = 0
  Multiplicity = 1
  Basis Set: AUG-CC-PVTZ
    Blend: AUG-CC-PVTZ
  Basis Set: (AUG-CC-PVTZ AUX)
    Blend: AUG-CC-PVTZ-JKFIT

    Orbital Energies [Eh]
    ---------------------

    Doubly Occupied:

       1A    -20.621091     2A    -20.609737     3A    -20.559185
       4A    -20.554227     5A    -11.397416     6A    -11.389952
       7A    -11.267077     8A    -11.258220     9A    -11.256211
      10A     -1.465941    11A     -1.461281    12A     -1.363568
      13A     -1.361025    14A     -1.097679    15A     -1.012808
      16A     -0.943620    17A     -0.818710    18A     -0.778403
      19A     -0.726089    20A     -0.708959    21A     -0.696453
      22A     -0.680778    23A     -0.667621    24A     -0.666227
      25A     -0.616350    26A     -0.601840    27A     -0.570612
      28A     -0.559308    29A     -0.544194    30A     -0.537411
      31A     -0.512081    32A     -0.489317    33A     -0.472454
      34A     -0.463880    35A     -0.456944

  @DF-RHF Final Energy:  -493.64223712602706

   => Energetics <=

    Nuclear Repulsion Energy =            446.2547202779530267
    One-Electron Energy =               -1561.4205768828683176
    Two-Electron Energy =                 621.5236194788882358
    Total Energy =                       -493.6422371260269983
  Basis Set: (AUG-CC-PVTZ AUX)
    Blend: AUG-CC-PVTZ-RI
    Molecular point group: c1

    Geometry (in Angstrom), charge = 0, multiplicity = 1:

       Center              X                  Y                   Z               Mass
    ------------   -----------------  -----------------  -----------------  -----------------
         O            2.445118245302    -0.753842965267    -0.001149472562    15.994914619570
         O           -3.368935754698     0.794873034733    -0.001130472562    15.994914619570
         O            1.656447245302     1.376412034733    -0.001398472562    15.994914619570
         O           -2.584888754698    -1.330510965267    -0.001383472562    15.994914619570
         C            0.103604245302    -0.494059965267    -0.001215472562    12.000000000000
         C           -1.018959754698     0.529923034733    -0.001201472562    12.000000000000
         C            1.456543245302     0.171813034733    -0.001264472562    12.000000000000
         C           -2.371438754698    -0.129565965267    -0.001249472562    12.000000000000
         C            3.775226245302    -0.195658965267    -0.001209472562    12.000000000000
         H            0.035856245302    -1.153771965267     0.869523527438     1.007825032230
         H            0.035806245302    -1.153787965267    -0.871939472562     1.007825032230
         H           -0.952391754698     1.190635034733    -0.871379472562     1.007825032230
         H           -0.952425754698     1.190588034733     0.869015527438     1.007825032230
         H            4.441839245302    -1.055593965267    -0.001130472562     1.007825032230
         H            3.930429245302     0.416687034733     0.888206527438     1.007825032230
         H            3.901969245302     0.304287234733    -0.727664572562     1.007825032230
         H           -4.202874754698     0.280930034733    -0.001183472562     1.007825032230

  Basis Set: AUG-CC-PVTZ
    Blend: AUG-CC-PVTZ
  Basis Set: (AUG-CC-PVTZ AUX)
    Blend: AUG-CC-PVTZ-JKFIT
	 Reference Energy          =    -493.6422371260270552 [Eh]
	 Singles Energy            =      -0.0000000000000000 [Eh]
	 Same-Spin Energy          =      -0.4749854264460237 [Eh]
	 Opposite-Spin Energy      =      -1.4691121190065681 [Eh]
	 Correlation Energy        =      -1.9440975454525917 [Eh]
	 Total Energy              =    -495.5863346714796194 [Eh]

	 ================> DF-SCS-MP2 Energies <==================
	-----------------------------------------------------------
	 SCS Same-Spin Scale       =       0.3333333333333333 [-]
	 SCS Opposite-Spin Scale   =       1.2000000000000000 [-]
	 SCS Same-Spin Energy      =      -0.1583284754820079 [Eh]
	 SCS Opposite-Spin Energy  =      -1.7629345428078818 [Eh]
	 SCS Correlation Energy    =      -1.9212630182898895 [Eh]
	 SCS Total Energy          =    -495.5635001443169472 [Eh]
	-----------------------------------------------------------

  Dipole Moment: [D]
     X:     0.7485      Y:    -0.1202      Z:    -0.0359     Total:     0.7589

*** Psi4 exiting successfully. Buy a developer a beer!
