                               Psi4 1.4a3.dev225

  ==> Input File <==

--------------------------------------------------------------------------
#psi4
#
memory 32 gb

molecule  {
0 1
  O        2.4005690    -0.7555910     0.0000930
  O       -3.4134850     0.7931250     0.0001120
  O        1.6118980     1.3746640    -0.0001560
  O       -2.6294380    -1.3322590    -0.0001410
  C        0.0590550    -0.4958080     0.0000270
  C       -1.0635090     0.5281750     0.0000410
  C        1.4119940     0.1700650    -0.0000220
  C       -2.3710571    -0.2046606     0.1319313
  C        3.7306770    -0.1974070     0.0000330
  H       -0.0086930    -1.1555200     0.8707660
  H       -0.0087430    -1.1555360    -0.8706970
  H       -0.9969410     1.1888870    -0.8701370
  H       -0.9969750     1.1888400     0.8702580
  H        4.3972900    -1.0573420     0.0001120
  H        3.8858800     0.4149390     0.8894490
  H        3.8858720     0.4147700    -0.8895010
  H       -4.2474240     0.2791820     0.0000590
units angstrom
no_reorient  #important for SAPT in psi4, default
symmetry c1  #important for SAPT in psi4, default
}

set PROPERTIES_ORIGIN ["COM"]
properties('MP2/aug-cc-pvtz', properties = ['dipole'])
--------------------------------------------------------------------------

    Molecular point group: c1
  Charge       = 0
  Multiplicity = 1
  Basis Set: AUG-CC-PVTZ
    Blend: AUG-CC-PVTZ
  Basis Set: (AUG-CC-PVTZ AUX)
    Blend: AUG-CC-PVTZ-JKFIT

    Orbital Energies [Eh]
    ---------------------

    Doubly Occupied:

       1A    -20.613174     2A    -20.595809     3A    -20.576959
       4A    -20.556135     5A    -11.396500     6A    -11.391581
       7A    -11.291462     8A    -11.261009     9A    -11.258683
      10A     -1.471721    11A     -1.463232    12A     -1.362816
      13A     -1.357785    14A     -1.101295    15A     -0.998840
      16A     -0.928687    17A     -0.796977    18A     -0.770563
      19A     -0.727885    20A     -0.707989    21A     -0.691723
      22A     -0.679976    23A     -0.667003    24A     -0.660463
      25A     -0.607890    26A     -0.604612    27A     -0.575470
      28A     -0.547895    29A     -0.543281    30A     -0.536086
      31A     -0.513394    32A     -0.499016    33A     -0.471355
      34A     -0.462823    35A     -0.460238

  @DF-RHF Final Energy:  -493.66065622898043

   => Energetics <=

    Nuclear Repulsion Energy =            445.4095153529873983
    One-Electron Energy =               -1559.8396974688719183
    Two-Electron Energy =                 620.7695258869040345
    Total Energy =                       -493.6606562289804288
  Basis Set: (AUG-CC-PVTZ AUX)
    Blend: AUG-CC-PVTZ-RI
    Molecular point group: c1

    Geometry (in Angstrom), charge = 0, multiplicity = 1:

       Center              X                  Y                   Z               Mass
    ------------   -----------------  -----------------  -----------------  -----------------
         O            2.440817762690    -0.748033838721    -0.011895309659    15.994914619570
         O           -3.373236237310     0.800682161279    -0.011876309659    15.994914619570
         O            1.652146762690     1.382221161279    -0.012144309659    15.994914619570
         O           -2.589189237310    -1.324701838721    -0.012129309659    15.994914619570
         C            0.099303762690    -0.488250838721    -0.011961309659    12.000000000000
         C           -1.023260237310     0.535732161279    -0.011947309659    12.000000000000
         C            1.452242762690     0.177622161279    -0.012010309659    12.000000000000
         C           -2.330808337310    -0.197103438721     0.119942990341    12.000000000000
         C            3.770925762690    -0.189849838721    -0.011955309659    12.000000000000
         H            0.031555762690    -1.147962838721     0.858777690341     1.007825032230
         H            0.031505762690    -1.147978838721    -0.882685309659     1.007825032230
         H           -0.956692237310     1.196444161279    -0.882125309659     1.007825032230
         H           -0.956726237310     1.196397161279     0.858269690341     1.007825032230
         H            4.437538762690    -1.049784838721    -0.011876309659     1.007825032230
         H            3.926128762690     0.422496161279     0.877460690341     1.007825032230
         H            3.926120762690     0.422327161279    -0.901489309659     1.007825032230
         H           -4.207175237310     0.286739161279    -0.011929309659     1.007825032230

  Basis Set: AUG-CC-PVTZ
    Blend: AUG-CC-PVTZ
  Basis Set: (AUG-CC-PVTZ AUX)
    Blend: AUG-CC-PVTZ-JKFIT
	 Reference Energy          =    -493.6606562289804288 [Eh]
	 Singles Energy            =      -0.0000000000000000 [Eh]
	 Same-Spin Energy          =      -0.4750723416463826 [Eh]
	 Opposite-Spin Energy      =      -1.4709204576804900 [Eh]
	 Correlation Energy        =      -1.9459927993268726 [Eh]
	 Total Energy              =    -495.6066490283072881 [Eh]

	 ================> DF-SCS-MP2 Energies <==================
	-----------------------------------------------------------
	 SCS Same-Spin Scale       =       0.3333333333333333 [-]
	 SCS Opposite-Spin Scale   =       1.2000000000000000 [-]
	 SCS Same-Spin Energy      =      -0.1583574472154609 [Eh]
	 SCS Opposite-Spin Energy  =      -1.7651045492165880 [Eh]
	 SCS Correlation Energy    =      -1.9234619964320487 [Eh]
	 SCS Total Energy          =    -495.5841182254124533 [Eh]
	-----------------------------------------------------------

  Dipole Moment: [D]
     X:     1.1644      Y:    -0.7533      Z:     0.1511     Total:     1.3951

*** Psi4 exiting successfully. Buy a developer a beer!
