                               Psi4 1.4a3.dev225

  ==> Input File <==

--------------------------------------------------------------------------
#psi4
#
memory 32 gb

molecule  {
0 1
  O        2.4005690    -0.7555910     0.0000930
  O       -3.4134850     0.7931250     0.0001120
  O        1.6118980     1.3746640    -0.0001560
  O       -2.6294380    -1.3322590    -0.0001410
  C        0.0590550    -0.4958080     0.0000270
  C       -1.0635090     0.5281750     0.0000410
  C        1.4119940     0.1700650    -0.0000220
  C       -2.4159880    -0.1313140    -0.0000070
  C        3.7306770    -0.1974070     0.0000330
  H       -0.0117878    -1.1856568     0.9105428
  H       -0.0087430    -1.1555360    -0.8706970
  H       -0.9969410     1.1888870    -0.8701370
  H       -0.9969750     1.1888400     0.8702580
  H        4.3972900    -1.0573420     0.0001120
  H        3.8858800     0.4149390     0.8894490
  H        3.8858720     0.4147700    -0.8895010
  H       -4.2474240     0.2791820     0.0000590
units angstrom
no_reorient  #important for SAPT in psi4, default
symmetry c1  #important for SAPT in psi4, default
}

set PROPERTIES_ORIGIN ["COM"]
properties('MP2/aug-cc-pvtz', properties = ['dipole'])
--------------------------------------------------------------------------

    Molecular point group: c1
  Charge       = 0
  Multiplicity = 1
  Basis Set: AUG-CC-PVTZ
    Blend: AUG-CC-PVTZ
  Basis Set: (AUG-CC-PVTZ AUX)
    Blend: AUG-CC-PVTZ-JKFIT

    Orbital Energies [Eh]
    ---------------------

    Doubly Occupied:

       1A    -20.621262     2A    -20.611744     3A    -20.559285
       4A    -20.554683     5A    -11.397597     6A    -11.390509
       7A    -11.290411     8A    -11.262092     9A    -11.258751
      10A     -1.466093    11A     -1.461811    12A     -1.363685
      13A     -1.361440    14A     -1.095817    15A     -0.998493
      16A     -0.930241    17A     -0.814195    18A     -0.770767
      19A     -0.724571    20A     -0.708633    21A     -0.688396
      22A     -0.678991    23A     -0.667538    24A     -0.661367
      25A     -0.608773    26A     -0.601641    27A     -0.566651
      28A     -0.549541    29A     -0.543695    30A     -0.534824
      31A     -0.507186    32A     -0.489353    33A     -0.469990
      34A     -0.464137    35A     -0.457126

  @DF-RHF Final Energy:  -493.67429420520057

   => Energetics <=

    Nuclear Repulsion Energy =            445.0410701132962004
    One-Electron Energy =               -1559.1681547397161012
    Two-Electron Energy =                 620.4527904212193334
    Total Energy =                       -493.6742942052005674
  Basis Set: (AUG-CC-PVTZ AUX)
    Blend: AUG-CC-PVTZ-RI
    Molecular point group: c1

    Geometry (in Angstrom), charge = 0, multiplicity = 1:

       Center              X                  Y                   Z               Mass
    ------------   -----------------  -----------------  -----------------  -----------------
         O            2.444924704074    -0.754469555488    -0.000208357618    15.994914619570
         O           -3.369129295926     0.794246444512    -0.000189357618    15.994914619570
         O            1.656253704074     1.375785444512    -0.000457357618    15.994914619570
         O           -2.585082295926    -1.331137555488    -0.000442357618    15.994914619570
         C            0.103410704074    -0.494686555488    -0.000274357618    12.000000000000
         C           -1.019153295926     0.529296444512    -0.000260357618    12.000000000000
         C            1.456349704074     0.171186444512    -0.000323357618    12.000000000000
         C           -2.371632295926    -0.130192555488    -0.000308357618    12.000000000000
         C            3.775032704074    -0.196285555488    -0.000268357618    12.000000000000
         H            0.032567904074    -1.184535355488     0.910241442382     1.007825032230
         H            0.035612704074    -1.154414555488    -0.870998357618     1.007825032230
         H           -0.952585295926     1.190008444512    -0.870438357618     1.007825032230
         H           -0.952619295926     1.189961444512     0.869956642382     1.007825032230
         H            4.441645704074    -1.056220555488    -0.000189357618     1.007825032230
         H            3.930235704074     0.416060444512     0.889147642382     1.007825032230
         H            3.930227704074     0.415891444512    -0.889802357618     1.007825032230
         H           -4.203068295926     0.280303444512    -0.000242357618     1.007825032230

  Basis Set: AUG-CC-PVTZ
    Blend: AUG-CC-PVTZ
  Basis Set: (AUG-CC-PVTZ AUX)
    Blend: AUG-CC-PVTZ-JKFIT
	 Reference Energy          =    -493.6742942052005674 [Eh]
	 Singles Energy            =      -0.0000000000000000 [Eh]
	 Same-Spin Energy          =      -0.4751132786952689 [Eh]
	 Opposite-Spin Energy      =      -1.4702661601248461 [Eh]
	 Correlation Energy        =      -1.9453794388201149 [Eh]
	 Total Energy              =    -495.6196736440206791 [Eh]

	 ================> DF-SCS-MP2 Energies <==================
	-----------------------------------------------------------
	 SCS Same-Spin Scale       =       0.3333333333333333 [-]
	 SCS Opposite-Spin Scale   =       1.2000000000000000 [-]
	 SCS Same-Spin Energy      =      -0.1583710928984229 [Eh]
	 SCS Opposite-Spin Energy  =      -1.7643193921498153 [Eh]
	 SCS Correlation Energy    =      -1.9226904850482383 [Eh]
	 SCS Total Energy          =    -495.5969846902488030 [Eh]
	-----------------------------------------------------------

  Dipole Moment: [D]
     X:     0.6868      Y:    -0.1238      Z:    -0.0038     Total:     0.6978

*** Psi4 exiting successfully. Buy a developer a beer!
