                               Psi4 1.4a3.dev225

  ==> Input File <==

--------------------------------------------------------------------------
#psi4
#
memory 32 gb

molecule  {
0 1
  O        2.4005690    -0.7555910     0.0000930
  O       -3.4134850     0.7931250     0.0001120
  O        1.6118980     1.3746640    -0.0001560
  O       -2.6294380    -1.3322590    -0.0001410
  C        0.0590550    -0.4958080     0.0000270
  C       -1.0635090     0.5281750     0.0000410
  C        1.4119940     0.1700650    -0.0000220
  C       -2.4159880    -0.1313140    -0.0000070
  C        3.7306770    -0.1974070     0.0000330
  H       -0.0086930    -1.1555200     0.8707660
  H       -0.0118401    -1.1856735    -0.9104731
  H       -0.9969410     1.1888870    -0.8701370
  H       -0.9969750     1.1888400     0.8702580
  H        4.3972900    -1.0573420     0.0001120
  H        3.8858800     0.4149390     0.8894490
  H        3.8858720     0.4147700    -0.8895010
  H       -4.2474240     0.2791820     0.0000590
units angstrom
no_reorient  #important for SAPT in psi4, default
symmetry c1  #important for SAPT in psi4, default
}

set PROPERTIES_ORIGIN ["COM"]
properties('MP2/aug-cc-pvtz', properties = ['dipole'])
--------------------------------------------------------------------------

    Molecular point group: c1
  Charge       = 0
  Multiplicity = 1
  Basis Set: AUG-CC-PVTZ
    Blend: AUG-CC-PVTZ
  Basis Set: (AUG-CC-PVTZ AUX)
    Blend: AUG-CC-PVTZ-JKFIT

    Orbital Energies [Eh]
    ---------------------

    Doubly Occupied:

       1A    -20.621262     2A    -20.611744     3A    -20.559285
       4A    -20.554683     5A    -11.397597     6A    -11.390509
       7A    -11.290411     8A    -11.262092     9A    -11.258751
      10A     -1.466093    11A     -1.461811    12A     -1.363685
      13A     -1.361440    14A     -1.095817    15A     -0.998493
      16A     -0.930240    17A     -0.814195    18A     -0.770767
      19A     -0.724571    20A     -0.708634    21A     -0.688396
      22A     -0.678991    23A     -0.667538    24A     -0.661366
      25A     -0.608774    26A     -0.601640    27A     -0.566650
      28A     -0.549541    29A     -0.543696    30A     -0.534824
      31A     -0.507185    32A     -0.489353    33A     -0.469990
      34A     -0.464137    35A     -0.457126

  @DF-RHF Final Energy:  -493.67429419875305

   => Energetics <=

    Nuclear Repulsion Energy =            445.0410727384099800
    One-Electron Energy =               -1559.1681623290894549
    Two-Electron Energy =                 620.4527953919265428
    Total Energy =                       -493.6742941987530457
  Basis Set: (AUG-CC-PVTZ AUX)
    Blend: AUG-CC-PVTZ-RI
    Molecular point group: c1

    Geometry (in Angstrom), charge = 0, multiplicity = 1:

       Center              X                  Y                   Z               Mass
    ------------   -----------------  -----------------  -----------------  -----------------
         O            2.444924721629    -0.754469550146     0.000398837418    15.994914619570
         O           -3.369129278371     0.794246449854     0.000417837418    15.994914619570
         O            1.656253721629     1.375785449854     0.000149837418    15.994914619570
         O           -2.585082278371    -1.331137550146     0.000164837418    15.994914619570
         C            0.103410721629    -0.494686550146     0.000332837418    12.000000000000
         C           -1.019153278371     0.529296449854     0.000346837418    12.000000000000
         C            1.456349721629     0.171186449854     0.000283837418    12.000000000000
         C           -2.371632278371    -0.130192550146     0.000298837418    12.000000000000
         C            3.775032721629    -0.196285550146     0.000338837418    12.000000000000
         H            0.035662721629    -1.154398550146     0.871071837418     1.007825032230
         H            0.032515621629    -1.184552050146    -0.910167262582     1.007825032230
         H           -0.952585278371     1.190008449854    -0.869831162582     1.007825032230
         H           -0.952619278371     1.189961449854     0.870563837418     1.007825032230
         H            4.441645721629    -1.056220550146     0.000417837418     1.007825032230
         H            3.930235721629     0.416060449854     0.889754837418     1.007825032230
         H            3.930227721629     0.415891449854    -0.889195162582     1.007825032230
         H           -4.203068278371     0.280303449854     0.000364837418     1.007825032230

  Basis Set: AUG-CC-PVTZ
    Blend: AUG-CC-PVTZ
  Basis Set: (AUG-CC-PVTZ AUX)
    Blend: AUG-CC-PVTZ-JKFIT
	 Reference Energy          =    -493.6742941987530457 [Eh]
	 Singles Energy            =      -0.0000000000000000 [Eh]
	 Same-Spin Energy          =      -0.4751132906870511 [Eh]
	 Opposite-Spin Energy      =      -1.4702661650490043 [Eh]
	 Correlation Energy        =      -1.9453794557360555 [Eh]
	 Total Energy              =    -495.6196736544890769 [Eh]

	 ================> DF-SCS-MP2 Energies <==================
	-----------------------------------------------------------
	 SCS Same-Spin Scale       =       0.3333333333333333 [-]
	 SCS Opposite-Spin Scale   =       1.2000000000000000 [-]
	 SCS Same-Spin Energy      =      -0.1583710968956837 [Eh]
	 SCS Opposite-Spin Energy  =      -1.7643193980588052 [Eh]
	 SCS Correlation Energy    =      -1.9226904949544890 [Eh]
	 SCS Total Energy          =    -495.5969846937075545 [Eh]
	-----------------------------------------------------------

  Dipole Moment: [D]
     X:     0.6868      Y:    -0.1238      Z:     0.0044     Total:     0.6978

*** Psi4 exiting successfully. Buy a developer a beer!
