                               Psi4 1.4a3.dev225

  ==> Input File <==

--------------------------------------------------------------------------
#psi4
#
memory 32 gb

molecule  {
0 1
  O        2.4005690    -0.7555910     0.0000930
  O       -3.4134850     0.7931250     0.0001120
  O        1.6118980     1.3746640    -0.0001560
  O       -2.6294380    -1.3322590    -0.0001410
  C        0.0590550    -0.4958080     0.0000270
  C       -1.0635090     0.5281750     0.0000410
  C        1.4119940     0.1700650    -0.0000220
  C       -2.3876534    -0.1810659     0.0880412
  C        3.7306770    -0.1974070     0.0000330
  H       -0.0086930    -1.1555200     0.8707660
  H       -0.0087430    -1.1555360    -0.8706970
  H       -0.9969410     1.1888870    -0.8701370
  H       -0.9969750     1.1888400     0.8702580
  H        4.3972900    -1.0573420     0.0001120
  H        3.8858800     0.4149390     0.8894490
  H        3.8858720     0.4147700    -0.8895010
  H       -4.2474240     0.2791820     0.0000590
units angstrom
no_reorient  #important for SAPT in psi4, default
symmetry c1  #important for SAPT in psi4, default
}

set PROPERTIES_ORIGIN ["COM"]
properties('MP2/aug-cc-pvtz', properties = ['dipole'])
--------------------------------------------------------------------------

    Molecular point group: c1
  Charge       = 0
  Multiplicity = 1
  Basis Set: AUG-CC-PVTZ
    Blend: AUG-CC-PVTZ
  Basis Set: (AUG-CC-PVTZ AUX)
    Blend: AUG-CC-PVTZ-JKFIT

    Orbital Energies [Eh]
    ---------------------

    Doubly Occupied:

       1A    -20.612662     2A    -20.604666     3A    -20.570871
       4A    -20.555493     5A    -11.396116     6A    -11.391030
       7A    -11.291071     8A    -11.259597     9A    -11.257785
      10A     -1.465663    11A     -1.462636    12A     -1.365838
      13A     -1.362247    14A     -1.099728    15A     -0.998627
      16A     -0.929471    17A     -0.801407    18A     -0.770816
      19A     -0.727513    20A     -0.708148    21A     -0.690851
      22A     -0.679548    23A     -0.667202    24A     -0.660504
      25A     -0.607351    26A     -0.605359    27A     -0.573212
      28A     -0.548165    29A     -0.543462    30A     -0.535658
      31A     -0.512110    32A     -0.498918    33A     -0.470833
      34A     -0.464647    35A     -0.459381

  @DF-RHF Final Energy:  -493.66989141640028

   => Energetics <=

    Nuclear Repulsion Energy =            445.4161018429884962
    One-Electron Energy =               -1559.8748195021180436
    Two-Electron Energy =                 620.7888262427292148
    Total Energy =                       -493.6698914164002190
  Basis Set: (AUG-CC-PVTZ AUX)
    Blend: AUG-CC-PVTZ-RI
    Molecular point group: c1

    Geometry (in Angstrom), charge = 0, multiplicity = 1:

       Center              X                  Y                   Z               Mass
    ------------   -----------------  -----------------  -----------------  -----------------
         O            2.442326034374    -0.750178124972    -0.007906577528    15.994914619570
         O           -3.371727965626     0.798537875028    -0.007887577528    15.994914619570
         O            1.653655034374     1.380076875028    -0.008155577528    15.994914619570
         O           -2.587680965626    -1.326846124972    -0.008140577528    15.994914619570
         C            0.100812034374    -0.490395124972    -0.007972577528    12.000000000000
         C           -1.021751965626     0.533587875028    -0.007958577528    12.000000000000
         C            1.453751034374     0.175477875028    -0.008021577528    12.000000000000
         C           -2.345896365626    -0.175653024972     0.080041622472    12.000000000000
         C            3.772434034374    -0.191994124972    -0.007966577528    12.000000000000
         H            0.033064034374    -1.150107124972     0.862766422472     1.007825032230
         H            0.033014034374    -1.150123124972    -0.878696577528     1.007825032230
         H           -0.955183965626     1.194299875028    -0.878136577528     1.007825032230
         H           -0.955217965626     1.194252875028     0.862258422472     1.007825032230
         H            4.439047034374    -1.051929124972    -0.007887577528     1.007825032230
         H            3.927637034374     0.420351875028     0.881449422472     1.007825032230
         H            3.927629034374     0.420182875028    -0.897500577528     1.007825032230
         H           -4.205666965626     0.284594875028    -0.007940577528     1.007825032230

  Basis Set: AUG-CC-PVTZ
    Blend: AUG-CC-PVTZ
  Basis Set: (AUG-CC-PVTZ AUX)
    Blend: AUG-CC-PVTZ-JKFIT
	 Reference Energy          =    -493.6698914164002758 [Eh]
	 Singles Energy            =      -0.0000000000000000 [Eh]
	 Same-Spin Energy          =      -0.4748782982110972 [Eh]
	 Opposite-Spin Energy      =      -1.4701052857017269 [Eh]
	 Correlation Energy        =      -1.9449835839128240 [Eh]
	 Total Energy              =    -495.6148750003130772 [Eh]

	 ================> DF-SCS-MP2 Energies <==================
	-----------------------------------------------------------
	 SCS Same-Spin Scale       =       0.3333333333333333 [-]
	 SCS Opposite-Spin Scale   =       1.2000000000000000 [-]
	 SCS Same-Spin Energy      =      -0.1582927660703657 [Eh]
	 SCS Opposite-Spin Energy  =      -1.7641263428420724 [Eh]
	 SCS Correlation Energy    =      -1.9224191089124381 [Eh]
	 SCS Total Energy          =    -495.5923105253127119 [Eh]
	-----------------------------------------------------------

  Dipole Moment: [D]
     X:     0.9904      Y:    -0.5436      Z:     0.0981     Total:     1.1340

*** Psi4 exiting successfully. Buy a developer a beer!
