                               Psi4 1.4a3.dev225

  ==> Input File <==

--------------------------------------------------------------------------
#psi4
#
memory 32 gb

molecule  {
0 1
  O        2.4005690    -0.7555910     0.0000930
  O       -3.4134850     0.7931250     0.0001120
  O        1.6118980     1.3746640    -0.0001560
  O       -2.6294380    -1.3322590    -0.0001410
  C        0.0590550    -0.4958080     0.0000270
  C       -1.0635090     0.5281750     0.0000410
  C        1.4119940     0.1700650    -0.0000220
  C       -2.4159880    -0.1313140    -0.0000070
  C        3.7306770    -0.1974070     0.0000330
  H       -0.0086930    -1.1555200     0.8707660
  H       -0.0087430    -1.1555360    -0.8706970
  H       -0.9969410     1.1888870    -0.8701370
  H       -0.9969750     1.1888400     0.8702580
  H        4.3972900    -1.0573420     0.0001120
  H        3.8858800     0.4149390     0.8894490
  H        3.8858720     0.4147700    -0.8895010
  H       -4.2644503     0.2686890     0.0000579
units angstrom
no_reorient  #important for SAPT in psi4, default
symmetry c1  #important for SAPT in psi4, default
}

set PROPERTIES_ORIGIN ["COM"]
properties('MP2/aug-cc-pvtz', properties = ['dipole'])
--------------------------------------------------------------------------

    Molecular point group: c1
  Charge       = 0
  Multiplicity = 1
  Basis Set: AUG-CC-PVTZ
    Blend: AUG-CC-PVTZ
  Basis Set: (AUG-CC-PVTZ AUX)
    Blend: AUG-CC-PVTZ-JKFIT

    Orbital Energies [Eh]
    ---------------------

    Doubly Occupied:

       1A    -20.622428     2A    -20.611834     3A    -20.558949
       4A    -20.554438     5A    -11.397194     6A    -11.390157
       7A    -11.290431     8A    -11.258348     9A    -11.256455
      10A     -1.463388    11A     -1.461714    12A     -1.361824
      13A     -1.361232    14A     -1.097128    15A     -0.998413
      16A     -0.931062    17A     -0.811396    18A     -0.771789
      19A     -0.724940    20A     -0.707151    21A     -0.689719
      22A     -0.678722    23A     -0.667700    24A     -0.661360
      25A     -0.610548    26A     -0.600855    27A     -0.566472
      28A     -0.549311    29A     -0.544279    30A     -0.534797
      31A     -0.510772    32A     -0.488851    33A     -0.469936
      34A     -0.463821    35A     -0.457113

  @DF-RHF Final Energy:  -493.67493949865872

   => Energetics <=

    Nuclear Repulsion Energy =            445.1640291729995624
    One-Electron Energy =               -1559.4288817800097604
    Two-Electron Energy =                 620.5899131083515385
    Total Energy =                       -493.6749394986586594
  Basis Set: (AUG-CC-PVTZ AUX)
    Blend: AUG-CC-PVTZ-RI
    Molecular point group: c1

    Geometry (in Angstrom), charge = 0, multiplicity = 1:

       Center              X                  Y                   Z               Mass
    ------------   -----------------  -----------------  -----------------  -----------------
         O            2.445031037566    -0.754619488650     0.000095250967    15.994914619570
         O           -3.369022962434     0.794096511350     0.000114250967    15.994914619570
         O            1.656360037566     1.375635511350    -0.000153749033    15.994914619570
         O           -2.584975962434    -1.331287488650    -0.000138749033    15.994914619570
         C            0.103517037566    -0.494836488650     0.000029250967    12.000000000000
         C           -1.019046962434     0.529146511350     0.000043250967    12.000000000000
         C            1.456456037566     0.171036511350    -0.000019749033    12.000000000000
         C           -2.371525962434    -0.130342488650    -0.000004749033    12.000000000000
         C            3.775139037566    -0.196435488650     0.000035250967    12.000000000000
         H            0.035769037566    -1.154548488650     0.870768250967     1.007825032230
         H            0.035719037566    -1.154564488650    -0.870694749033     1.007825032230
         H           -0.952478962434     1.189858511350    -0.870134749033     1.007825032230
         H           -0.952512962434     1.189811511350     0.870260250967     1.007825032230
         H            4.441752037566    -1.056370488650     0.000114250967     1.007825032230
         H            3.930342037566     0.415910511350     0.889451250967     1.007825032230
         H            3.930334037566     0.415741511350    -0.889498749033     1.007825032230
         H           -4.219988262434     0.269660511350     0.000060150967     1.007825032230

  Basis Set: AUG-CC-PVTZ
    Blend: AUG-CC-PVTZ
  Basis Set: (AUG-CC-PVTZ AUX)
    Blend: AUG-CC-PVTZ-JKFIT
	 Reference Energy          =    -493.6749394986587163 [Eh]
	 Singles Energy            =      -0.0000000000000000 [Eh]
	 Same-Spin Energy          =      -0.4753108241075382 [Eh]
	 Opposite-Spin Energy      =      -1.4704823272960394 [Eh]
	 Correlation Energy        =      -1.9457931514035778 [Eh]
	 Total Energy              =    -495.6207326500622798 [Eh]

	 ================> DF-SCS-MP2 Energies <==================
	-----------------------------------------------------------
	 SCS Same-Spin Scale       =       0.3333333333333333 [-]
	 SCS Opposite-Spin Scale   =       1.2000000000000000 [-]
	 SCS Same-Spin Energy      =      -0.1584369413691794 [Eh]
	 SCS Opposite-Spin Energy  =      -1.7645787927552472 [Eh]
	 SCS Correlation Energy    =      -1.9230157341244265 [Eh]
	 SCS Total Energy          =    -495.5979552327831357 [Eh]
	-----------------------------------------------------------

  Dipole Moment: [D]
     X:     0.6693      Y:    -0.1351      Z:     0.0003     Total:     0.6828

*** Psi4 exiting successfully. Buy a developer a beer!
