                               Psi4 1.4a3.dev225

  ==> Input File <==

--------------------------------------------------------------------------
#psi4
#
memory 32 gb

molecule  {
0 1
  O        2.4005690    -0.7555910     0.0000930
  O       -3.4134850     0.7931250     0.0001120
  O        1.6118980     1.3746640    -0.0001560
  O       -2.6294380    -1.3322590    -0.0001410
  C        0.0590550    -0.4958080     0.0000270
  C       -1.0635090     0.5281750     0.0000410
  C        1.4119940     0.1700650    -0.0000220
  C       -2.4159880    -0.1313140    -0.0000070
  C        3.7306770    -0.1974070     0.0000330
  H       -0.0086930    -1.1555200     0.8707660
  H       -0.0087430    -1.1555360    -0.8706970
  H       -0.9969410     1.1888870    -0.8701370
  H       -0.9957593     1.2009112     0.8861580
  H        4.3972900    -1.0573420     0.0001120
  H        3.8858800     0.4149390     0.8894490
  H        3.8858720     0.4147700    -0.8895010
  H       -4.2474240     0.2791820     0.0000590
units angstrom
no_reorient  #important for SAPT in psi4, default
symmetry c1  #important for SAPT in psi4, default
}

set PROPERTIES_ORIGIN ["COM"]
properties('MP2/aug-cc-pvtz', properties = ['dipole'])
--------------------------------------------------------------------------

    Molecular point group: c1
  Charge       = 0
  Multiplicity = 1
  Basis Set: AUG-CC-PVTZ
    Blend: AUG-CC-PVTZ
  Basis Set: (AUG-CC-PVTZ AUX)
    Blend: AUG-CC-PVTZ-JKFIT

    Orbital Energies [Eh]
    ---------------------

    Doubly Occupied:

       1A    -20.621159     2A    -20.611909     3A    -20.559393
       4A    -20.554490     5A    -11.397676     6A    -11.390239
       7A    -11.290489     8A    -11.260613     9A    -11.256723
      10A     -1.466060    11A     -1.461855    12A     -1.363732
      13A     -1.361357    14A     -1.096727    15A     -0.998413
      16A     -0.931718    17A     -0.813670    18A     -0.771758
      19A     -0.725179    20A     -0.708914    21A     -0.689450
      22A     -0.678663    23A     -0.667987    24A     -0.660970
      25A     -0.610857    26A     -0.601837    27A     -0.566856
      28A     -0.548671    29A     -0.544131    30A     -0.534908
      31A     -0.510089    32A     -0.489346    33A     -0.469963
      34A     -0.464083    35A     -0.457235

  @DF-RHF Final Energy:  -493.67595932326952

   => Energetics <=

    Nuclear Repulsion Energy =            445.1864157715427837
    One-Electron Energy =               -1559.4505099459581743
    Two-Electron Energy =                 620.5881348511456963
    Total Energy =                       -493.6759593232695806
  Basis Set: (AUG-CC-PVTZ AUX)
    Blend: AUG-CC-PVTZ-RI
    Molecular point group: c1

    Geometry (in Angstrom), charge = 0, multiplicity = 1:

       Center              X                  Y                   Z               Mass
    ------------   -----------------  -----------------  -----------------  -----------------
         O            2.444891803775    -0.754791712042    -0.000026115683    15.994914619570
         O           -3.369162196225     0.793924287958    -0.000007115683    15.994914619570
         O            1.656220803775     1.375463287958    -0.000275115683    15.994914619570
         O           -2.585115196225    -1.331459712042    -0.000260115683    15.994914619570
         C            0.103377803775    -0.495008712042    -0.000092115683    12.000000000000
         C           -1.019186196225     0.528974287958    -0.000078115683    12.000000000000
         C            1.456316803775     0.170864287958    -0.000141115683    12.000000000000
         C           -2.371665196225    -0.130514712042    -0.000126115683    12.000000000000
         C            3.774999803775    -0.196607712042    -0.000086115683    12.000000000000
         H            0.035629803775    -1.154720712042     0.870646884317     1.007825032230
         H            0.035579803775    -1.154736712042    -0.870816115683     1.007825032230
         H           -0.952618196225     1.189686287958    -0.870256115683     1.007825032230
         H           -0.951436496225     1.201710487958     0.886038884317     1.007825032230
         H            4.441612803775    -1.056542712042    -0.000007115683     1.007825032230
         H            3.930202803775     0.415738287958     0.889329884317     1.007825032230
         H            3.930194803775     0.415569287958    -0.889620115683     1.007825032230
         H           -4.203101196225     0.279981287958    -0.000060115683     1.007825032230

  Basis Set: AUG-CC-PVTZ
    Blend: AUG-CC-PVTZ
  Basis Set: (AUG-CC-PVTZ AUX)
    Blend: AUG-CC-PVTZ-JKFIT
	 Reference Energy          =    -493.6759593232695238 [Eh]
	 Singles Energy            =      -0.0000000000000000 [Eh]
	 Same-Spin Energy          =      -0.4750776689364585 [Eh]
	 Opposite-Spin Energy      =      -1.4700244911611238 [Eh]
	 Correlation Energy        =      -1.9451021600975822 [Eh]
	 Total Energy              =    -495.6210614833671002 [Eh]

	 ================> DF-SCS-MP2 Energies <==================
	-----------------------------------------------------------
	 SCS Same-Spin Scale       =       0.3333333333333333 [-]
	 SCS Opposite-Spin Scale   =       1.2000000000000000 [-]
	 SCS Same-Spin Energy      =      -0.1583592229788195 [Eh]
	 SCS Opposite-Spin Energy  =      -1.7640293893933485 [Eh]
	 SCS Correlation Energy    =      -1.9223886123721681 [Eh]
	 SCS Total Energy          =    -495.5983479356416979 [Eh]
	-----------------------------------------------------------

  Dipole Moment: [D]
     X:     0.6957      Y:    -0.1299      Z:    -0.0007     Total:     0.7077

*** Psi4 exiting successfully. Buy a developer a beer!
