                               Psi4 1.4a3.dev225

  ==> Input File <==

--------------------------------------------------------------------------
#psi4
#
memory 32 gb

molecule  {
0 1
  O        2.4005690    -0.7555910     0.0000930
  O       -3.4134850     0.7931250     0.0001120
  O        1.6118980     1.3746640    -0.0001560
  O       -2.6294380    -1.3322590    -0.0001410
  C        0.0590550    -0.4958080     0.0000270
  C       -1.0635090     0.5281750     0.0000410
  C        1.4119940     0.1700650    -0.0000220
  C       -2.4159880    -0.1313140    -0.0000070
  C        3.7306770    -0.1974070     0.0000330
  H       -0.0086930    -1.1555200     0.8707660
  H       -0.0087430    -1.1555360    -0.8706970
  H       -0.9969410     1.1888870    -0.8701370
  H       -0.9969750     1.1888400     0.8702580
  H        4.4115399    -1.0454600    -0.0330258
  H        3.8858800     0.4149390     0.8894490
  H        3.8858720     0.4147700    -0.8895010
  H       -4.2474240     0.2791820     0.0000590
units angstrom
no_reorient  #important for SAPT in psi4, default
symmetry c1  #important for SAPT in psi4, default
}

set PROPERTIES_ORIGIN ["COM"]
properties('MP2/aug-cc-pvtz', properties = ['dipole'])
--------------------------------------------------------------------------

    Molecular point group: c1
  Charge       = 0
  Multiplicity = 1
  Basis Set: AUG-CC-PVTZ
    Blend: AUG-CC-PVTZ
  Basis Set: (AUG-CC-PVTZ AUX)
    Blend: AUG-CC-PVTZ-JKFIT

    Orbital Energies [Eh]
    ---------------------

    Doubly Occupied:

       1A    -20.621251     2A    -20.612165     3A    -20.559365
       4A    -20.554532     5A    -11.397610     6A    -11.390400
       7A    -11.290466     8A    -11.258490     9A    -11.256622
      10A     -1.466112    11A     -1.461907    12A     -1.363743
      13A     -1.361390    14A     -1.097440    15A     -0.998765
      16A     -0.932033    17A     -0.814354    18A     -0.772232
      19A     -0.725431    20A     -0.708952    21A     -0.689921
      22A     -0.679092    23A     -0.668339    24A     -0.661651
      25A     -0.611087    26A     -0.601954    27A     -0.567195
      28A     -0.549569    29A     -0.544682    30A     -0.534045
      31A     -0.510920    32A     -0.489424    33A     -0.470044
      34A     -0.464165    35A     -0.457343

  @DF-RHF Final Energy:  -493.67641986172117

   => Energetics <=

    Nuclear Repulsion Energy =            445.2619623877959611
    One-Electron Energy =               -1559.5913848393581702
    Two-Electron Energy =                 620.6530025898409804
    Total Energy =                       -493.6764198617211150
  Basis Set: (AUG-CC-PVTZ AUX)
    Blend: AUG-CC-PVTZ-RI
    Molecular point group: c1

    Geometry (in Angstrom), charge = 0, multiplicity = 1:

       Center              X                  Y                   Z               Mass
    ------------   -----------------  -----------------  -----------------  -----------------
         O            2.444792319010    -0.754790267955     0.000348169965    15.994914619570
         O           -3.369261680990     0.793925732045     0.000367169965    15.994914619570
         O            1.656121319010     1.375464732045     0.000099169965    15.994914619570
         O           -2.585214680990    -1.331458267955     0.000114169965    15.994914619570
         C            0.103278319010    -0.495007267955     0.000282169965    12.000000000000
         C           -1.019285680990     0.528975732045     0.000296169965    12.000000000000
         C            1.456217319010     0.170865732045     0.000233169965    12.000000000000
         C           -2.371764680990    -0.130513267955     0.000248169965    12.000000000000
         C            3.774900319010    -0.196606267955     0.000288169965    12.000000000000
         H            0.035530319010    -1.154719267955     0.871021169965     1.007825032230
         H            0.035480319010    -1.154735267955    -0.870441830035     1.007825032230
         H           -0.952717680990     1.189687732045    -0.869881830035     1.007825032230
         H           -0.952751680990     1.189640732045     0.870513169965     1.007825032230
         H            4.455763219010    -1.044659267955    -0.032770630035     1.007825032230
         H            3.930103319010     0.415739732045     0.889704169965     1.007825032230
         H            3.930095319010     0.415570732045    -0.889245830035     1.007825032230
         H           -4.203200680990     0.279982732045     0.000314169965     1.007825032230

  Basis Set: AUG-CC-PVTZ
    Blend: AUG-CC-PVTZ
  Basis Set: (AUG-CC-PVTZ AUX)
    Blend: AUG-CC-PVTZ-JKFIT
	 Reference Energy          =    -493.6764198617211719 [Eh]
	 Singles Energy            =      -0.0000000000000000 [Eh]
	 Same-Spin Energy          =      -0.4750516794604632 [Eh]
	 Opposite-Spin Energy      =      -1.4698715711979862 [Eh]
	 Correlation Energy        =      -1.9449232506584493 [Eh]
	 Total Energy              =    -495.6213431123796340 [Eh]

	 ================> DF-SCS-MP2 Energies <==================
	-----------------------------------------------------------
	 SCS Same-Spin Scale       =       0.3333333333333333 [-]
	 SCS Opposite-Spin Scale   =       1.2000000000000000 [-]
	 SCS Same-Spin Energy      =      -0.1583505598201544 [Eh]
	 SCS Opposite-Spin Energy  =      -1.7638458854375834 [Eh]
	 SCS Correlation Energy    =      -1.9221964452577378 [Eh]
	 SCS Total Energy          =    -495.5986163069788972 [Eh]
	-----------------------------------------------------------

  Dipole Moment: [D]
     X:     0.6954      Y:    -0.1263      Z:    -0.0133     Total:     0.7069

*** Psi4 exiting successfully. Buy a developer a beer!
