                               Psi4 1.4a3.dev225

  ==> Input File <==

--------------------------------------------------------------------------
#psi4
#
memory 32 gb

molecule  {
0 1
  O        2.4005690    -0.7555910     0.0000930
  O       -3.4134850     0.7931250     0.0001120
  O        1.6118980     1.3746640    -0.0001560
  O       -2.6294380    -1.3322590    -0.0001410
  C        0.0590550    -0.4958080     0.0000270
  C       -1.0635090     0.5281750     0.0000410
  C        1.4201796     0.2193904    -0.0000275
  C       -2.4159880    -0.1313140    -0.0000070
  C        3.7306770    -0.1974070     0.0000330
  H       -0.0086930    -1.1555200     0.8707660
  H       -0.0087430    -1.1555360    -0.8706970
  H       -0.9969410     1.1888870    -0.8701370
  H       -0.9969750     1.1888400     0.8702580
  H        4.3972900    -1.0573420     0.0001120
  H        3.8858800     0.4149390     0.8894490
  H        3.8858720     0.4147700    -0.8895010
  H       -4.2474240     0.2791820     0.0000590
units angstrom
no_reorient  #important for SAPT in psi4, default
symmetry c1  #important for SAPT in psi4, default
}

set PROPERTIES_ORIGIN ["COM"]
properties('MP2/aug-cc-pvtz', properties = ['dipole'])
--------------------------------------------------------------------------

    Molecular point group: c1
  Charge       = 0
  Multiplicity = 1
  Basis Set: AUG-CC-PVTZ
    Blend: AUG-CC-PVTZ
  Basis Set: (AUG-CC-PVTZ AUX)
    Blend: AUG-CC-PVTZ-JKFIT

    Orbital Energies [Eh]
    ---------------------

    Doubly Occupied:

       1A    -20.620787     2A    -20.603920     3A    -20.564226
       4A    -20.558839     5A    -11.396932     6A    -11.386461
       7A    -11.286564     8A    -11.257477     9A    -11.255134
      10A     -1.470398    11A     -1.465533    12A     -1.378741
      13A     -1.363171    14A     -1.093574    15A     -0.990211
      16A     -0.925809    17A     -0.811715    18A     -0.769786
      19A     -0.727009    20A     -0.709215    21A     -0.688179
      22A     -0.687815    23A     -0.665861    24A     -0.659925
      25A     -0.609587    26A     -0.603246    27A     -0.570334
      28A     -0.557370    29A     -0.542249    30A     -0.534313
      31A     -0.514698    32A     -0.488852    33A     -0.473273
      34A     -0.462186    35A     -0.457592

  @DF-RHF Final Energy:  -493.67529155439297

   => Energetics <=

    Nuclear Repulsion Energy =            445.4514433583118489
    One-Electron Energy =               -1559.9515047754255193
    Two-Electron Energy =                 620.8247698627205864
    Total Energy =                       -493.6752915543929703
  Basis Set: (AUG-CC-PVTZ AUX)
    Blend: AUG-CC-PVTZ-RI
    Molecular point group: c1

    Geometry (in Angstrom), charge = 0, multiplicity = 1:

       Center              X                  Y                   Z               Mass
    ------------   -----------------  -----------------  -----------------  -----------------
         O            2.444157175422    -0.759182269641     0.000095742412    15.994914619570
         O           -3.369896824578     0.789533730359     0.000114742412    15.994914619570
         O            1.655486175422     1.371072730359    -0.000153257588    15.994914619570
         O           -2.585849824578    -1.335850269641    -0.000138257588    15.994914619570
         C            0.102643175422    -0.499399269641     0.000029742412    12.000000000000
         C           -1.019920824578     0.524583730359     0.000043742412    12.000000000000
         C            1.463767775422     0.215799130359    -0.000024757588    12.000000000000
         C           -2.372399824578    -0.134905269641    -0.000004257588    12.000000000000
         C            3.774265175422    -0.200998269641     0.000035742412    12.000000000000
         H            0.034895175422    -1.159111269641     0.870768742412     1.007825032230
         H            0.034845175422    -1.159127269641    -0.870694257588     1.007825032230
         H           -0.953352824578     1.185295730359    -0.870134257588     1.007825032230
         H           -0.953386824578     1.185248730359     0.870260742412     1.007825032230
         H            4.440878175422    -1.060933269641     0.000114742412     1.007825032230
         H            3.929468175422     0.411347730359     0.889451742412     1.007825032230
         H            3.929460175422     0.411178730359    -0.889498257588     1.007825032230
         H           -4.203835824578     0.275590730359     0.000061742412     1.007825032230

  Basis Set: AUG-CC-PVTZ
    Blend: AUG-CC-PVTZ
  Basis Set: (AUG-CC-PVTZ AUX)
    Blend: AUG-CC-PVTZ-JKFIT
	 Reference Energy          =    -493.6752915543929703 [Eh]
	 Singles Energy            =      -0.0000000000000000 [Eh]
	 Same-Spin Energy          =      -0.4742226867169902 [Eh]
	 Opposite-Spin Energy      =      -1.4684706139053534 [Eh]
	 Correlation Energy        =      -1.9426933006223437 [Eh]
	 Total Energy              =    -495.6179848550153224 [Eh]

	 ================> DF-SCS-MP2 Energies <==================
	-----------------------------------------------------------
	 SCS Same-Spin Scale       =       0.3333333333333333 [-]
	 SCS Opposite-Spin Scale   =       1.2000000000000000 [-]
	 SCS Same-Spin Energy      =      -0.1580742289056634 [Eh]
	 SCS Opposite-Spin Energy  =      -1.7621647366864239 [Eh]
	 SCS Correlation Energy    =      -1.9202389655920873 [Eh]
	 SCS Total Energy          =    -495.5955305199850613 [Eh]
	-----------------------------------------------------------

  Dipole Moment: [D]
     X:     0.6241      Y:     0.1964      Z:     0.0003     Total:     0.6543

*** Psi4 exiting successfully. Buy a developer a beer!
