                               Psi4 1.4a3.dev225

  ==> Input File <==

--------------------------------------------------------------------------
#psi4
#
memory 32 gb

molecule  {
0 1
  O        2.4005690    -0.7555910     0.0000930
  O       -3.4134850     0.7931250     0.0001120
  O        1.6118980     1.3746640    -0.0001560
  O       -2.6294380    -1.3322590    -0.0001410
  C        0.0590550    -0.4958080     0.0000270
  C       -1.0635090     0.5281750     0.0000410
  C        1.4119940     0.1700650    -0.0000220
  C       -2.4159880    -0.1313140    -0.0000070
  C        3.7306770    -0.1974070     0.0000330
  H       -0.0086930    -1.1555200     0.8707660
  H       -0.0099819    -1.1675910    -0.8866075
  H       -0.9969410     1.1888870    -0.8701370
  H       -0.9969750     1.1888400     0.8702580
  H        4.3972900    -1.0573420     0.0001120
  H        3.8858800     0.4149390     0.8894490
  H        3.8858720     0.4147700    -0.8895010
  H       -4.2474240     0.2791820     0.0000590
units angstrom
no_reorient  #important for SAPT in psi4, default
symmetry c1  #important for SAPT in psi4, default
}

set PROPERTIES_ORIGIN ["COM"]
properties('MP2/aug-cc-pvtz', properties = ['dipole'])
--------------------------------------------------------------------------

    Molecular point group: c1
  Charge       = 0
  Multiplicity = 1
  Basis Set: AUG-CC-PVTZ
    Blend: AUG-CC-PVTZ
  Basis Set: (AUG-CC-PVTZ AUX)
    Blend: AUG-CC-PVTZ-JKFIT

    Orbital Energies [Eh]
    ---------------------

    Doubly Occupied:

       1A    -20.621242     2A    -20.611834     3A    -20.559319
       4A    -20.554576     5A    -11.397588     6A    -11.390339
       7A    -11.290452     8A    -11.259023     9A    -11.258331
      10A     -1.466091    11A     -1.461834    12A     -1.363707
      13A     -1.361397    14A     -1.096722    15A     -0.998681
      16A     -0.931202    17A     -0.814199    18A     -0.771581
      19A     -0.725109    20A     -0.708807    21A     -0.689249
      22A     -0.678953    23A     -0.667823    24A     -0.661546
      25A     -0.610079    26A     -0.601771    27A     -0.566923
      28A     -0.549515    29A     -0.544193    30A     -0.534865
      31A     -0.509497    32A     -0.489385    33A     -0.469995
      34A     -0.464120    35A     -0.457216

  @DF-RHF Final Energy:  -493.67595462373544

   => Energetics <=

    Nuclear Repulsion Energy =            445.1853488752577164
    One-Electron Energy =               -1559.4482701239369362
    Two-Electron Energy =                 620.5869666249438978
    Total Energy =                       -493.6759546237353788
  Basis Set: (AUG-CC-PVTZ AUX)
    Blend: AUG-CC-PVTZ-RI
    Molecular point group: c1

    Geometry (in Angstrom), charge = 0, multiplicity = 1:

       Center              X                  Y                   Z               Mass
    ------------   -----------------  -----------------  -----------------  -----------------
         O            2.444910538742    -0.754607566538     0.000216680968    15.994914619570
         O           -3.369143461258     0.794108433462     0.000235680968    15.994914619570
         O            1.656239538742     1.375647433462    -0.000032319032    15.994914619570
         O           -2.585096461258    -1.331275566538    -0.000017319032    15.994914619570
         C            0.103396538742    -0.494824566538     0.000150680968    12.000000000000
         C           -1.019167461258     0.529158433462     0.000164680968    12.000000000000
         C            1.456335538742     0.171048433462     0.000101680968    12.000000000000
         C           -2.371646461258    -0.130330566538     0.000116680968    12.000000000000
         C            3.775018538742    -0.196423566538     0.000156680968    12.000000000000
         H            0.035648538742    -1.154536566538     0.870889680968     1.007825032230
         H            0.034359638742    -1.166607566538    -0.886483819032     1.007825032230
         H           -0.952599461258     1.189870433462    -0.870013319032     1.007825032230
         H           -0.952633461258     1.189823433462     0.870381680968     1.007825032230
         H            4.441631538742    -1.056358566538     0.000235680968     1.007825032230
         H            3.930221538742     0.415922433462     0.889572680968     1.007825032230
         H            3.930213538742     0.415753433462    -0.889377319032     1.007825032230
         H           -4.203082461258     0.280165433462     0.000182680968     1.007825032230

  Basis Set: AUG-CC-PVTZ
    Blend: AUG-CC-PVTZ
  Basis Set: (AUG-CC-PVTZ AUX)
    Blend: AUG-CC-PVTZ-JKFIT
	 Reference Energy          =    -493.6759546237354357 [Eh]
	 Singles Energy            =      -0.0000000000000000 [Eh]
	 Same-Spin Energy          =      -0.4750782151900316 [Eh]
	 Opposite-Spin Energy      =      -1.4700280384002447 [Eh]
	 Correlation Energy        =      -1.9451062535902763 [Eh]
	 Total Energy              =    -495.6210608773257036 [Eh]

	 ================> DF-SCS-MP2 Energies <==================
	-----------------------------------------------------------
	 SCS Same-Spin Scale       =       0.3333333333333333 [-]
	 SCS Opposite-Spin Scale   =       1.2000000000000000 [-]
	 SCS Same-Spin Energy      =      -0.1583594050633438 [Eh]
	 SCS Opposite-Spin Energy  =      -1.7640336460802934 [Eh]
	 SCS Correlation Energy    =      -1.9223930511436373 [Eh]
	 SCS Total Energy          =    -495.5983476748790508 [Eh]
	-----------------------------------------------------------

  Dipole Moment: [D]
     X:     0.6905      Y:    -0.1268      Z:     0.0017     Total:     0.7020

*** Psi4 exiting successfully. Buy a developer a beer!
