                               Psi4 1.4a3.dev225

  ==> Input File <==

--------------------------------------------------------------------------
#psi4
#
memory 32 gb

molecule  {
0 1
  O        2.4005690    -0.7555910     0.0000930
  O       -3.4134850     0.7931250     0.0001120
  O        1.6118980     1.3746640    -0.0001560
  O       -2.6294380    -1.3322590    -0.0001410
  C        0.0590550    -0.4958080     0.0000270
  C       -1.0635090     0.5281750     0.0000410
  C        1.5141669     0.2683284    -0.0000332
  C       -2.4159880    -0.1313140    -0.0000070
  C        3.7306770    -0.1974070     0.0000330
  H       -0.0086930    -1.1555200     0.8707660
  H       -0.0087430    -1.1555360    -0.8706970
  H       -0.9969410     1.1888870    -0.8701370
  H       -0.9969750     1.1888400     0.8702580
  H        4.3972900    -1.0573420     0.0001120
  H        3.8858800     0.4149390     0.8894490
  H        3.8858720     0.4147700    -0.8895010
  H       -4.2474240     0.2791820     0.0000590
units angstrom
no_reorient  #important for SAPT in psi4, default
symmetry c1  #important for SAPT in psi4, default
}

set PROPERTIES_ORIGIN ["COM"]
properties('MP2/aug-cc-pvtz', properties = ['dipole'])
--------------------------------------------------------------------------

    Molecular point group: c1
  Charge       = 0
  Multiplicity = 1
  Basis Set: AUG-CC-PVTZ
    Blend: AUG-CC-PVTZ
  Basis Set: (AUG-CC-PVTZ AUX)
    Blend: AUG-CC-PVTZ-JKFIT

    Orbital Energies [Eh]
    ---------------------

    Doubly Occupied:

       1A    -20.616570     2A    -20.612388     3A    -20.571078
       4A    -20.553737     5A    -11.391671     6A    -11.380719
       7A    -11.291318     8A    -11.250165     9A    -11.244188
      10A     -1.507455    11A     -1.461019    12A     -1.410957
      13A     -1.358323    14A     -1.076972    15A     -0.985743
      16A     -0.914337    17A     -0.806044    18A     -0.776845
      19A     -0.728789    20A     -0.709076    21A     -0.699154
      22A     -0.695873    23A     -0.668482    24A     -0.659217
      25A     -0.604938    26A     -0.602963    27A     -0.573763
      28A     -0.572364    29A     -0.548694    30A     -0.530309
      31A     -0.510359    32A     -0.485004    33A     -0.483482
      34A     -0.457180    35A     -0.434005

  @DF-RHF Final Energy:  -493.65259926869606

   => Energetics <=

    Nuclear Repulsion Energy =            445.8234938458957686
    One-Electron Energy =               -1560.6058245966391951
    Two-Electron Energy =                 621.1297314820473048
    Total Energy =                       -493.6525992686960080
  Basis Set: (AUG-CC-PVTZ AUX)
    Blend: AUG-CC-PVTZ-RI
    Molecular point group: c1

    Geometry (in Angstrom), charge = 0, multiplicity = 1:

       Center              X                  Y                   Z               Mass
    ------------   -----------------  -----------------  -----------------  -----------------
         O            2.435615609935    -0.763629754905     0.000096260427    15.994914619570
         O           -3.378438390065     0.785086245095     0.000115260427    15.994914619570
         O            1.646944609935     1.366625245095    -0.000152739573    15.994914619570
         O           -2.594391390065    -1.340297754905    -0.000137739573    15.994914619570
         C            0.094101609935    -0.503846754905     0.000030260427    12.000000000000
         C           -1.028462390065     0.520136245095     0.000044260427    12.000000000000
         C            1.549213509935     0.260289645095    -0.000029939573    12.000000000000
         C           -2.380941390065    -0.139352754905    -0.000003739573    12.000000000000
         C            3.765723609935    -0.205445754905     0.000036260427    12.000000000000
         H            0.026353609935    -1.163558754905     0.870769260427     1.007825032230
         H            0.026303609935    -1.163574754905    -0.870693739573     1.007825032230
         H           -0.961894390065     1.180848245095    -0.870133739573     1.007825032230
         H           -0.961928390065     1.180801245095     0.870261260427     1.007825032230
         H            4.432336609935    -1.065380754905     0.000115260427     1.007825032230
         H            3.920926609935     0.406900245095     0.889452260427     1.007825032230
         H            3.920918609935     0.406731245095    -0.889497739573     1.007825032230
         H           -4.212377390065     0.271143245095     0.000062260427     1.007825032230

  Basis Set: AUG-CC-PVTZ
    Blend: AUG-CC-PVTZ
  Basis Set: (AUG-CC-PVTZ AUX)
    Blend: AUG-CC-PVTZ-JKFIT
	 Reference Energy          =    -493.6525992686960649 [Eh]
	 Singles Energy            =      -0.0000000000000000 [Eh]
	 Same-Spin Energy          =      -0.4731573517731196 [Eh]
	 Opposite-Spin Energy      =      -1.4664433448734997 [Eh]
	 Correlation Energy        =      -1.9396006966466193 [Eh]
	 Total Energy              =    -495.5921999653426724 [Eh]

	 ================> DF-SCS-MP2 Energies <==================
	-----------------------------------------------------------
	 SCS Same-Spin Scale       =       0.3333333333333333 [-]
	 SCS Opposite-Spin Scale   =       1.2000000000000000 [-]
	 SCS Same-Spin Energy      =      -0.1577191172577065 [Eh]
	 SCS Opposite-Spin Energy  =      -1.7597320138481995 [Eh]
	 SCS Correlation Energy    =      -1.9174511311059061 [Eh]
	 SCS Total Energy          =    -495.5700503998019713 [Eh]
	-----------------------------------------------------------

  Dipole Moment: [D]
     X:     1.3190      Y:     0.4847      Z:     0.0002     Total:     1.4052

*** Psi4 exiting successfully. Buy a developer a beer!
