                               Psi4 1.4a3.dev225

  ==> Input File <==

--------------------------------------------------------------------------
#psi4
#
memory 32 gb

molecule  {
0 1
  O        2.4005690    -0.7555910     0.0000930
  O       -3.4134850     0.7931250     0.0001120
  O        1.6118980     1.3746640    -0.0001560
  O       -2.6294380    -1.3322590    -0.0001410
  C        0.0590550    -0.4958080     0.0000270
  C       -1.0635090     0.5281750     0.0000410
  C        1.4119940     0.1700650    -0.0000220
  C       -2.4159880    -0.1313140    -0.0000070
  C        3.7306770    -0.1974070     0.0000330
  H       -0.0086930    -1.1555200     0.8707660
  H       -0.0087430    -1.1555360    -0.8706970
  H       -0.9969410     1.1888870    -0.8701370
  H       -0.9969750     1.1888400     0.8702580
  H        4.3972900    -1.0573420     0.0001120
  H        3.8858800     0.4149390     0.8894490
  H        3.8929850     0.4428277    -0.9302707
  H       -4.2474240     0.2791820     0.0000590
units angstrom
no_reorient  #important for SAPT in psi4, default
symmetry c1  #important for SAPT in psi4, default
}

set PROPERTIES_ORIGIN ["COM"]
properties('MP2/aug-cc-pvtz', properties = ['dipole'])
--------------------------------------------------------------------------

    Molecular point group: c1
  Charge       = 0
  Multiplicity = 1
  Basis Set: AUG-CC-PVTZ
    Blend: AUG-CC-PVTZ
  Basis Set: (AUG-CC-PVTZ AUX)
    Blend: AUG-CC-PVTZ-JKFIT

    Orbital Energies [Eh]
    ---------------------

    Doubly Occupied:

       1A    -20.621286     2A    -20.612686     3A    -20.559406
       4A    -20.554644     5A    -11.397651     6A    -11.390385
       7A    -11.296169     8A    -11.258541     9A    -11.256687
      10A     -1.466152    11A     -1.462171    12A     -1.363784
      13A     -1.361584    14A     -1.097449    15A     -0.997198
      16A     -0.929776    17A     -0.813565    18A     -0.771139
      19A     -0.725518    20A     -0.708980    21A     -0.689035
      22A     -0.678567    23A     -0.668258    24A     -0.660345
      25A     -0.609953    26A     -0.601862    27A     -0.566936
      28A     -0.547173    29A     -0.544670    30A     -0.533063
      31A     -0.510272    32A     -0.489438    33A     -0.468978
      34A     -0.464192    35A     -0.457375

  @DF-RHF Final Energy:  -493.67425663017440

   => Energetics <=

    Nuclear Repulsion Energy =            445.0780385083295982
    One-Electron Energy =               -1559.2348135578502024
    Two-Electron Energy =                 620.4825184193462064
    Total Energy =                       -493.6742566301743409
  Basis Set: (AUG-CC-PVTZ AUX)
    Blend: AUG-CC-PVTZ-RI
    Molecular point group: c1

    Geometry (in Angstrom), charge = 0, multiplicity = 1:

       Center              X                  Y                   Z               Mass
    ------------   -----------------  -----------------  -----------------  -----------------
         O            2.444846792075    -0.754913730515     0.000406421164    15.994914619570
         O           -3.369207207925     0.793802269485     0.000425421164    15.994914619570
         O            1.656175792075     1.375341269485     0.000157421164    15.994914619570
         O           -2.585160207925    -1.331581730515     0.000172421164    15.994914619570
         C            0.103332792075    -0.495130730515     0.000340421164    12.000000000000
         C           -1.019231207925     0.528852269485     0.000354421164    12.000000000000
         C            1.456271792075     0.170742269485     0.000291421164    12.000000000000
         C           -2.371710207925    -0.130636730515     0.000306421164    12.000000000000
         C            3.774954792075    -0.196729730515     0.000346421164    12.000000000000
         H            0.035584792075    -1.154842730515     0.871079421164     1.007825032230
         H            0.035534792075    -1.154858730515    -0.870383578836     1.007825032230
         H           -0.952663207925     1.189564269485    -0.869823578836     1.007825032230
         H           -0.952697207925     1.189517269485     0.870571421164     1.007825032230
         H            4.441567792075    -1.056664730515     0.000425421164     1.007825032230
         H            3.930157792075     0.415616269485     0.889762421164     1.007825032230
         H            3.937262792075     0.443504969485    -0.929957278836     1.007825032230
         H           -4.203146207925     0.279859269485     0.000372421164     1.007825032230

  Basis Set: AUG-CC-PVTZ
    Blend: AUG-CC-PVTZ
  Basis Set: (AUG-CC-PVTZ AUX)
    Blend: AUG-CC-PVTZ-JKFIT
	 Reference Energy          =    -493.6742566301743977 [Eh]
	 Singles Energy            =      -0.0000000000000000 [Eh]
	 Same-Spin Energy          =      -0.4751192153841714 [Eh]
	 Opposite-Spin Energy      =      -1.4702857453244704 [Eh]
	 Correlation Energy        =      -1.9454049607086419 [Eh]
	 Total Energy              =    -495.6196615908830267 [Eh]

	 ================> DF-SCS-MP2 Energies <==================
	-----------------------------------------------------------
	 SCS Same-Spin Scale       =       0.3333333333333333 [-]
	 SCS Opposite-Spin Scale   =       1.2000000000000000 [-]
	 SCS Same-Spin Energy      =      -0.1583730717947238 [Eh]
	 SCS Opposite-Spin Energy  =      -1.7643428943893644 [Eh]
	 SCS Correlation Energy    =      -1.9227159661840882 [Eh]
	 SCS Total Energy          =    -495.5969725963585120 [Eh]
	-----------------------------------------------------------

  Dipole Moment: [D]
     X:     0.6731      Y:    -0.1345      Z:     0.0171     Total:     0.6866

*** Psi4 exiting successfully. Buy a developer a beer!
