                               Psi4 1.4a3.dev225

  ==> Input File <==

--------------------------------------------------------------------------
#psi4
#
memory 32 gb

molecule  {
0 1
  O        2.4005690    -0.7555910     0.0000930
  O       -3.4134850     0.7931250     0.0001120
  O        1.6118980     1.3746640    -0.0001560
  O       -2.6294380    -1.3322590    -0.0001410
  C        0.0590550    -0.4958080     0.0000270
  C       -1.0635090     0.5281750     0.0000410
  C        1.4119940     0.1700650    -0.0000220
  C       -2.4159880    -0.1313140    -0.0000070
  C        3.7306770    -0.1974070     0.0000330
  H       -0.0086930    -1.1555200     0.8707660
  H       -0.0087430    -1.1555360    -0.8706970
  H       -0.9969410     1.1888870    -0.8701370
  H       -0.9969750     1.1888400     0.8702580
  H        4.3972900    -1.0573420     0.0001120
  H        3.8858800     0.4149390     0.8894490
  H        3.9143240     0.5270008    -1.0525799
  H       -4.2474240     0.2791820     0.0000590
units angstrom
no_reorient  #important for SAPT in psi4, default
symmetry c1  #important for SAPT in psi4, default
}

set PROPERTIES_ORIGIN ["COM"]
properties('MP2/aug-cc-pvtz', properties = ['dipole'])
--------------------------------------------------------------------------

    Molecular point group: c1
  Charge       = 0
  Multiplicity = 1
  Basis Set: AUG-CC-PVTZ
    Blend: AUG-CC-PVTZ
  Basis Set: (AUG-CC-PVTZ AUX)
    Blend: AUG-CC-PVTZ-JKFIT

    Orbital Energies [Eh]
    ---------------------

    Doubly Occupied:

       1A    -20.621505     2A    -20.615628     3A    -20.559657
       4A    -20.555210     5A    -11.397919     6A    -11.391049
       7A    -11.312121     8A    -11.258906     9A    -11.257237
      10A     -1.466400    11A     -1.463539    12A     -1.364037
      13A     -1.362501    14A     -1.097786    15A     -0.994667
      16A     -0.925547    17A     -0.812454    18A     -0.769303
      19A     -0.725819    20A     -0.709205    21A     -0.687958
      22A     -0.678086    23A     -0.669197    24A     -0.656998
      25A     -0.608026    26A     -0.601857    27A     -0.567154
      28A     -0.545594    29A     -0.544378    30A     -0.525117
      31A     -0.506119    32A     -0.489548    33A     -0.464877
      34A     -0.463364    35A     -0.457534

  @DF-RHF Final Energy:  -493.65553010657612

   => Energetics <=

    Nuclear Repulsion Energy =            444.5228718843445108
    One-Electron Energy =               -1558.1042148921997068
    Two-Electron Energy =                 619.9258129012790732
    Total Energy =                       -493.6555301065760659
  Basis Set: (AUG-CC-PVTZ AUX)
    Blend: AUG-CC-PVTZ-RI
    Molecular point group: c1

    Geometry (in Angstrom), charge = 0, multiplicity = 1:

       Center              X                  Y                   Z               Mass
    ------------   -----------------  -----------------  -----------------  -----------------
         O            2.444683920138    -0.755556189665     0.001339957705    15.994914619570
         O           -3.369370079862     0.793159810335     0.001358957705    15.994914619570
         O            1.656012920138     1.374698810335     0.001090957705    15.994914619570
         O           -2.585323079862    -1.332224189665     0.001105957705    15.994914619570
         C            0.103169920138    -0.495773189665     0.001273957705    12.000000000000
         C           -1.019394079862     0.528209810335     0.001287957705    12.000000000000
         C            1.456108920138     0.170099810335     0.001224957705    12.000000000000
         C           -2.371873079862    -0.131279189665     0.001239957705    12.000000000000
         C            3.774791920138    -0.197372189665     0.001279957705    12.000000000000
         H            0.035421920138    -1.155485189665     0.872012957705     1.007825032230
         H            0.035371920138    -1.155501189665    -0.869450042295     1.007825032230
         H           -0.952826079862     1.188921810335    -0.868890042295     1.007825032230
         H           -0.952860079862     1.188874810335     0.871504957705     1.007825032230
         H            4.441404920138    -1.057307189665     0.001358957705     1.007825032230
         H            3.929994920138     0.414973810335     0.890695957705     1.007825032230
         H            3.958438920138     0.527035610335    -1.051332942295     1.007825032230
         H           -4.203309079862     0.279216810335     0.001305957705     1.007825032230

  Basis Set: AUG-CC-PVTZ
    Blend: AUG-CC-PVTZ
  Basis Set: (AUG-CC-PVTZ AUX)
    Blend: AUG-CC-PVTZ-JKFIT
	 Reference Energy          =    -493.6555301065761228 [Eh]
	 Singles Energy            =      -0.0000000000000000 [Eh]
	 Same-Spin Energy          =      -0.4753473412273520 [Eh]
	 Opposite-Spin Energy      =      -1.4718275003462933 [Eh]
	 Correlation Energy        =      -1.9471748415736454 [Eh]
	 Total Energy              =    -495.6027049481497784 [Eh]

	 ================> DF-SCS-MP2 Energies <==================
	-----------------------------------------------------------
	 SCS Same-Spin Scale       =       0.3333333333333333 [-]
	 SCS Opposite-Spin Scale   =       1.2000000000000000 [-]
	 SCS Same-Spin Energy      =      -0.1584491137424507 [Eh]
	 SCS Opposite-Spin Energy  =      -1.7661930004155519 [Eh]
	 SCS Correlation Energy    =      -1.9246421141580026 [Eh]
	 SCS Total Energy          =    -495.5801722207341413 [Eh]
	-----------------------------------------------------------

  Dipole Moment: [D]
     X:     0.5989      Y:    -0.1622      Z:     0.0849     Total:     0.6263

*** Psi4 exiting successfully. Buy a developer a beer!
