                               Psi4 1.4a3.dev225

  ==> Input File <==

--------------------------------------------------------------------------
#psi4
#
memory 32 gb

molecule  {
0 1
  O        2.4005690    -0.7555910     0.0000930
  O       -3.4134850     0.7931250     0.0001120
  O        1.6118980     1.3746640    -0.0001560
  O       -2.6294380    -1.3322590    -0.0001410
  C        0.0590550    -0.4958080     0.0000270
  C       -1.0635090     0.5281750     0.0000410
  C        1.4119940     0.1700650    -0.0000220
  C       -2.4159880    -0.1313140    -0.0000070
  C        3.7306770    -0.1974070     0.0000330
  H       -0.0086930    -1.1555200     0.8707660
  H       -0.0087430    -1.1555360    -0.8706970
  H       -0.9969410     1.1888870    -0.8701370
  H       -0.9969750     1.1888400     0.8702580
  H        4.3898594    -1.0628910     0.0166834
  H        3.8858800     0.4149390     0.8894490
  H        3.8858720     0.4147700    -0.8895010
  H       -4.2474240     0.2791820     0.0000590
units angstrom
no_reorient  #important for SAPT in psi4, default
symmetry c1  #important for SAPT in psi4, default
}

set PROPERTIES_ORIGIN ["COM"]
properties('MP2/aug-cc-pvtz', properties = ['dipole'])
--------------------------------------------------------------------------

    Molecular point group: c1
  Charge       = 0
  Multiplicity = 1
  Basis Set: AUG-CC-PVTZ
    Blend: AUG-CC-PVTZ
  Basis Set: (AUG-CC-PVTZ AUX)
    Blend: AUG-CC-PVTZ-JKFIT

    Orbital Energies [Eh]
    ---------------------

    Doubly Occupied:

       1A    -20.621221     2A    -20.611765     3A    -20.559331
       4A    -20.554504     5A    -11.397570     6A    -11.390151
       7A    -11.290488     8A    -11.258429     9A    -11.256513
      10A     -1.466080    11A     -1.461830    12A     -1.363711
      13A     -1.361366    14A     -1.097385    15A     -0.998861
      16A     -0.931849    17A     -0.814144    18A     -0.772179
      19A     -0.725568    20A     -0.708929    21A     -0.689828
      22A     -0.678866    23A     -0.667899    24A     -0.661638
      25A     -0.611014    26A     -0.601725    27A     -0.567091
      28A     -0.549529    29A     -0.544434    30A     -0.535224
      31A     -0.510893    32A     -0.489394    33A     -0.469978
      34A     -0.464079    35A     -0.457232

  @DF-RHF Final Energy:  -493.67646291969493

   => Energetics <=

    Nuclear Repulsion Energy =            445.2955335655116755
    One-Electron Energy =               -1559.6625974225632945
    Two-Electron Energy =                 620.6906009373566349
    Total Energy =                       -493.6764629196949272
  Basis Set: (AUG-CC-PVTZ AUX)
    Blend: AUG-CC-PVTZ-RI
    Molecular point group: c1

    Geometry (in Angstrom), charge = 0, multiplicity = 1:

       Center              X                  Y                   Z               Mass
    ------------   -----------------  -----------------  -----------------  -----------------
         O            2.444957797478    -0.754657224198    -0.000031240207    15.994914619570
         O           -3.369096202522     0.794058775802    -0.000012240207    15.994914619570
         O            1.656286797478     1.375597775802    -0.000280240207    15.994914619570
         O           -2.585049202522    -1.331325224198    -0.000265240207    15.994914619570
         C            0.103443797478    -0.494874224198    -0.000097240207    12.000000000000
         C           -1.019120202522     0.529108775802    -0.000083240207    12.000000000000
         C            1.456382797478     0.170998775802    -0.000146240207    12.000000000000
         C           -2.371599202522    -0.130380224198    -0.000131240207    12.000000000000
         C            3.775065797478    -0.196473224198    -0.000091240207    12.000000000000
         H            0.035695797478    -1.154586224198     0.870641759793     1.007825032230
         H            0.035645797478    -1.154602224198    -0.870821240207     1.007825032230
         H           -0.952552202522     1.189820775802    -0.870261240207     1.007825032230
         H           -0.952586202522     1.189773775802     0.870133759793     1.007825032230
         H            4.434248197478    -1.061957224198     0.016559159793     1.007825032230
         H            3.930268797478     0.415872775802     0.889324759793     1.007825032230
         H            3.930260797478     0.415703775802    -0.889625240207     1.007825032230
         H           -4.203035202522     0.280115775802    -0.000065240207     1.007825032230

  Basis Set: AUG-CC-PVTZ
    Blend: AUG-CC-PVTZ
  Basis Set: (AUG-CC-PVTZ AUX)
    Blend: AUG-CC-PVTZ-JKFIT
	 Reference Energy          =    -493.6764629196949272 [Eh]
	 Singles Energy            =      -0.0000000000000000 [Eh]
	 Same-Spin Energy          =      -0.4750641359026971 [Eh]
	 Opposite-Spin Energy      =      -1.4698947295850731 [Eh]
	 Correlation Energy        =      -1.9449588654877701 [Eh]
	 Total Energy              =    -495.6214217851826902 [Eh]

	 ================> DF-SCS-MP2 Energies <==================
	-----------------------------------------------------------
	 SCS Same-Spin Scale       =       0.3333333333333333 [-]
	 SCS Opposite-Spin Scale   =       1.2000000000000000 [-]
	 SCS Same-Spin Energy      =      -0.1583547119675657 [Eh]
	 SCS Opposite-Spin Energy  =      -1.7638736755020876 [Eh]
	 SCS Correlation Energy    =      -1.9222283874696533 [Eh]
	 SCS Total Energy          =    -495.5986913071645859 [Eh]
	-----------------------------------------------------------

  Dipole Moment: [D]
     X:     0.6917      Y:    -0.1292      Z:     0.0069     Total:     0.7037

*** Psi4 exiting successfully. Buy a developer a beer!
