                               Psi4 1.4a3.dev225

  ==> Input File <==

--------------------------------------------------------------------------
#psi4
#
memory 32 gb

molecule  {
0 1
  O        2.4005690    -0.7555910     0.0000930
  O       -3.4134850     0.7931250     0.0001120
  O        1.6118980     1.3746640    -0.0001560
  O       -2.6294380    -1.3322590    -0.0001410
  C        0.0590550    -0.4958080     0.0000270
  C       -1.0635090     0.5281750     0.0000410
  C        1.4119940     0.1700650    -0.0000220
  C       -2.4159880    -0.1313140    -0.0000070
  C        3.9150963    -0.1200149     0.0000247
  H       -0.0086930    -1.1555200     0.8707660
  H       -0.0087430    -1.1555360    -0.8706970
  H       -0.9969410     1.1888870    -0.8701370
  H       -0.9969750     1.1888400     0.8702580
  H        4.3972900    -1.0573420     0.0001120
  H        3.8858800     0.4149390     0.8894490
  H        3.8858720     0.4147700    -0.8895010
  H       -4.2474240     0.2791820     0.0000590
units angstrom
no_reorient  #important for SAPT in psi4, default
symmetry c1  #important for SAPT in psi4, default
}

set PROPERTIES_ORIGIN ["COM"]
properties('MP2/aug-cc-pvtz', properties = ['dipole'])
--------------------------------------------------------------------------

    Molecular point group: c1
  Charge       = 0
  Multiplicity = 1
  Basis Set: AUG-CC-PVTZ
    Blend: AUG-CC-PVTZ
  Basis Set: (AUG-CC-PVTZ AUX)
    Blend: AUG-CC-PVTZ-JKFIT

    Orbital Energies [Eh]
    ---------------------

    Doubly Occupied:

       1A    -20.617935     2A    -20.590649     3A    -20.555582
       4A    -20.542731     5A    -11.393554     6A    -11.378064
       7A    -11.303097     8A    -11.253024     9A    -11.248917
      10A     -1.462584    11A     -1.429024    12A     -1.360100
      13A     -1.331609    14A     -1.089390    15A     -0.996547
      16A     -0.939371    17A     -0.808628    18A     -0.753627
      19A     -0.715117    20A     -0.704684    21A     -0.680691
      22A     -0.668714    23A     -0.660655    24A     -0.646208
      25A     -0.615376    26A     -0.608494    27A     -0.576275
      28A     -0.562594    29A     -0.541365    30A     -0.507621
      31A     -0.505425    32A     -0.485942    33A     -0.462337
      34A     -0.458910    35A     -0.445967

  @DF-RHF Final Energy:  -493.64931154674980

   => Energetics <=

    Nuclear Repulsion Energy =            441.7992885262326581
    One-Electron Energy =               -1553.0955881495767699
    Two-Electron Energy =                 617.6469880765943117
    Total Energy =                       -493.6493115467498001
  Basis Set: (AUG-CC-PVTZ AUX)
    Blend: AUG-CC-PVTZ-RI
    Molecular point group: c1

    Geometry (in Angstrom), charge = 0, multiplicity = 1:

       Center              X                  Y                   Z               Mass
    ------------   -----------------  -----------------  -----------------  -----------------
         O            2.428141057398    -0.761732971236     0.000095996875    15.994914619570
         O           -3.385912942602     0.786983028764     0.000114996875    15.994914619570
         O            1.639470057398     1.368522028764    -0.000153003125    15.994914619570
         O           -2.601865942602    -1.338400971236    -0.000138003125    15.994914619570
         C            0.086627057398    -0.501949971236     0.000029996875    12.000000000000
         C           -1.035936942602     0.522033028764     0.000043996875    12.000000000000
         C            1.439566057398     0.163923028764    -0.000019003125    12.000000000000
         C           -2.388415942602    -0.137455971236    -0.000004003125    12.000000000000
         C            3.942668357398    -0.126156871236     0.000027696875    12.000000000000
         H            0.018879057398    -1.161661971236     0.870768996875     1.007825032230
         H            0.018829057398    -1.161677971236    -0.870694003125     1.007825032230
         H           -0.969368942602     1.182745028764    -0.870134003125     1.007825032230
         H           -0.969402942602     1.182698028764     0.870260996875     1.007825032230
         H            4.424862057398    -1.063483971236     0.000114996875     1.007825032230
         H            3.913452057398     0.408797028764     0.889451996875     1.007825032230
         H            3.913444057398     0.408628028764    -0.889498003125     1.007825032230
         H           -4.219851942602     0.273040028764     0.000061996875     1.007825032230

  Basis Set: AUG-CC-PVTZ
    Blend: AUG-CC-PVTZ
  Basis Set: (AUG-CC-PVTZ AUX)
    Blend: AUG-CC-PVTZ-JKFIT
	 Reference Energy          =    -493.6493115467498001 [Eh]
	 Singles Energy            =      -0.0000000000000000 [Eh]
	 Same-Spin Energy          =      -0.4757399865270864 [Eh]
	 Opposite-Spin Energy      =      -1.4731169510379276 [Eh]
	 Correlation Energy        =      -1.9488569375650140 [Eh]
	 Total Energy              =    -495.5981684843148400 [Eh]

	 ================> DF-SCS-MP2 Energies <==================
	-----------------------------------------------------------
	 SCS Same-Spin Scale       =       0.3333333333333333 [-]
	 SCS Opposite-Spin Scale   =       1.2000000000000000 [-]
	 SCS Same-Spin Energy      =      -0.1585799955090288 [Eh]
	 SCS Opposite-Spin Energy  =      -1.7677403412455130 [Eh]
	 SCS Correlation Energy    =      -1.9263203367545418 [Eh]
	 SCS Total Energy          =    -495.5756318835043430 [Eh]
	-----------------------------------------------------------

  Dipole Moment: [D]
     X:     1.3901      Y:    -0.0580      Z:     0.0003     Total:     1.3913

*** Psi4 exiting successfully. Buy a developer a beer!
