                               Psi4 1.4a3.dev225

  ==> Input File <==

--------------------------------------------------------------------------
#psi4
#
memory 32 gb

molecule  {
0 1
  O        2.4005690    -0.7555910     0.0000930
  O       -3.4134850     0.7931250     0.0001120
  O        1.6118980     1.3746640    -0.0001560
  O       -2.6294380    -1.3322590    -0.0001410
  C        0.0590550    -0.4958080     0.0000270
  C       -1.0635090     0.5281750     0.0000410
  C        1.4119940     0.1700650    -0.0000220
  C       -2.4159880    -0.1313140    -0.0000070
  C        3.7306770    -0.1974070     0.0000330
  H       -0.0086930    -1.1555200     0.8707660
  H       -0.0075041    -1.1434810    -0.8547865
  H       -0.9969410     1.1888870    -0.8701370
  H       -0.9969750     1.1888400     0.8702580
  H        4.3972900    -1.0573420     0.0001120
  H        3.8858800     0.4149390     0.8894490
  H        3.8858720     0.4147700    -0.8895010
  H       -4.2474240     0.2791820     0.0000590
units angstrom
no_reorient  #important for SAPT in psi4, default
symmetry c1  #important for SAPT in psi4, default
}

set PROPERTIES_ORIGIN ["COM"]
properties('MP2/aug-cc-pvtz', properties = ['dipole'])
--------------------------------------------------------------------------

    Molecular point group: c1
  Charge       = 0
  Multiplicity = 1
  Basis Set: AUG-CC-PVTZ
    Blend: AUG-CC-PVTZ
  Basis Set: (AUG-CC-PVTZ AUX)
    Blend: AUG-CC-PVTZ-JKFIT

    Orbital Energies [Eh]
    ---------------------

    Doubly Occupied:

       1A    -20.621221     2A    -20.611965     3A    -20.559366
       4A    -20.554459     5A    -11.397581     6A    -11.390141
       7A    -11.290512     8A    -11.258280     9A    -11.254343
      10A     -1.466092    11A     -1.461880    12A     -1.363737
      13A     -1.361356    14A     -1.098151    15A     -0.998981
      16A     -0.932659    17A     -0.814232    18A     -0.772864
      19A     -0.725980    20A     -0.709075    21A     -0.690452
      22A     -0.678919    23A     -0.668251    24A     -0.661761
      25A     -0.611962    26A     -0.601888    27A     -0.567327
      28A     -0.549512    29A     -0.544915    30A     -0.534927
      31A     -0.512222    32A     -0.489422    33A     -0.470011
      34A     -0.464098    35A     -0.457322

  @DF-RHF Final Energy:  -493.67659723041402

   => Energetics <=

    Nuclear Repulsion Energy =            445.3844846921232374
    One-Electron Energy =               -1559.8304409063648563
    Two-Electron Energy =                 620.7693589838274875
    Total Energy =                       -493.6765972304140178
  Basis Set: (AUG-CC-PVTZ AUX)
    Blend: AUG-CC-PVTZ-RI
    Molecular point group: c1

    Geometry (in Angstrom), charge = 0, multiplicity = 1:

       Center              X                  Y                   Z               Mass
    ------------   -----------------  -----------------  -----------------  -----------------
         O            2.444891626699    -0.754791588394    -0.000026195825    15.994914619570
         O           -3.369162373301     0.793924411606    -0.000007195825    15.994914619570
         O            1.656220626699     1.375463411606    -0.000275195825    15.994914619570
         O           -2.585115373301    -1.331459588394    -0.000260195825    15.994914619570
         C            0.103377626699    -0.495008588394    -0.000092195825    12.000000000000
         C           -1.019186373301     0.528974411606    -0.000078195825    12.000000000000
         C            1.456316626699     0.170864411606    -0.000141195825    12.000000000000
         C           -2.371665373301    -0.130514588394    -0.000126195825    12.000000000000
         C            3.774999626699    -0.196607588394    -0.000086195825    12.000000000000
         H            0.035629626699    -1.154720588394     0.870646804175     1.007825032230
         H            0.036818526699    -1.142681588394    -0.854905695825     1.007825032230
         H           -0.952618373301     1.189686411606    -0.870256195825     1.007825032230
         H           -0.952652373301     1.189639411606     0.870138804175     1.007825032230
         H            4.441612626699    -1.056542588394    -0.000007195825     1.007825032230
         H            3.930202626699     0.415738411606     0.889329804175     1.007825032230
         H            3.930194626699     0.415569411606    -0.889620195825     1.007825032230
         H           -4.203101373301     0.279981411606    -0.000060195825     1.007825032230

  Basis Set: AUG-CC-PVTZ
    Blend: AUG-CC-PVTZ
  Basis Set: (AUG-CC-PVTZ AUX)
    Blend: AUG-CC-PVTZ-JKFIT
	 Reference Energy          =    -493.6765972304140178 [Eh]
	 Singles Energy            =      -0.0000000000000000 [Eh]
	 Same-Spin Energy          =      -0.4750373383360944 [Eh]
	 Opposite-Spin Energy      =      -1.4697485759181843 [Eh]
	 Correlation Energy        =      -1.9447859142542787 [Eh]
	 Total Energy              =    -495.6213831446683002 [Eh]

	 ================> DF-SCS-MP2 Energies <==================
	-----------------------------------------------------------
	 SCS Same-Spin Scale       =       0.3333333333333333 [-]
	 SCS Opposite-Spin Scale   =       1.2000000000000000 [-]
	 SCS Same-Spin Energy      =      -0.1583457794453648 [Eh]
	 SCS Opposite-Spin Energy  =      -1.7636982911018211 [Eh]
	 SCS Correlation Energy    =      -1.9220440705471860 [Eh]
	 SCS Total Energy          =    -495.5986413009612193 [Eh]
	-----------------------------------------------------------

  Dipole Moment: [D]
     X:     0.6956      Y:    -0.1297      Z:    -0.0008     Total:     0.7076

*** Psi4 exiting successfully. Buy a developer a beer!
