                               Psi4 1.4a3.dev225

  ==> Input File <==

--------------------------------------------------------------------------
#psi4
#
memory 32 gb

molecule  {
0 1
  O        2.4005690    -0.7555910     0.0000930
  O       -3.4134850     0.7931250     0.0001120
  O        1.6118980     1.3746640    -0.0001560
  O       -2.6294380    -1.3322590    -0.0001410
  C        0.0590550    -0.4958080     0.0000270
  C       -1.0635090     0.5281750     0.0000410
  C        1.4152682     0.1897952    -0.0000242
  C       -2.4159880    -0.1313140    -0.0000070
  C        3.7306770    -0.1974070     0.0000330
  H       -0.0086930    -1.1555200     0.8707660
  H       -0.0087430    -1.1555360    -0.8706970
  H       -0.9969410     1.1888870    -0.8701370
  H       -0.9969750     1.1888400     0.8702580
  H        4.3972900    -1.0573420     0.0001120
  H        3.8858800     0.4149390     0.8894490
  H        3.8858720     0.4147700    -0.8895010
  H       -4.2474240     0.2791820     0.0000590
units angstrom
no_reorient  #important for SAPT in psi4, default
symmetry c1  #important for SAPT in psi4, default
}

set PROPERTIES_ORIGIN ["COM"]
properties('MP2/aug-cc-pvtz', properties = ['dipole'])
--------------------------------------------------------------------------

    Molecular point group: c1
  Charge       = 0
  Multiplicity = 1
  Basis Set: AUG-CC-PVTZ
    Blend: AUG-CC-PVTZ
  Basis Set: (AUG-CC-PVTZ AUX)
    Blend: AUG-CC-PVTZ-JKFIT

    Orbital Energies [Eh]
    ---------------------

    Doubly Occupied:

       1A    -20.621054     2A    -20.608766     3A    -20.559143
       4A    -20.558425     5A    -11.397325     6A    -11.388787
       7A    -11.288916     8A    -11.258054     9A    -11.256002
      10A     -1.465928    11A     -1.463120    12A     -1.370076
      13A     -1.363486    14A     -1.095835    15A     -0.995412
      16A     -0.929410    17A     -0.813215    18A     -0.771114
      19A     -0.725903    20A     -0.708999    21A     -0.688836
      22A     -0.682434    23A     -0.667054    24A     -0.660914
      25A     -0.610401    26A     -0.602555    27A     -0.568252
      28A     -0.551882    29A     -0.543307    30A     -0.535071
      31A     -0.512398    32A     -0.489184    33A     -0.472089
      34A     -0.463338    35A     -0.458047

  @DF-RHF Final Energy:  -493.67714390732056

   => Energetics <=

    Nuclear Repulsion Energy =            445.3431318432729995
    One-Electron Energy =               -1559.7510834285960755
    Two-Electron Energy =                 620.7308076780026340
    Total Energy =                       -493.6771439073205556
  Basis Set: (AUG-CC-PVTZ AUX)
    Blend: AUG-CC-PVTZ-RI
    Molecular point group: c1

    Geometry (in Angstrom), charge = 0, multiplicity = 1:

       Center              X                  Y                   Z               Mass
    ------------   -----------------  -----------------  -----------------  -----------------
         O            2.444603523436    -0.756492657971     0.000095442508    15.994914619570
         O           -3.369450476564     0.792223342029     0.000114442508    15.994914619570
         O            1.655932523436     1.373762342029    -0.000153557492    15.994914619570
         O           -2.585403476564    -1.333160657971    -0.000138557492    15.994914619570
         C            0.103089523436    -0.496709657971     0.000029442508    12.000000000000
         C           -1.019474476564     0.527273342029     0.000043442508    12.000000000000
         C            1.459302723436     0.188893542029    -0.000021757492    12.000000000000
         C           -2.371953476564    -0.132215657971    -0.000004557492    12.000000000000
         C            3.774711523436    -0.198308657971     0.000035442508    12.000000000000
         H            0.035341523436    -1.156421657971     0.870768442508     1.007825032230
         H            0.035291523436    -1.156437657971    -0.870694557492     1.007825032230
         H           -0.952906476564     1.187985342029    -0.870134557492     1.007825032230
         H           -0.952940476564     1.187938342029     0.870260442508     1.007825032230
         H            4.441324523436    -1.058243657971     0.000114442508     1.007825032230
         H            3.929914523436     0.414037342029     0.889451442508     1.007825032230
         H            3.929906523436     0.413868342029    -0.889498557492     1.007825032230
         H           -4.203389476564     0.278280342029     0.000061442508     1.007825032230

  Basis Set: AUG-CC-PVTZ
    Blend: AUG-CC-PVTZ
  Basis Set: (AUG-CC-PVTZ AUX)
    Blend: AUG-CC-PVTZ-JKFIT
	 Reference Energy          =    -493.6771439073205556 [Eh]
	 Singles Energy            =      -0.0000000000000000 [Eh]
	 Same-Spin Energy          =      -0.4747091908757053 [Eh]
	 Opposite-Spin Energy      =      -1.4692922927231433 [Eh]
	 Correlation Energy        =      -1.9440014835988486 [Eh]
	 Total Energy              =    -495.6211453909194233 [Eh]

	 ================> DF-SCS-MP2 Energies <==================
	-----------------------------------------------------------
	 SCS Same-Spin Scale       =       0.3333333333333333 [-]
	 SCS Opposite-Spin Scale   =       1.2000000000000000 [-]
	 SCS Same-Spin Energy      =      -0.1582363969585684 [Eh]
	 SCS Opposite-Spin Energy  =      -1.7631507512677720 [Eh]
	 SCS Correlation Energy    =      -1.9213871482263405 [Eh]
	 SCS Total Energy          =    -495.5985310555469141 [Eh]
	-----------------------------------------------------------

  Dipole Moment: [D]
     X:     0.6656      Y:    -0.0009      Z:     0.0003     Total:     0.6656

*** Psi4 exiting successfully. Buy a developer a beer!
