                               Psi4 1.4a3.dev225

  ==> Input File <==

--------------------------------------------------------------------------
#psi4
#
memory 32 gb

molecule  {
0 1
  O        2.4005690    -0.7555910     0.0000930
  O       -3.4134850     0.7931250     0.0001120
  O        1.6118980     1.3746640    -0.0001560
  O       -2.6294380    -1.3322590    -0.0001410
  C        0.0590550    -0.4958080     0.0000270
  C       -1.0635090     0.5281750     0.0000410
  C        1.4119940     0.1700650    -0.0000220
  C       -2.4159880    -0.1313140    -0.0000070
  C        3.7306770    -0.1974070     0.0000330
  H       -0.0086930    -1.1555200     0.8707660
  H       -0.0087430    -1.1555360    -0.8706970
  H       -0.9969410     1.1888870    -0.8701370
  H       -0.9969750     1.1888400     0.8702580
  H        4.4249603    -1.0325448    -0.0661232
  H        3.8858800     0.4149390     0.8894490
  H        3.8858720     0.4147700    -0.8895010
  H       -4.2474240     0.2791820     0.0000590
units angstrom
no_reorient  #important for SAPT in psi4, default
symmetry c1  #important for SAPT in psi4, default
}

set PROPERTIES_ORIGIN ["COM"]
properties('MP2/aug-cc-pvtz', properties = ['dipole'])
--------------------------------------------------------------------------

    Molecular point group: c1
  Charge       = 0
  Multiplicity = 1
  Basis Set: AUG-CC-PVTZ
    Blend: AUG-CC-PVTZ
  Basis Set: (AUG-CC-PVTZ AUX)
    Blend: AUG-CC-PVTZ-JKFIT

    Orbital Energies [Eh]
    ---------------------

    Doubly Occupied:

       1A    -20.621271     2A    -20.612433     3A    -20.559386
       4A    -20.554546     5A    -11.397637     6A    -11.390557
       7A    -11.290449     8A    -11.258530     9A    -11.256692
      10A     -1.466133    11A     -1.461959    12A     -1.363764
      13A     -1.361406    14A     -1.097477    15A     -0.998726
      16A     -0.932182    17A     -0.814504    18A     -0.772288
      19A     -0.725344    20A     -0.708968    21A     -0.690069
      22A     -0.679280    23A     -0.668690    24A     -0.661596
      25A     -0.611299    26A     -0.601939    27A     -0.567292
      28A     -0.549748    29A     -0.544711    30A     -0.532945
      31A     -0.510893    32A     -0.489443    33A     -0.470074
      34A     -0.464216    35A     -0.457407

  @DF-RHF Final Energy:  -493.67602465491649

   => Energetics <=

    Nuclear Repulsion Energy =            445.2417458348684818
    One-Electron Energy =               -1559.5478319934231877
    Two-Electron Energy =                 620.6300615036383306
    Total Energy =                       -493.6760246549164322
  Basis Set: (AUG-CC-PVTZ AUX)
    Blend: AUG-CC-PVTZ-RI
    Molecular point group: c1

    Geometry (in Angstrom), charge = 0, multiplicity = 1:

       Center              X                  Y                   Z               Mass
    ------------   -----------------  -----------------  -----------------  -----------------
         O            2.444689886538    -0.754888844441     0.000600789002    15.994914619570
         O           -3.369364113462     0.793827155559     0.000619789002    15.994914619570
         O            1.656018886538     1.375366155559     0.000351789002    15.994914619570
         O           -2.585317113462    -1.331556844441     0.000366789002    15.994914619570
         C            0.103175886538    -0.495105844441     0.000534789002    12.000000000000
         C           -1.019388113462     0.528877155559     0.000548789002    12.000000000000
         C            1.456114886538     0.170767155559     0.000485789002    12.000000000000
         C           -2.371867113462    -0.130611844441     0.000500789002    12.000000000000
         C            3.774797886538    -0.196704844441     0.000540789002    12.000000000000
         H            0.035427886538    -1.154817844441     0.871273789002     1.007825032230
         H            0.035377886538    -1.154833844441    -0.870189210998     1.007825032230
         H           -0.952820113462     1.189589155559    -0.869629210998     1.007825032230
         H           -0.952854113462     1.189542155559     0.870765789002     1.007825032230
         H            4.469081186538    -1.031842644441    -0.065615410998     1.007825032230
         H            3.930000886538     0.415641155559     0.889956789002     1.007825032230
         H            3.929992886538     0.415472155559    -0.888993210998     1.007825032230
         H           -4.203303113462     0.279884155559     0.000566789002     1.007825032230

  Basis Set: AUG-CC-PVTZ
    Blend: AUG-CC-PVTZ
  Basis Set: (AUG-CC-PVTZ AUX)
    Blend: AUG-CC-PVTZ-JKFIT
	 Reference Energy          =    -493.6760246549164890 [Eh]
	 Singles Energy            =      -0.0000000000000000 [Eh]
	 Same-Spin Energy          =      -0.4750592331245491 [Eh]
	 Opposite-Spin Energy      =      -1.4698790096494196 [Eh]
	 Correlation Energy        =      -1.9449382427739688 [Eh]
	 Total Energy              =    -495.6209628976904469 [Eh]

	 ================> DF-SCS-MP2 Energies <==================
	-----------------------------------------------------------
	 SCS Same-Spin Scale       =       0.3333333333333333 [-]
	 SCS Opposite-Spin Scale   =       1.2000000000000000 [-]
	 SCS Same-Spin Energy      =      -0.1583530777081830 [Eh]
	 SCS Opposite-Spin Energy  =      -1.7638548115793036 [Eh]
	 SCS Correlation Energy    =      -1.9222078892874865 [Eh]
	 SCS Total Energy          =    -495.5982325442039951 [Eh]
	-----------------------------------------------------------

  Dipole Moment: [D]
     X:     0.6974      Y:    -0.1233      Z:    -0.0272     Total:     0.7088

*** Psi4 exiting successfully. Buy a developer a beer!
