                               Psi4 1.4a3.dev225

  ==> Input File <==

--------------------------------------------------------------------------
#psi4
#
memory 32 gb

molecule  {
0 1
  O        2.4005690    -0.7555910     0.0000930
  O       -3.4134850     0.7931250     0.0001120
  O        1.6118980     1.3746640    -0.0001560
  O       -2.6294380    -1.3322590    -0.0001410
  C        0.0590550    -0.4958080     0.0000270
  C       -1.0635090     0.5281750     0.0000410
  C        1.4119940     0.1700650    -0.0000220
  C       -2.4159880    -0.1313140    -0.0000070
  C        3.7306770    -0.1974070     0.0000330
  H       -0.0086930    -1.1555200     0.8707660
  H       -0.0087430    -1.1555360    -0.8706970
  H       -0.9969410     1.1888870    -0.8701370
  H       -0.9969750     1.1888400     0.8702580
  H        4.3663720    -1.0779497     0.0663469
  H        3.8858800     0.4149390     0.8894490
  H        3.8858720     0.4147700    -0.8895010
  H       -4.2474240     0.2791820     0.0000590
units angstrom
no_reorient  #important for SAPT in psi4, default
symmetry c1  #important for SAPT in psi4, default
}

set PROPERTIES_ORIGIN ["COM"]
properties('MP2/aug-cc-pvtz', properties = ['dipole'])
--------------------------------------------------------------------------

    Molecular point group: c1
  Charge       = 0
  Multiplicity = 1
  Basis Set: AUG-CC-PVTZ
    Blend: AUG-CC-PVTZ
  Basis Set: (AUG-CC-PVTZ AUX)
    Blend: AUG-CC-PVTZ-JKFIT

    Orbital Energies [Eh]
    ---------------------

    Doubly Occupied:

       1A    -20.621190     2A    -20.611367     3A    -20.559298
       4A    -20.554470     5A    -11.397529     6A    -11.389887
       7A    -11.290504     8A    -11.258367     9A    -11.256404
      10A     -1.466048    11A     -1.461760    12A     -1.363679
      13A     -1.361345    14A     -1.097331    15A     -0.999003
      16A     -0.931710    17A     -0.813953    18A     -0.772167
      19A     -0.725714    20A     -0.708906    21A     -0.689879
      22A     -0.678707    23A     -0.667613    24A     -0.661482
      25A     -0.611234    26A     -0.601199    27A     -0.567037
      28A     -0.549780    29A     -0.543919    30A     -0.535814
      31A     -0.510798    32A     -0.489362    33A     -0.469895
      34A     -0.463982    35A     -0.457105

  @DF-RHF Final Energy:  -493.67584432068458

   => Energetics <=

    Nuclear Repulsion Energy =            445.3330086592900443
    One-Electron Energy =               -1559.7408302273918252
    Two-Electron Energy =                 620.7319772474171486
    Total Energy =                       -493.6758443206846323
  Basis Set: (AUG-CC-PVTZ AUX)
    Blend: AUG-CC-PVTZ-RI
    Molecular point group: c1

    Geometry (in Angstrom), charge = 0, multiplicity = 1:

       Center              X                  Y                   Z               Mass
    ------------   -----------------  -----------------  -----------------  -----------------
         O            2.445137067280    -0.754542287246    -0.000410301569    15.994914619570
         O           -3.368916932720     0.794173712754    -0.000391301569    15.994914619570
         O            1.656466067280     1.375712712754    -0.000659301569    15.994914619570
         O           -2.584869932720    -1.331210287246    -0.000644301569    15.994914619570
         C            0.103623067280    -0.494759287246    -0.000476301569    12.000000000000
         C           -1.018940932720     0.529223712754    -0.000462301569    12.000000000000
         C            1.456562067280     0.171113712754    -0.000525301569    12.000000000000
         C           -2.371419932720    -0.130265287246    -0.000510301569    12.000000000000
         C            3.775245067280    -0.196358287246    -0.000470301569    12.000000000000
         H            0.035875067280    -1.154471287246     0.870262698431     1.007825032230
         H            0.035825067280    -1.154487287246    -0.871200301569     1.007825032230
         H           -0.952372932720     1.189935712754    -0.870640301569     1.007825032230
         H           -0.952406932720     1.189888712754     0.869754698431     1.007825032230
         H            4.410940067280    -1.076900987246     0.065843598431     1.007825032230
         H            3.930448067280     0.415987712754     0.888945698431     1.007825032230
         H            3.930440067280     0.415818712754    -0.890004301569     1.007825032230
         H           -4.202855932720     0.280230712754    -0.000444301569     1.007825032230

  Basis Set: AUG-CC-PVTZ
    Blend: AUG-CC-PVTZ
  Basis Set: (AUG-CC-PVTZ AUX)
    Blend: AUG-CC-PVTZ-JKFIT
	 Reference Energy          =    -493.6758443206845755 [Eh]
	 Singles Energy            =      -0.0000000000000000 [Eh]
	 Same-Spin Energy          =      -0.4751049350408938 [Eh]
	 Opposite-Spin Energy      =      -1.4699584041844629 [Eh]
	 Correlation Energy        =      -1.9450633392253567 [Eh]
	 Total Energy              =    -495.6209076599099603 [Eh]

	 ================> DF-SCS-MP2 Energies <==================
	-----------------------------------------------------------
	 SCS Same-Spin Scale       =       0.3333333333333333 [-]
	 SCS Opposite-Spin Scale   =       1.2000000000000000 [-]
	 SCS Same-Spin Energy      =      -0.1583683116802979 [Eh]
	 SCS Opposite-Spin Energy  =      -1.7639500850213554 [Eh]
	 SCS Correlation Energy    =      -1.9223183967016533 [Eh]
	 SCS Total Energy          =    -495.5981627173862307 [Eh]
	-----------------------------------------------------------

  Dipole Moment: [D]
     X:     0.6870      Y:    -0.1303      Z:     0.0264     Total:     0.6998

*** Psi4 exiting successfully. Buy a developer a beer!
