                               Psi4 1.4a3.dev225

  ==> Input File <==

--------------------------------------------------------------------------
#psi4
#
memory 32 gb

molecule  {
0 1
  O        2.4005690    -0.7555910     0.0000930
  O       -3.4134850     0.7931250     0.0001120
  O        1.6118980     1.3746640    -0.0001560
  O       -2.6294380    -1.3322590    -0.0001410
  C        0.0590550    -0.4958080     0.0000270
  C       -1.0635090     0.5281750     0.0000410
  C        1.4449011     0.2040019    -0.0000259
  C       -2.4159880    -0.1313140    -0.0000070
  C        3.7306770    -0.1974070     0.0000330
  H       -0.0086930    -1.1555200     0.8707660
  H       -0.0087430    -1.1555360    -0.8706970
  H       -0.9969410     1.1888870    -0.8701370
  H       -0.9969750     1.1888400     0.8702580
  H        4.3972900    -1.0573420     0.0001120
  H        3.8858800     0.4149390     0.8894490
  H        3.8858720     0.4147700    -0.8895010
  H       -4.2474240     0.2791820     0.0000590
units angstrom
no_reorient  #important for SAPT in psi4, default
symmetry c1  #important for SAPT in psi4, default
}

set PROPERTIES_ORIGIN ["COM"]
properties('MP2/aug-cc-pvtz', properties = ['dipole'])
--------------------------------------------------------------------------

    Molecular point group: c1
  Charge       = 0
  Multiplicity = 1
  Basis Set: AUG-CC-PVTZ
    Blend: AUG-CC-PVTZ
  Basis Set: (AUG-CC-PVTZ AUX)
    Blend: AUG-CC-PVTZ-JKFIT

    Orbital Energies [Eh]
    ---------------------

    Doubly Occupied:

       1A    -20.619810     2A    -20.611517     3A    -20.559881
       4A    -20.557647     5A    -11.395791     6A    -11.386405
       7A    -11.290388     8A    -11.255825     9A    -11.253469
      10A     -1.472315    11A     -1.464501    12A     -1.381699
      13A     -1.362068    14A     -1.090061    15A     -0.993782
      16A     -0.926206    17A     -0.811291    18A     -0.773420
      19A     -0.724963    20A     -0.707790    21A     -0.689935
      22A     -0.687075    23A     -0.667964    24A     -0.661410
      25A     -0.608355    26A     -0.601992    27A     -0.567860
      28A     -0.555446    29A     -0.542824    30A     -0.536395
      31A     -0.512078    32A     -0.487834    33A     -0.476374
      34A     -0.460943    35A     -0.454944

  @DF-RHF Final Energy:  -493.67640378564715

   => Energetics <=

    Nuclear Repulsion Energy =            445.4355146961876812
    One-Electron Energy =               -1559.9233228418870567
    Two-Electron Energy =                 620.8114043600521654
    Total Energy =                       -493.6764037856471532
  Basis Set: (AUG-CC-PVTZ AUX)
    Blend: AUG-CC-PVTZ-RI
    Molecular point group: c1

    Geometry (in Angstrom), charge = 0, multiplicity = 1:

       Center              X                  Y                   Z               Mass
    ------------   -----------------  -----------------  -----------------  -----------------
         O            2.441910485590    -0.757783762816     0.000095597004    15.994914619570
         O           -3.372143514410     0.790932237184     0.000114597004    15.994914619570
         O            1.653239485590     1.372471237184    -0.000153402996    15.994914619570
         O           -2.588096514410    -1.334451762816    -0.000138402996    15.994914619570
         C            0.100396485590    -0.498000762816     0.000029597004    12.000000000000
         C           -1.022167514410     0.525982237184     0.000043597004    12.000000000000
         C            1.486242585590     0.201809137184    -0.000023302996    12.000000000000
         C           -2.374646514410    -0.133506762816    -0.000004402996    12.000000000000
         C            3.772018485590    -0.199599762816     0.000035597004    12.000000000000
         H            0.032648485590    -1.157712762816     0.870768597004     1.007825032230
         H            0.032598485590    -1.157728762816    -0.870694402996     1.007825032230
         H           -0.955599514410     1.186694237184    -0.870134402996     1.007825032230
         H           -0.955633514410     1.186647237184     0.870260597004     1.007825032230
         H            4.438631485590    -1.059534762816     0.000114597004     1.007825032230
         H            3.927221485590     0.412746237184     0.889451597004     1.007825032230
         H            3.927213485590     0.412577237184    -0.889498402996     1.007825032230
         H           -4.206082514410     0.276989237184     0.000061597004     1.007825032230

  Basis Set: AUG-CC-PVTZ
    Blend: AUG-CC-PVTZ
  Basis Set: (AUG-CC-PVTZ AUX)
    Blend: AUG-CC-PVTZ-JKFIT
	 Reference Energy          =    -493.6764037856471532 [Eh]
	 Singles Energy            =      -0.0000000000000000 [Eh]
	 Same-Spin Energy          =      -0.4741816551766312 [Eh]
	 Opposite-Spin Energy      =      -1.4682977204093510 [Eh]
	 Correlation Energy        =      -1.9424793755859824 [Eh]
	 Total Energy              =    -495.6188831612331569 [Eh]

	 ================> DF-SCS-MP2 Energies <==================
	-----------------------------------------------------------
	 SCS Same-Spin Scale       =       0.3333333333333333 [-]
	 SCS Opposite-Spin Scale   =       1.2000000000000000 [-]
	 SCS Same-Spin Energy      =      -0.1580605517255437 [Eh]
	 SCS Opposite-Spin Energy  =      -1.7619572644912211 [Eh]
	 SCS Correlation Energy    =      -1.9200178162167649 [Eh]
	 SCS Total Energy          =    -495.5964216018639377 [Eh]
	-----------------------------------------------------------

  Dipole Moment: [D]
     X:     0.8732      Y:     0.0684      Z:     0.0003     Total:     0.8759

*** Psi4 exiting successfully. Buy a developer a beer!
