                               Psi4 1.4a3.dev225

  ==> Input File <==

--------------------------------------------------------------------------
#psi4
#
memory 32 gb

molecule  {
0 1
  O        2.4005690    -0.7555910     0.0000930
  O       -3.4134850     0.7931250     0.0001120
  O        1.6118980     1.3746640    -0.0001560
  O       -2.6294380    -1.3322590    -0.0001410
  C        0.0590550    -0.4958080     0.0000270
  C       -1.0635090     0.5281750     0.0000410
  C        1.4119940     0.1700650    -0.0000220
  C       -2.4159880    -0.1313140    -0.0000070
  C        3.7306770    -0.1974070     0.0000330
  H       -0.0086930    -1.1555200     0.8707660
  H       -0.0087430    -1.1555360    -0.8706970
  H       -0.9969410     1.1888870    -0.8701370
  H       -0.9969750     1.1888400     0.8702580
  H        4.3972900    -1.0573420     0.0001120
  H        3.8858800     0.4149390     0.8894490
  H        3.8830268     0.4035469    -0.8731931
  H       -4.2474240     0.2791820     0.0000590
units angstrom
no_reorient  #important for SAPT in psi4, default
symmetry c1  #important for SAPT in psi4, default
}

set PROPERTIES_ORIGIN ["COM"]
properties('MP2/aug-cc-pvtz', properties = ['dipole'])
--------------------------------------------------------------------------

    Molecular point group: c1
  Charge       = 0
  Multiplicity = 1
  Basis Set: AUG-CC-PVTZ
    Blend: AUG-CC-PVTZ
  Basis Set: (AUG-CC-PVTZ AUX)
    Blend: AUG-CC-PVTZ-JKFIT

    Orbital Energies [Eh]
    ---------------------

    Doubly Occupied:

       1A    -20.621211     2A    -20.611610     3A    -20.559320
       4A    -20.554470     5A    -11.397560     6A    -11.390186
       7A    -11.288163     8A    -11.258417     9A    -11.256501
      10A     -1.466070    11A     -1.461749    12A     -1.363700
      13A     -1.361304    14A     -1.097395    15A     -0.999627
      16A     -0.932862    17A     -0.814518    18A     -0.772677
      19A     -0.725538    20A     -0.708923    21A     -0.690252
      22A     -0.679104    23A     -0.667953    24A     -0.662185
      25A     -0.611472    26A     -0.601825    27A     -0.567248
      28A     -0.550616    29A     -0.544498    30A     -0.535416
      31A     -0.511105    32A     -0.489391    33A     -0.470347
      34A     -0.464078    35A     -0.457231

  @DF-RHF Final Energy:  -493.67659644933730

   => Energetics <=

    Nuclear Repulsion Energy =            445.3697265895971782
    One-Electron Energy =               -1559.8036058946099729
    Two-Electron Energy =                 620.7572828556756122
    Total Energy =                       -493.6765964493372394
  Basis Set: (AUG-CC-PVTZ AUX)
    Blend: AUG-CC-PVTZ-RI
    Molecular point group: c1

    Geometry (in Angstrom), charge = 0, multiplicity = 1:

       Center              X                  Y                   Z               Mass
    ------------   -----------------  -----------------  -----------------  -----------------
         O            2.444922798978    -0.754613916093    -0.000029229018    15.994914619570
         O           -3.369131201022     0.794102083907    -0.000010229018    15.994914619570
         O            1.656251798978     1.375641083907    -0.000278229018    15.994914619570
         O           -2.585084201022    -1.331281916093    -0.000263229018    15.994914619570
         C            0.103408798978    -0.494830916093    -0.000095229018    12.000000000000
         C           -1.019155201022     0.529152083907    -0.000081229018    12.000000000000
         C            1.456347798978     0.171042083907    -0.000144229018    12.000000000000
         C           -2.371634201022    -0.130336916093    -0.000129229018    12.000000000000
         C            3.775030798978    -0.196429916093    -0.000089229018    12.000000000000
         H            0.035660798978    -1.154542916093     0.870643770982     1.007825032230
         H            0.035610798978    -1.154558916093    -0.870819229018     1.007825032230
         H           -0.952587201022     1.189864083907    -0.870259229018     1.007825032230
         H           -0.952621201022     1.189817083907     0.870135770982     1.007825032230
         H            4.441643798978    -1.056364916093    -0.000010229018     1.007825032230
         H            3.930233798978     0.415916083907     0.889326770982     1.007825032230
         H            3.927380598978     0.404523983907    -0.873315329018     1.007825032230
         H           -4.203070201022     0.280159083907    -0.000063229018     1.007825032230

  Basis Set: AUG-CC-PVTZ
    Blend: AUG-CC-PVTZ
  Basis Set: (AUG-CC-PVTZ AUX)
    Blend: AUG-CC-PVTZ-JKFIT
	 Reference Energy          =    -493.6765964493372962 [Eh]
	 Singles Energy            =      -0.0000000000000000 [Eh]
	 Same-Spin Energy          =      -0.4750353626171350 [Eh]
	 Opposite-Spin Energy      =      -1.4697405876134340 [Eh]
	 Correlation Energy        =      -1.9447759502305688 [Eh]
	 Total Energy              =    -495.6213723995678606 [Eh]

	 ================> DF-SCS-MP2 Energies <==================
	-----------------------------------------------------------
	 SCS Same-Spin Scale       =       0.3333333333333333 [-]
	 SCS Opposite-Spin Scale   =       1.2000000000000000 [-]
	 SCS Same-Spin Energy      =      -0.1583451208723783 [Eh]
	 SCS Opposite-Spin Energy  =      -1.7636887051361207 [Eh]
	 SCS Correlation Energy    =      -1.9220338260084990 [Eh]
	 SCS Total Energy          =    -495.5986302753457835 [Eh]
	-----------------------------------------------------------

  Dipole Moment: [D]
     X:     0.7003      Y:    -0.1264      Z:    -0.0055     Total:     0.7117

*** Psi4 exiting successfully. Buy a developer a beer!
