                               Psi4 1.4a3.dev225

  ==> Input File <==

--------------------------------------------------------------------------
#psi4
#
memory 32 gb

molecule  {
0 1
  O        2.4005690    -0.7555910     0.0000930
  O       -3.4134850     0.7931250     0.0001120
  O        1.6118980     1.3746640    -0.0001560
  O       -2.6294380    -1.3322590    -0.0001410
  C        0.0590550    -0.4958080     0.0000270
  C       -1.0635090     0.5281750     0.0000410
  C        1.4119940     0.1700650    -0.0000220
  C       -2.4159880    -0.1313140    -0.0000070
  C        3.7306770    -0.1974070     0.0000330
  H       -0.0086930    -1.1555200     0.8707660
  H       -0.0087430    -1.1555360    -0.8706970
  H       -0.9969410     1.1888870    -0.8701370
  H       -0.9969750     1.1888400     0.8702580
  H        4.3972900    -1.0573420     0.0001120
  H        3.8858800     0.4149390     0.8894490
  H        3.8887172     0.4259931    -0.9058089
  H       -4.2474240     0.2791820     0.0000590
units angstrom
no_reorient  #important for SAPT in psi4, default
symmetry c1  #important for SAPT in psi4, default
}

set PROPERTIES_ORIGIN ["COM"]
properties('MP2/aug-cc-pvtz', properties = ['dipole'])
--------------------------------------------------------------------------

    Molecular point group: c1
  Charge       = 0
  Multiplicity = 1
  Basis Set: AUG-CC-PVTZ
    Blend: AUG-CC-PVTZ
  Basis Set: (AUG-CC-PVTZ AUX)
    Blend: AUG-CC-PVTZ-JKFIT

    Orbital Energies [Eh]
    ---------------------

    Doubly Occupied:

       1A    -20.621252     2A    -20.612201     3A    -20.559367
       4A    -20.554563     5A    -11.397609     6A    -11.390292
       7A    -11.292776     8A    -11.258484     9A    -11.256602
      10A     -1.466114    11A     -1.461973    12A     -1.363746
      13A     -1.361452    14A     -1.097417    15A     -0.998112
      16A     -0.931008    17A     -0.813934    18A     -0.771744
      19A     -0.725514    20A     -0.708952    21A     -0.689484
      22A     -0.678776    23A     -0.668116    24A     -0.661128
      25A     -0.610563    26A     -0.601847    27A     -0.567025
      28A     -0.548483    29A     -0.544598    30A     -0.534258
      31A     -0.510684    32A     -0.489417    33A     -0.469623
      34A     -0.464141    35A     -0.457312

  @DF-RHF Final Energy:  -493.67594571722680

   => Energetics <=

    Nuclear Repulsion Energy =            445.2001253557070868
    One-Electron Energy =               -1559.4750075895744885
    Two-Electron Energy =                 620.5989365166406060
    Total Energy =                       -493.6759457172267958
  Basis Set: (AUG-CC-PVTZ AUX)
    Blend: AUG-CC-PVTZ-RI
    Molecular point group: c1

    Geometry (in Angstrom), charge = 0, multiplicity = 1:

       Center              X                  Y                   Z               Mass
    ------------   -----------------  -----------------  -----------------  -----------------
         O            2.444879366462    -0.754785238838     0.000219714161    15.994914619570
         O           -3.369174633538     0.793930761162     0.000238714161    15.994914619570
         O            1.656208366462     1.375469761162    -0.000029285839    15.994914619570
         O           -2.585127633538    -1.331453238838    -0.000014285839    15.994914619570
         C            0.103365366462    -0.495002238838     0.000153714161    12.000000000000
         C           -1.019198633538     0.528980761162     0.000167714161    12.000000000000
         C            1.456304366462     0.170870761162     0.000104714161    12.000000000000
         C           -2.371677633538    -0.130508238838     0.000119714161    12.000000000000
         C            3.774987366462    -0.196601238838     0.000159714161    12.000000000000
         H            0.035617366462    -1.154714238838     0.870892714161     1.007825032230
         H            0.035567366462    -1.154730238838    -0.870570285839     1.007825032230
         H           -0.952630633538     1.189692761162    -0.870010285839     1.007825032230
         H           -0.952664633538     1.189645761162     0.870384714161     1.007825032230
         H            4.441600366462    -1.056536238838     0.000238714161     1.007825032230
         H            3.930190366462     0.415744761162     0.889575714161     1.007825032230
         H            3.933027566462     0.426798861162    -0.905682185839     1.007825032230
         H           -4.203113633538     0.279987761162     0.000185714161     1.007825032230

  Basis Set: AUG-CC-PVTZ
    Blend: AUG-CC-PVTZ
  Basis Set: (AUG-CC-PVTZ AUX)
    Blend: AUG-CC-PVTZ-JKFIT
	 Reference Energy          =    -493.6759457172267958 [Eh]
	 Singles Energy            =      -0.0000000000000000 [Eh]
	 Same-Spin Energy          =      -0.4750804355810375 [Eh]
	 Opposite-Spin Energy      =      -1.4700358686730879 [Eh]
	 Correlation Energy        =      -1.9451163042541253 [Eh]
	 Total Energy              =    -495.6210620214808955 [Eh]

	 ================> DF-SCS-MP2 Energies <==================
	-----------------------------------------------------------
	 SCS Same-Spin Scale       =       0.3333333333333333 [-]
	 SCS Opposite-Spin Scale   =       1.2000000000000000 [-]
	 SCS Same-Spin Energy      =      -0.1583601451936791 [Eh]
	 SCS Opposite-Spin Energy  =      -1.7640430424077054 [Eh]
	 SCS Correlation Energy    =      -1.9224031876013845 [Eh]
	 SCS Total Energy          =    -495.5983489048281854 [Eh]
	-----------------------------------------------------------

  Dipole Moment: [D]
     X:     0.6853      Y:    -0.1306      Z:     0.0066     Total:     0.6977

*** Psi4 exiting successfully. Buy a developer a beer!
