                               Psi4 1.3.2 release

  ==> Input File <==

--------------------------------------------------------------------------
#psi4
#
memory 32 gb

molecule  {
0 1
  O        2.3111590    -1.3984000     0.0000580
  O       -2.2718830    -1.4902890    -0.0001310
  N        1.1826100     0.6255071    -0.0499450
  N        0.0153410    -1.3761840    -0.0000340
  C       -1.2346770     0.6647280    -0.0000250
  C       -0.0319280     1.2897490     0.0000350
  C        1.2605820    -0.7608720     0.0000310
  C       -1.2542960    -0.7955090    -0.0000670
  C        2.4243390     1.3942650     0.0001240
  C       -2.5504790     1.3758010    -0.0000570
  H        0.0516650     2.3739750     0.0000690
  H        0.0461780    -2.3935470    -0.0000610
  H        2.4800130     2.0209940     0.8935150
  H        2.4798690     2.0213500    -0.8930780
  H        3.2466700     0.6823050    -0.0000520
  H       -3.1375530     1.0948740    -0.8785960
  H       -2.4103180     2.4605130    -0.0000230
  H       -3.1376190     1.0948280     0.8784230
units angstrom
no_reorient  #important for SAPT in psi4, default
symmetry c1  #important for SAPT in psi4, default
}

set PROPERTIES_ORIGIN ["COM"]
properties('MP2/aug-cc-pvtz', properties = ['dipole'])
--------------------------------------------------------------------------

    Molecular point group: c1
  Charge       = 0
  Multiplicity = 1
  Basis Set: AUG-CC-PVTZ
    Blend: AUG-CC-PVTZ
  Basis Set: (AUG-CC-PVTZ AUX)
    Blend: AUG-CC-PVTZ-JKFIT

    Orbital Energies [Eh]
    ---------------------

    Doubly Occupied:

       1A    -20.540709     2A    -20.538700     3A    -15.638130
       4A    -15.624645     5A    -11.413773     6A    -11.376313
       7A    -11.324892     8A    -11.285873     9A    -11.259749
      10A    -11.237176    11A     -1.424070    12A     -1.387114
      13A     -1.306479    14A     -1.242859    15A     -1.108986
      16A     -0.992873    17A     -0.963631    18A     -0.914150
      19A     -0.852735    20A     -0.770464    21A     -0.734963
      22A     -0.692200    23A     -0.681879    24A     -0.649492
      25A     -0.637871    26A     -0.615945    27A     -0.609216
      28A     -0.588839    29A     -0.583766    30A     -0.555379
      31A     -0.548109    32A     -0.543165    33A     -0.487916
      34A     -0.475374    35A     -0.444443    36A     -0.430646
      37A     -0.346121

  @DF-RHF Final Energy:  -490.71144412117565

   => Energetics <=

    Nuclear Repulsion Energy =            530.3366108998659456
    One-Electron Energy =               -1720.4388187384458888
    Two-Electron Energy =                 699.3907637174042975
    Total Energy =                       -490.7114441211756457
  Basis Set: (AUG-CC-PVTZ AUX)
    Blend: AUG-CC-PVTZ-RI
    Molecular point group: c1

    Geometry (in Angstrom), charge = 0, multiplicity = 1:

       Center              X                  Y                   Z               Mass
    ------------   -----------------  -----------------  -----------------  -----------------
         O            2.308434227984    -1.332215716215     0.005058312979    15.994914619570
         O           -2.274607772016    -1.424104716215     0.004869312979    15.994914619570
         N            1.179885227984     0.691691383785    -0.044944687021    14.003074004430
         N            0.012616227984    -1.309999716215     0.004966312979    14.003074004430
         C           -1.237401772016     0.730912283785     0.004975312979    12.000000000000
         C           -0.034652772016     1.355933283785     0.005035312979    12.000000000000
         C            1.257857227984    -0.694687716215     0.005031312979    12.000000000000
         C           -1.257020772016    -0.729324716215     0.004933312979    12.000000000000
         C            2.421614227984     1.460449283785     0.005124312979    12.000000000000
         C           -2.553203772016     1.441985283785     0.004943312979    12.000000000000
         H            0.048940227984     2.440159283785     0.005069312979     1.007825032230
         H            0.043453227984    -2.327362716215     0.004939312979     1.007825032230
         H            2.477288227984     2.087178283785     0.898515312979     1.007825032230
         H            2.477144227984     2.087534283785    -0.888077687021     1.007825032230
         H            3.243945227984     0.748489283785     0.004948312979     1.007825032230
         H           -3.140277772016     1.161058283785    -0.873595687021     1.007825032230
         H           -2.413042772016     2.526697283785     0.004977312979     1.007825032230
         H           -3.140343772016     1.161012283785     0.883423312979     1.007825032230

  Basis Set: AUG-CC-PVTZ
    Blend: AUG-CC-PVTZ
  Basis Set: (AUG-CC-PVTZ AUX)
    Blend: AUG-CC-PVTZ-JKFIT
	 Reference Energy          =    -490.7114441211756457 [Eh]
	 Singles Energy            =      -0.0000000000000000 [Eh]
	 Same-Spin Energy          =      -0.5023863348336151 [Eh]
	 Opposite-Spin Energy      =      -1.5415000422915270 [Eh]
	 Correlation Energy        =      -2.0438863771251423 [Eh]
	 Total Energy              =    -492.7553304983007934 [Eh]

	 ================> DF-SCS-MP2 Energies <==================
	-----------------------------------------------------------
	 SCS Same-Spin Scale       =       0.3333333333333333 [-]
	 SCS Opposite-Spin Scale   =       1.2000000000000000 [-]
	 SCS Same-Spin Energy      =      -0.1674621116112050 [Eh]
	 SCS Opposite-Spin Energy  =      -1.8498000507498324 [Eh]
	 SCS Correlation Energy    =      -2.0172621623610376 [Eh]
	 SCS Total Energy          =    -492.7287062835366669 [Eh]
	-----------------------------------------------------------

  Dipole Moment: [D]
     X:     1.0418      Y:     4.5135      Z:     0.0317     Total:     4.6323

*** Psi4 exiting successfully. Buy a developer a beer!
