                               Psi4 1.3.2 release

  ==> Input File <==

--------------------------------------------------------------------------
#psi4
#
memory 32 gb

molecule  {
0 1
  O        2.3111590    -1.3984000     0.0000580
  O       -2.2718830    -1.4902890    -0.0001310
  N        1.1826162     0.6255103    -0.1999450
  N        0.0153410    -1.3761840    -0.0000340
  C       -1.2346770     0.6647280    -0.0000250
  C       -0.0319280     1.2897490     0.0000350
  C        1.2605820    -0.7608720     0.0000310
  C       -1.2542960    -0.7955090    -0.0000670
  C        2.4243390     1.3942650     0.0001240
  C       -2.5504790     1.3758010    -0.0000570
  H        0.0516650     2.3739750     0.0000690
  H        0.0461780    -2.3935470    -0.0000610
  H        2.4800130     2.0209940     0.8935150
  H        2.4798690     2.0213500    -0.8930780
  H        3.2466700     0.6823050    -0.0000520
  H       -3.1375530     1.0948740    -0.8785960
  H       -2.4103180     2.4605130    -0.0000230
  H       -3.1376190     1.0948280     0.8784230
units angstrom
no_reorient  #important for SAPT in psi4, default
symmetry c1  #important for SAPT in psi4, default
}

set PROPERTIES_ORIGIN ["COM"]
properties('MP2/aug-cc-pvtz', properties = ['dipole'])
--------------------------------------------------------------------------

    Molecular point group: c1
  Charge       = 0
  Multiplicity = 1
  Basis Set: AUG-CC-PVTZ
    Blend: AUG-CC-PVTZ
  Basis Set: (AUG-CC-PVTZ AUX)
    Blend: AUG-CC-PVTZ-JKFIT

    Orbital Energies [Eh]
    ---------------------

    Doubly Occupied:

       1A    -20.543513     2A    -20.540719     3A    -15.637550
       4A    -15.625093     5A    -11.414577     6A    -11.377586
       7A    -11.323999     8A    -11.284483     9A    -11.261139
      10A    -11.237788    11A     -1.423732    12A     -1.388537
      13A     -1.302045    14A     -1.241900    15A     -1.108525
      16A     -0.988916    17A     -0.960683    18A     -0.912428
      19A     -0.852558    20A     -0.766815    21A     -0.735384
      22A     -0.691499    23A     -0.677800    24A     -0.649348
      25A     -0.638922    26A     -0.618173    27A     -0.603297
      28A     -0.589586    29A     -0.580324    30A     -0.555121
      31A     -0.548490    32A     -0.542716    33A     -0.486746
      34A     -0.475924    35A     -0.445815    36A     -0.431327
      37A     -0.349149

  @DF-RHF Final Energy:  -490.70300848005576

   => Energetics <=

    Nuclear Repulsion Energy =            529.7233082526092858
    One-Electron Energy =               -1719.2282200800129885
    Two-Electron Energy =                 698.8019033473480022
    Total Energy =                       -490.7030084800557006
  Basis Set: (AUG-CC-PVTZ AUX)
    Blend: AUG-CC-PVTZ-RI
    Molecular point group: c1

    Geometry (in Angstrom), charge = 0, multiplicity = 1:

       Center              X                  Y                   Z               Mass
    ------------   -----------------  -----------------  -----------------  -----------------
         O            2.308433608107    -1.332216036151     0.020055331641    15.994914619570
         O           -2.274608391893    -1.424105036151     0.019866331641    15.994914619570
         N            1.179890808107     0.691694263849    -0.179947668359    14.003074004430
         N            0.012615608107    -1.310000036151     0.019963331641    14.003074004430
         C           -1.237402391893     0.730911963849     0.019972331641    12.000000000000
         C           -0.034653391893     1.355932963849     0.020032331641    12.000000000000
         C            1.257856608107    -0.694688036151     0.020028331641    12.000000000000
         C           -1.257021391893    -0.729325036151     0.019930331641    12.000000000000
         C            2.421613608107     1.460448963849     0.020121331641    12.000000000000
         C           -2.553204391893     1.441984963849     0.019940331641    12.000000000000
         H            0.048939608107     2.440158963849     0.020066331641     1.007825032230
         H            0.043452608107    -2.327363036151     0.019936331641     1.007825032230
         H            2.477287608107     2.087177963849     0.913512331641     1.007825032230
         H            2.477143608107     2.087533963849    -0.873080668359     1.007825032230
         H            3.243944608107     0.748488963849     0.019945331641     1.007825032230
         H           -3.140278391893     1.161057963849    -0.858598668359     1.007825032230
         H           -2.413043391893     2.526696963849     0.019974331641     1.007825032230
         H           -3.140344391893     1.161011963849     0.898420331641     1.007825032230

  Basis Set: AUG-CC-PVTZ
    Blend: AUG-CC-PVTZ
  Basis Set: (AUG-CC-PVTZ AUX)
    Blend: AUG-CC-PVTZ-JKFIT
	 Reference Energy          =    -490.7030084800557574 [Eh]
	 Singles Energy            =      -0.0000000000000000 [Eh]
	 Same-Spin Energy          =      -0.5024131349410026 [Eh]
	 Opposite-Spin Energy      =      -1.5423479971113796 [Eh]
	 Correlation Energy        =      -2.0447611320523822 [Eh]
	 Total Energy              =    -492.7477696121081294 [Eh]

	 ================> DF-SCS-MP2 Energies <==================
	-----------------------------------------------------------
	 SCS Same-Spin Scale       =       0.3333333333333333 [-]
	 SCS Opposite-Spin Scale   =       1.2000000000000000 [-]
	 SCS Same-Spin Energy      =      -0.1674710449803342 [Eh]
	 SCS Opposite-Spin Energy  =      -1.8508175965336555 [Eh]
	 SCS Correlation Energy    =      -2.0182886415139896 [Eh]
	 SCS Total Energy          =    -492.7212971215697621 [Eh]
	-----------------------------------------------------------

  Dipole Moment: [D]
     X:     0.9512      Y:     4.3867      Z:     0.1384     Total:     4.4907

*** Psi4 exiting successfully. Buy a developer a beer!
