                               Psi4 1.3.2 release

  ==> Input File <==

--------------------------------------------------------------------------
#psi4
#
memory 32 gb

molecule  {
0 1
  O        2.3111590    -1.3984000     0.0000580
  O       -2.2718830    -1.4902890    -0.0001310
  N        1.1826080     0.6255060     0.0000550
  N        0.0153410    -1.3761840    -0.0000340
  C       -1.2346770     0.6647280    -0.0000250
  C       -0.0319280     1.2897490     0.0000350
  C        1.2605820    -0.7608720     0.0000310
  C       -1.2542960    -0.7955090    -0.0000670
  C        2.4243355     1.3942626     0.1001240
  C       -2.5504790     1.3758010    -0.0000570
  H        0.0516650     2.3739750     0.0000690
  H        0.0461780    -2.3935470    -0.0000610
  H        2.4800130     2.0209940     0.8935150
  H        2.4798690     2.0213500    -0.8930780
  H        3.2466700     0.6823050    -0.0000520
  H       -3.1375530     1.0948740    -0.8785960
  H       -2.4103180     2.4605130    -0.0000230
  H       -3.1376190     1.0948280     0.8784230
units angstrom
no_reorient  #important for SAPT in psi4, default
symmetry c1  #important for SAPT in psi4, default
}

set PROPERTIES_ORIGIN ["COM"]
properties('MP2/aug-cc-pvtz', properties = ['dipole'])
--------------------------------------------------------------------------

    Molecular point group: c1
  Charge       = 0
  Multiplicity = 1
  Basis Set: AUG-CC-PVTZ
    Blend: AUG-CC-PVTZ
  Basis Set: (AUG-CC-PVTZ AUX)
    Blend: AUG-CC-PVTZ-JKFIT

    Orbital Energies [Eh]
    ---------------------

    Doubly Occupied:

       1A    -20.540774     2A    -20.538725     3A    -15.638749
       4A    -15.624781     5A    -11.413924     6A    -11.376367
       7A    -11.324943     8A    -11.287457     9A    -11.259792
      10A    -11.237205    11A     -1.424260    12A     -1.387171
      13A     -1.306738    14A     -1.242931    15A     -1.109052
      16A     -0.994157    17A     -0.964200    18A     -0.914358
      19A     -0.853700    20A     -0.771054    21A     -0.736478
      22A     -0.693004    23A     -0.682845    24A     -0.652650
      25A     -0.637982    26A     -0.620781    27A     -0.609570
      28A     -0.589995    29A     -0.577123    30A     -0.555160
      31A     -0.548012    32A     -0.539763    33A     -0.485567
      34A     -0.475449    35A     -0.444499    36A     -0.430703
      37A     -0.345928

  @DF-RHF Final Energy:  -490.70102542557328

   => Energetics <=

    Nuclear Repulsion Energy =            530.3276623974849144
    One-Electron Energy =               -1720.3856777186274485
    Two-Electron Energy =                 699.3569898955693134
    Total Energy =                       -490.7010254255733344
  Basis Set: (AUG-CC-PVTZ AUX)
    Blend: AUG-CC-PVTZ-RI
    Molecular point group: c1

    Geometry (in Angstrom), charge = 0, multiplicity = 1:

       Center              X                  Y                   Z               Mass
    ------------   -----------------  -----------------  -----------------  -----------------
         O            2.308434727819    -1.332215400608    -0.008508536935    15.994914619570
         O           -2.274607272181    -1.424104400608    -0.008697536935    15.994914619570
         N            1.179883727819     0.691690599392    -0.008511536935    14.003074004430
         N            0.012616727819    -1.309999400608    -0.008600536935    14.003074004430
         C           -1.237401272181     0.730912599392    -0.008591536935    12.000000000000
         C           -0.034652272181     1.355933599392    -0.008531536935    12.000000000000
         C            1.257857727819    -0.694687400608    -0.008535536935    12.000000000000
         C           -1.257020272181    -0.729324400608    -0.008633536935    12.000000000000
         C            2.421611227819     1.460447199392     0.091557463065    12.000000000000
         C           -2.553203272181     1.441985599392    -0.008623536935    12.000000000000
         H            0.048940727819     2.440159599392    -0.008497536935     1.007825032230
         H            0.043453727819    -2.327362400608    -0.008627536935     1.007825032230
         H            2.477288727819     2.087178599392     0.884948463065     1.007825032230
         H            2.477144727819     2.087534599392    -0.901644536935     1.007825032230
         H            3.243945727819     0.748489599392    -0.008618536935     1.007825032230
         H           -3.140277272181     1.161058599392    -0.887162536935     1.007825032230
         H           -2.413042272181     2.526697599392    -0.008589536935     1.007825032230
         H           -3.140343272181     1.161012599392     0.869856463065     1.007825032230

  Basis Set: AUG-CC-PVTZ
    Blend: AUG-CC-PVTZ
  Basis Set: (AUG-CC-PVTZ AUX)
    Blend: AUG-CC-PVTZ-JKFIT
	 Reference Energy          =    -490.7010254255732775 [Eh]
	 Singles Energy            =      -0.0000000000000000 [Eh]
	 Same-Spin Energy          =      -0.5025203179115468 [Eh]
	 Opposite-Spin Energy      =      -1.5418961379889260 [Eh]
	 Correlation Energy        =      -2.0444164559004729 [Eh]
	 Total Energy              =    -492.7454418814737664 [Eh]

	 ================> DF-SCS-MP2 Energies <==================
	-----------------------------------------------------------
	 SCS Same-Spin Scale       =       0.3333333333333333 [-]
	 SCS Opposite-Spin Scale   =       1.2000000000000000 [-]
	 SCS Same-Spin Energy      =      -0.1675067726371823 [Eh]
	 SCS Opposite-Spin Energy  =      -1.8502753655867110 [Eh]
	 SCS Correlation Energy    =      -2.0177821382238932 [Eh]
	 SCS Total Energy          =    -492.7188075637971565 [Eh]
	-----------------------------------------------------------

  Dipole Moment: [D]
     X:     1.0344      Y:     4.5004      Z:     0.1142     Total:     4.6192

*** Psi4 exiting successfully. Buy a developer a beer!
