                               Psi4 1.3.2 release

  ==> Input File <==

--------------------------------------------------------------------------
#psi4
#
memory 32 gb

molecule  {
0 1
  O        2.3111590    -1.3984000     0.0000580
  O       -2.2718830    -1.4902890    -0.0001310
  N        1.1826080     0.6255060     0.0000550
  N        0.0153410    -1.3761840    -0.0000340
  C       -1.2346770     0.6647280    -0.0000250
  C       -0.0319280     1.2897490     0.0000350
  C        1.2605820    -0.7608720     0.0000310
  C       -1.2542960    -0.7955090    -0.0000670
  C        2.4243390     1.3942650     0.0001240
  C       -2.5504790     1.3758010    -0.0000570
  H        0.0516751     2.3739839    -0.2999310
  H        0.0461780    -2.3935470    -0.0000610
  H        2.4800130     2.0209940     0.8935150
  H        2.4798690     2.0213500    -0.8930780
  H        3.2466700     0.6823050    -0.0000520
  H       -3.1375530     1.0948740    -0.8785960
  H       -2.4103180     2.4605130    -0.0000230
  H       -3.1376190     1.0948280     0.8784230
units angstrom
no_reorient  #important for SAPT in psi4, default
symmetry c1  #important for SAPT in psi4, default
}

set PROPERTIES_ORIGIN ["COM"]
properties('MP2/aug-cc-pvtz', properties = ['dipole'])
--------------------------------------------------------------------------

    Molecular point group: c1
  Charge       = 0
  Multiplicity = 1
  Basis Set: AUG-CC-PVTZ
    Blend: AUG-CC-PVTZ
  Basis Set: (AUG-CC-PVTZ AUX)
    Blend: AUG-CC-PVTZ-JKFIT

    Orbital Energies [Eh]
    ---------------------

    Doubly Occupied:

       1A    -20.540435     2A    -20.539323     3A    -15.637700
       4A    -15.624945     5A    -11.413687     6A    -11.376933
       7A    -11.328084     8A    -11.285479     9A    -11.261203
      10A    -11.237555    11A     -1.424120    12A     -1.387563
      13A     -1.306444    14A     -1.243032    15A     -1.109060
      16A     -0.992909    17A     -0.962773    18A     -0.912208
      19A     -0.852913    20A     -0.770492    21A     -0.734924
      22A     -0.690184    23A     -0.677518    24A     -0.649293
      25A     -0.635876    26A     -0.615715    27A     -0.607209
      28A     -0.588597    29A     -0.583925    30A     -0.555632
      31A     -0.548382    32A     -0.543422    33A     -0.488606
      34A     -0.472952    35A     -0.444728    36A     -0.430861
      37A     -0.346153

  @DF-RHF Final Energy:  -490.70560650263678

   => Energetics <=

    Nuclear Repulsion Energy =            530.2057732412847599
    One-Electron Energy =               -1720.1810997079714980
    Two-Electron Energy =                 699.2697199640499548
    Total Energy =                       -490.7056065026367833
  Basis Set: (AUG-CC-PVTZ AUX)
    Blend: AUG-CC-PVTZ-RI
    Molecular point group: c1

    Geometry (in Angstrom), charge = 0, multiplicity = 1:

       Center              X                  Y                   Z               Mass
    ------------   -----------------  -----------------  -----------------  -----------------
         O            2.308434355267    -1.332215670279     0.002218028595    15.994914619570
         O           -2.274607644733    -1.424104670279     0.002029028595    15.994914619570
         N            1.179883355267     0.691690329721     0.002215028595    14.003074004430
         N            0.012616355267    -1.309999670279     0.002126028595    14.003074004430
         C           -1.237401644733     0.730912329721     0.002135028595    12.000000000000
         C           -0.034652644733     1.355933329721     0.002195028595    12.000000000000
         C            1.257857355267    -0.694687670279     0.002191028595    12.000000000000
         C           -1.257020644733    -0.729324670279     0.002093028595    12.000000000000
         C            2.421614355267     1.460449329721     0.002284028595    12.000000000000
         C           -2.553203644733     1.441985329721     0.002103028595    12.000000000000
         H            0.048950455267     2.440168229721    -0.297770971405     1.007825032230
         H            0.043453355267    -2.327362670279     0.002099028595     1.007825032230
         H            2.477288355267     2.087178329721     0.895675028595     1.007825032230
         H            2.477144355267     2.087534329721    -0.890917971405     1.007825032230
         H            3.243945355267     0.748489329721     0.002108028595     1.007825032230
         H           -3.140277644733     1.161058329721    -0.876435971405     1.007825032230
         H           -2.413042644733     2.526697329721     0.002137028595     1.007825032230
         H           -3.140343644733     1.161012329721     0.880583028595     1.007825032230

  Basis Set: AUG-CC-PVTZ
    Blend: AUG-CC-PVTZ
  Basis Set: (AUG-CC-PVTZ AUX)
    Blend: AUG-CC-PVTZ-JKFIT
	 Reference Energy          =    -490.7056065026367833 [Eh]
	 Singles Energy            =      -0.0000000000000000 [Eh]
	 Same-Spin Energy          =      -0.5028146326042306 [Eh]
	 Opposite-Spin Energy      =      -1.5423268244266413 [Eh]
	 Correlation Energy        =      -2.0451414570308719 [Eh]
	 Total Energy              =    -492.7507479596676490 [Eh]

	 ================> DF-SCS-MP2 Energies <==================
	-----------------------------------------------------------
	 SCS Same-Spin Scale       =       0.3333333333333333 [-]
	 SCS Opposite-Spin Scale   =       1.2000000000000000 [-]
	 SCS Same-Spin Energy      =      -0.1676048775347435 [Eh]
	 SCS Opposite-Spin Energy  =      -1.8507921893119694 [Eh]
	 SCS Correlation Energy    =      -2.0183970668467128 [Eh]
	 SCS Total Energy          =    -492.7240035694835001 [Eh]
	-----------------------------------------------------------

  Dipole Moment: [D]
     X:     1.0038      Y:     4.4648      Z:    -0.1712     Total:     4.5795

*** Psi4 exiting successfully. Buy a developer a beer!
