                               Psi4 1.3.2 release

  ==> Input File <==

--------------------------------------------------------------------------
#psi4
#
memory 32 gb

molecule  {
0 1
  O        2.3111590    -1.3984000     0.0000580
  O       -2.2718830    -1.4902890    -0.0001310
  N        1.1826080     0.6255060     0.0000550
  N        0.0153410    -1.3761840    -0.0000340
  C       -1.2346770     0.6647280    -0.0000250
  C       -0.0319280     1.2897490     0.0000350
  C        1.2605820    -0.7608720     0.0000310
  C       -1.2542960    -0.7955090    -0.0000670
  C        2.4243390     1.3942650     0.0001240
  C       -2.5504734     1.3758050    -0.1500570
  H        0.0516650     2.3739750     0.0000690
  H        0.0461780    -2.3935470    -0.0000610
  H        2.4800130     2.0209940     0.8935150
  H        2.4798690     2.0213500    -0.8930780
  H        3.2466700     0.6823050    -0.0000520
  H       -3.1375530     1.0948740    -0.8785960
  H       -2.4103180     2.4605130    -0.0000230
  H       -3.1376190     1.0948280     0.8784230
units angstrom
no_reorient  #important for SAPT in psi4, default
symmetry c1  #important for SAPT in psi4, default
}

set PROPERTIES_ORIGIN ["COM"]
properties('MP2/aug-cc-pvtz', properties = ['dipole'])
--------------------------------------------------------------------------

    Molecular point group: c1
  Charge       = 0
  Multiplicity = 1
  Basis Set: AUG-CC-PVTZ
    Blend: AUG-CC-PVTZ
  Basis Set: (AUG-CC-PVTZ AUX)
    Blend: AUG-CC-PVTZ-JKFIT

    Orbital Energies [Eh]
    ---------------------

    Doubly Occupied:

       1A    -20.540740     2A    -20.538734     3A    -15.638537
       4A    -15.624820     5A    -11.413936     6A    -11.376418
       7A    -11.325321     8A    -11.286179     9A    -11.261445
      10A    -11.240517    11A     -1.424320    12A     -1.387164
      13A     -1.307058    14A     -1.243127    15A     -1.109021
      16A     -0.993696    17A     -0.965393    18A     -0.914988
      19A     -0.854210    20A     -0.771472    21A     -0.735785
      22A     -0.692680    23A     -0.682425    24A     -0.650763
      25A     -0.638863    26A     -0.625976    27A     -0.612045
      28A     -0.596731    29A     -0.583909    30A     -0.556842
      31A     -0.549195    32A     -0.521621    33A     -0.483596
      34A     -0.475481    35A     -0.444484    36A     -0.430619
      37A     -0.344541

  @DF-RHF Final Energy:  -490.68852440546499

   => Energetics <=

    Nuclear Repulsion Energy =            530.2818979208803967
    One-Electron Energy =               -1720.2555473821539636
    Two-Electron Energy =                 699.2851250558085212
    Total Energy =                       -490.6885244054649320
  Basis Set: (AUG-CC-PVTZ AUX)
    Blend: AUG-CC-PVTZ-RI
    Molecular point group: c1

    Geometry (in Angstrom), charge = 0, multiplicity = 1:

       Center              X                  Y                   Z               Mass
    ------------   -----------------  -----------------  -----------------  -----------------
         O            2.308433948145    -1.332215948950     0.012911072298    15.994914619570
         O           -2.274608051855    -1.424104948950     0.012722072298    15.994914619570
         N            1.179882948145     0.691690051050     0.012908072298    14.003074004430
         N            0.012615948145    -1.309999948950     0.012819072298    14.003074004430
         C           -1.237402051855     0.730912051050     0.012828072298    12.000000000000
         C           -0.034653051855     1.355933051050     0.012888072298    12.000000000000
         C            1.257856948145    -0.694687948950     0.012884072298    12.000000000000
         C           -1.257021051855    -0.729324948950     0.012786072298    12.000000000000
         C            2.421613948145     1.460449051050     0.012977072298    12.000000000000
         C           -2.553198451855     1.441989051050    -0.137203927702    12.000000000000
         H            0.048939948145     2.440159051050     0.012922072298     1.007825032230
         H            0.043452948145    -2.327362948950     0.012792072298     1.007825032230
         H            2.477287948145     2.087178051050     0.906368072298     1.007825032230
         H            2.477143948145     2.087534051050    -0.880224927702     1.007825032230
         H            3.243944948145     0.748489051050     0.012801072298     1.007825032230
         H           -3.140278051855     1.161058051050    -0.865742927702     1.007825032230
         H           -2.413043051855     2.526697051050     0.012830072298     1.007825032230
         H           -3.140344051855     1.161012051050     0.891276072298     1.007825032230

  Basis Set: AUG-CC-PVTZ
    Blend: AUG-CC-PVTZ
  Basis Set: (AUG-CC-PVTZ AUX)
    Blend: AUG-CC-PVTZ-JKFIT
	 Reference Energy          =    -490.6885244054649888 [Eh]
	 Singles Energy            =      -0.0000000000000000 [Eh]
	 Same-Spin Energy          =      -0.5026866975498745 [Eh]
	 Opposite-Spin Energy      =      -1.5424771884207114 [Eh]
	 Correlation Energy        =      -2.0451638859705858 [Eh]
	 Total Energy              =    -492.7336882914355556 [Eh]

	 ================> DF-SCS-MP2 Energies <==================
	-----------------------------------------------------------
	 SCS Same-Spin Scale       =       0.3333333333333333 [-]
	 SCS Opposite-Spin Scale   =       1.2000000000000000 [-]
	 SCS Same-Spin Energy      =      -0.1675622325166248 [Eh]
	 SCS Opposite-Spin Energy  =      -1.8509726261048536 [Eh]
	 SCS Correlation Energy    =      -2.0185348586214786 [Eh]
	 SCS Total Energy          =    -492.7070592640864675 [Eh]
	-----------------------------------------------------------

  Dipole Moment: [D]
     X:     1.0795      Y:     4.5143      Z:    -0.0537     Total:     4.6419

*** Psi4 exiting successfully. Buy a developer a beer!
