                               Psi4 1.3.2 release

  ==> Input File <==

--------------------------------------------------------------------------
#psi4
#
memory 32 gb

molecule  {
0 1
  O        2.3111590    -1.3984000     0.0000580
  O       -2.2718830    -1.4902890    -0.0001310
  N        1.1826080     0.6255060     0.0000550
  N        0.0153410    -1.3761840    -0.0000340
  C       -1.2346811     0.6647251     0.0999750
  C       -0.0319280     1.2897490     0.0000350
  C        1.2605820    -0.7608720     0.0000310
  C       -1.2542960    -0.7955090    -0.0000670
  C        2.4243390     1.3942650     0.0001240
  C       -2.5504790     1.3758010    -0.0000570
  H        0.0516650     2.3739750     0.0000690
  H        0.0461780    -2.3935470    -0.0000610
  H        2.4800130     2.0209940     0.8935150
  H        2.4798690     2.0213500    -0.8930780
  H        3.2466700     0.6823050    -0.0000520
  H       -3.1375530     1.0948740    -0.8785960
  H       -2.4103180     2.4605130    -0.0000230
  H       -3.1376190     1.0948280     0.8784230
units angstrom
no_reorient  #important for SAPT in psi4, default
symmetry c1  #important for SAPT in psi4, default
}

set PROPERTIES_ORIGIN ["COM"]
properties('MP2/aug-cc-pvtz', properties = ['dipole'])
--------------------------------------------------------------------------

    Molecular point group: c1
  Charge       = 0
  Multiplicity = 1
  Basis Set: AUG-CC-PVTZ
    Blend: AUG-CC-PVTZ
  Basis Set: (AUG-CC-PVTZ AUX)
    Blend: AUG-CC-PVTZ-JKFIT

    Orbital Energies [Eh]
    ---------------------

    Doubly Occupied:

       1A    -20.540854     2A    -20.538547     3A    -15.638623
       4A    -15.624602     5A    -11.413979     6A    -11.376439
       7A    -11.326057     8A    -11.286189     9A    -11.260196
      10A    -11.237038    11A     -1.424295    12A     -1.386963
      13A     -1.307036    14A     -1.242987    15A     -1.108041
      16A     -0.993142    17A     -0.963559    18A     -0.913682
      19A     -0.852626    20A     -0.769961    21A     -0.734860
      22A     -0.692473    23A     -0.682154    24A     -0.649643
      25A     -0.637873    26A     -0.615849    27A     -0.609362
      28A     -0.590646    29A     -0.582533    30A     -0.554704
      31A     -0.547821    32A     -0.541446    33A     -0.487629
      34A     -0.475344    35A     -0.444060    36A     -0.430634
      37A     -0.345963

  @DF-RHF Final Energy:  -490.70884439384997

   => Energetics <=

    Nuclear Repulsion Energy =            530.2423002144751081
    One-Electron Energy =               -1720.2466712881171134
    Two-Electron Energy =                 699.2955266797920331
    Total Energy =                       -490.7088443938499722
  Basis Set: (AUG-CC-PVTZ AUX)
    Blend: AUG-CC-PVTZ-RI
    Molecular point group: c1

    Geometry (in Angstrom), charge = 0, multiplicity = 1:

       Center              X                  Y                   Z               Mass
    ------------   -----------------  -----------------  -----------------  -----------------
         O            2.308434779226    -1.332215357769    -0.008508536935    15.994914619570
         O           -2.274607220774    -1.424104357769    -0.008697536935    15.994914619570
         N            1.179883779226     0.691690642231    -0.008511536935    14.003074004430
         N            0.012616779226    -1.309999357769    -0.008600536935    14.003074004430
         C           -1.237405320774     0.730909742231     0.091408463065    12.000000000000
         C           -0.034652220774     1.355933642231    -0.008531536935    12.000000000000
         C            1.257857779226    -0.694687357769    -0.008535536935    12.000000000000
         C           -1.257020220774    -0.729324357769    -0.008633536935    12.000000000000
         C            2.421614779226     1.460449642231    -0.008442536935    12.000000000000
         C           -2.553203220774     1.441985642231    -0.008623536935    12.000000000000
         H            0.048940779226     2.440159642231    -0.008497536935     1.007825032230
         H            0.043453779226    -2.327362357769    -0.008627536935     1.007825032230
         H            2.477288779226     2.087178642231     0.884948463065     1.007825032230
         H            2.477144779226     2.087534642231    -0.901644536935     1.007825032230
         H            3.243945779226     0.748489642231    -0.008618536935     1.007825032230
         H           -3.140277220774     1.161058642231    -0.887162536935     1.007825032230
         H           -2.413042220774     2.526697642231    -0.008589536935     1.007825032230
         H           -3.140343220774     1.161012642231     0.869856463065     1.007825032230

  Basis Set: AUG-CC-PVTZ
    Blend: AUG-CC-PVTZ
  Basis Set: (AUG-CC-PVTZ AUX)
    Blend: AUG-CC-PVTZ-JKFIT
	 Reference Energy          =    -490.7088443938499722 [Eh]
	 Singles Energy            =      -0.0000000000000000 [Eh]
	 Same-Spin Energy          =      -0.5025107082669525 [Eh]
	 Opposite-Spin Energy      =      -1.5418078655541758 [Eh]
	 Correlation Energy        =      -2.0443185738211285 [Eh]
	 Total Energy              =    -492.7531629676710736 [Eh]

	 ================> DF-SCS-MP2 Energies <==================
	-----------------------------------------------------------
	 SCS Same-Spin Scale       =       0.3333333333333333 [-]
	 SCS Opposite-Spin Scale   =       1.2000000000000000 [-]
	 SCS Same-Spin Energy      =      -0.1675035694223175 [Eh]
	 SCS Opposite-Spin Energy  =      -1.8501694386650109 [Eh]
	 SCS Correlation Energy    =      -2.0176730080873284 [Eh]
	 SCS Total Energy          =    -492.7265174019373148 [Eh]
	-----------------------------------------------------------

  Dipole Moment: [D]
     X:     1.0706      Y:     4.5084      Z:    -0.0558     Total:     4.6341

*** Psi4 exiting successfully. Buy a developer a beer!
