                               Psi4 1.3.2 release

  ==> Input File <==

--------------------------------------------------------------------------
#psi4
#
memory 32 gb

molecule  {
0 1
  O        2.3111590    -1.3984000     0.0000580
  O       -2.2718830    -1.4902890    -0.0001310
  N        1.1826080     0.6255060     0.0000550
  N        0.0153410    -1.3761840    -0.0000340
  C       -1.2346770     0.6647280    -0.0000250
  C       -0.0319280     1.2897490     0.0000350
  C        1.2605820    -0.7608720     0.0000310
  C       -1.2542960    -0.7955090    -0.0000670
  C        2.4243337     1.3942614     0.1501240
  C       -2.5504790     1.3758010    -0.0000570
  H        0.0516650     2.3739750     0.0000690
  H        0.0461780    -2.3935470    -0.0000610
  H        2.4800130     2.0209940     0.8935150
  H        2.4798690     2.0213500    -0.8930780
  H        3.2466700     0.6823050    -0.0000520
  H       -3.1375530     1.0948740    -0.8785960
  H       -2.4103180     2.4605130    -0.0000230
  H       -3.1376190     1.0948280     0.8784230
units angstrom
no_reorient  #important for SAPT in psi4, default
symmetry c1  #important for SAPT in psi4, default
}

set PROPERTIES_ORIGIN ["COM"]
properties('MP2/aug-cc-pvtz', properties = ['dipole'])
--------------------------------------------------------------------------

    Molecular point group: c1
  Charge       = 0
  Multiplicity = 1
  Basis Set: AUG-CC-PVTZ
    Blend: AUG-CC-PVTZ
  Basis Set: (AUG-CC-PVTZ AUX)
    Blend: AUG-CC-PVTZ-JKFIT

    Orbital Energies [Eh]
    ---------------------

    Doubly Occupied:

       1A    -20.541095     2A    -20.538929     3A    -15.639442
       4A    -15.624986     5A    -11.414182     6A    -11.376542
       7A    -11.324932     8A    -11.289309     9A    -11.259962
      10A    -11.237294    11A     -1.424460    12A     -1.387363
      13A     -1.306685    14A     -1.242951    15A     -1.109091
      16A     -0.995493    17A     -0.964618    18A     -0.914476
      19A     -0.854912    20A     -0.771513    21A     -0.738456
      22A     -0.694083    23A     -0.683502    24A     -0.656362
      25A     -0.638065    26A     -0.623549    27A     -0.609346
      28A     -0.590320    29A     -0.573310    30A     -0.554967
      31A     -0.547890    32A     -0.535832    33A     -0.482297
      34A     -0.475595    35A     -0.444688    36A     -0.430824
      37A     -0.345938

  @DF-RHF Final Energy:  -490.68715977588704

   => Energetics <=

    Nuclear Repulsion Energy =            530.2651532709562616
    One-Electron Energy =               -1720.2181044805088277
    Two-Electron Energy =                 699.2657914336655267
    Total Energy =                       -490.6871597758870394
  Basis Set: (AUG-CC-PVTZ AUX)
    Blend: AUG-CC-PVTZ-RI
    Molecular point group: c1

    Geometry (in Angstrom), charge = 0, multiplicity = 1:

       Center              X                  Y                   Z               Mass
    ------------   -----------------  -----------------  -----------------  -----------------
         O            2.308434882040    -1.332215297794    -0.012792458782    15.994914619570
         O           -2.274607117960    -1.424104297794    -0.012981458782    15.994914619570
         N            1.179883882040     0.691690702206    -0.012795458782    14.003074004430
         N            0.012616882040    -1.309999297794    -0.012884458782    14.003074004430
         C           -1.237401117960     0.730912702206    -0.012875458782    12.000000000000
         C           -0.034652117960     1.355933702206    -0.012815458782    12.000000000000
         C            1.257857882040    -0.694687297794    -0.012819458782    12.000000000000
         C           -1.257020117960    -0.729324297794    -0.012917458782    12.000000000000
         C            2.421609582040     1.460446102206     0.137273541218    12.000000000000
         C           -2.553203117960     1.441985702206    -0.012907458782    12.000000000000
         H            0.048940882040     2.440159702206    -0.012781458782     1.007825032230
         H            0.043453882040    -2.327362297794    -0.012911458782     1.007825032230
         H            2.477288882040     2.087178702206     0.880664541218     1.007825032230
         H            2.477144882040     2.087534702206    -0.905928458782     1.007825032230
         H            3.243945882040     0.748489702206    -0.012902458782     1.007825032230
         H           -3.140277117960     1.161058702206    -0.891446458782     1.007825032230
         H           -2.413042117960     2.526697702206    -0.012873458782     1.007825032230
         H           -3.140343117960     1.161012702206     0.865572541218     1.007825032230

  Basis Set: AUG-CC-PVTZ
    Blend: AUG-CC-PVTZ
  Basis Set: (AUG-CC-PVTZ AUX)
    Blend: AUG-CC-PVTZ-JKFIT
	 Reference Energy          =    -490.6871597758870394 [Eh]
	 Singles Energy            =      -0.0000000000000000 [Eh]
	 Same-Spin Energy          =      -0.5026882923578900 [Eh]
	 Opposite-Spin Energy      =      -1.5424627294289857 [Eh]
	 Correlation Energy        =      -2.0451510217868756 [Eh]
	 Total Energy              =    -492.7323107976739038 [Eh]

	 ================> DF-SCS-MP2 Energies <==================
	-----------------------------------------------------------
	 SCS Same-Spin Scale       =       0.3333333333333333 [-]
	 SCS Opposite-Spin Scale   =       1.2000000000000000 [-]
	 SCS Same-Spin Energy      =      -0.1675627641192967 [Eh]
	 SCS Opposite-Spin Energy  =      -1.8509552753147827 [Eh]
	 SCS Correlation Energy    =      -2.0185180394340794 [Eh]
	 SCS Total Energy          =    -492.7056778153211098 [Eh]
	-----------------------------------------------------------

  Dipole Moment: [D]
     X:     1.0175      Y:     4.4740      Z:     0.1681     Total:     4.5913

*** Psi4 exiting successfully. Buy a developer a beer!
