                               Psi4 1.3.2 release

  ==> Input File <==

--------------------------------------------------------------------------
#psi4
#
memory 32 gb

molecule  {
0 1
  O        2.3111590    -1.3984000     0.0000580
  O       -2.2718830    -1.4902890    -0.0001310
  N        1.1826080     0.6255060     0.0000550
  N        0.0153410    -1.3761840    -0.0000340
  C       -1.2346770     0.6647280    -0.0000250
  C       -0.0319280     1.2897490     0.0000350
  C        1.2605820    -0.7608720     0.0000310
  C       -1.2542960    -0.7955090    -0.0000670
  C        2.4243320     1.3942602     0.2001240
  C       -2.5504790     1.3758010    -0.0000570
  H        0.0516650     2.3739750     0.0000690
  H        0.0461780    -2.3935470    -0.0000610
  H        2.4800130     2.0209940     0.8935150
  H        2.4798690     2.0213500    -0.8930780
  H        3.2466700     0.6823050    -0.0000520
  H       -3.1375530     1.0948740    -0.8785960
  H       -2.4103180     2.4605130    -0.0000230
  H       -3.1376190     1.0948280     0.8784230
units angstrom
no_reorient  #important for SAPT in psi4, default
symmetry c1  #important for SAPT in psi4, default
}

set PROPERTIES_ORIGIN ["COM"]
properties('MP2/aug-cc-pvtz', properties = ['dipole'])
--------------------------------------------------------------------------

    Molecular point group: c1
  Charge       = 0
  Multiplicity = 1
  Basis Set: AUG-CC-PVTZ
    Blend: AUG-CC-PVTZ
  Basis Set: (AUG-CC-PVTZ AUX)
    Blend: AUG-CC-PVTZ-JKFIT

    Orbital Energies [Eh]
    ---------------------

    Doubly Occupied:

       1A    -20.541536     2A    -20.539211     3A    -15.640387
       4A    -15.625268     5A    -11.414536     6A    -11.376784
       7A    -11.324919     8A    -11.291889     9A    -11.260197
      10A    -11.237416    11A     -1.424734    12A     -1.387628
      13A     -1.306609    14A     -1.242973    15A     -1.109147
      16A     -0.997511    17A     -0.965163    18A     -0.914638
      19A     -0.856637    20A     -0.772202    21A     -0.741221
      22A     -0.695716    23A     -0.684124    24A     -0.660532
      25A     -0.638083    26A     -0.625025    27A     -0.608999
      28A     -0.590541    29A     -0.570748    30A     -0.554802
      31A     -0.547688    32A     -0.531348    33A     -0.477475
      34A     -0.475756    35A     -0.444947    36A     -0.430973
      37A     -0.345937

  @DF-RHF Final Energy:  -490.66749059031082

   => Energetics <=

    Nuclear Repulsion Energy =            530.1783719320952741
    One-Electron Energy =               -1719.9851229293476536
    Two-Electron Energy =                 699.1392604069416166
    Total Energy =                       -490.6674905903108765
  Basis Set: (AUG-CC-PVTZ AUX)
    Blend: AUG-CC-PVTZ-RI
    Molecular point group: c1

    Geometry (in Angstrom), charge = 0, multiplicity = 1:

       Center              X                  Y                   Z               Mass
    ------------   -----------------  -----------------  -----------------  -----------------
         O            2.308435027693    -1.332215194980    -0.017076380629    15.994914619570
         O           -2.274606972307    -1.424104194980    -0.017265380629    15.994914619570
         N            1.179884027693     0.691690805020    -0.017079380629    14.003074004430
         N            0.012617027693    -1.309999194980    -0.017168380629    14.003074004430
         C           -1.237400972307     0.730912805020    -0.017159380629    12.000000000000
         C           -0.034651972307     1.355933805020    -0.017099380629    12.000000000000
         C            1.257858027693    -0.694687194980    -0.017103380629    12.000000000000
         C           -1.257019972307    -0.729324194980    -0.017201380629    12.000000000000
         C            2.421608027693     1.460445005020     0.182989619371    12.000000000000
         C           -2.553202972307     1.441985805020    -0.017191380629    12.000000000000
         H            0.048941027693     2.440159805020    -0.017065380629     1.007825032230
         H            0.043454027693    -2.327362194980    -0.017195380629     1.007825032230
         H            2.477289027693     2.087178805020     0.876380619371     1.007825032230
         H            2.477145027693     2.087534805020    -0.910212380629     1.007825032230
         H            3.243946027693     0.748489805020    -0.017186380629     1.007825032230
         H           -3.140276972307     1.161058805020    -0.895730380629     1.007825032230
         H           -2.413041972307     2.526697805020    -0.017157380629     1.007825032230
         H           -3.140342972307     1.161012805020     0.861288619371     1.007825032230

  Basis Set: AUG-CC-PVTZ
    Blend: AUG-CC-PVTZ
  Basis Set: (AUG-CC-PVTZ AUX)
    Blend: AUG-CC-PVTZ-JKFIT
	 Reference Energy          =    -490.6674905903108197 [Eh]
	 Singles Energy            =      -0.0000000000000000 [Eh]
	 Same-Spin Energy          =      -0.5029258805617320 [Eh]
	 Opposite-Spin Energy      =      -1.5432912832223691 [Eh]
	 Correlation Energy        =      -2.0462171637841013 [Eh]
	 Total Energy              =    -492.7137077540949122 [Eh]

	 ================> DF-SCS-MP2 Energies <==================
	-----------------------------------------------------------
	 SCS Same-Spin Scale       =       0.3333333333333333 [-]
	 SCS Opposite-Spin Scale   =       1.2000000000000000 [-]
	 SCS Same-Spin Energy      =      -0.1676419601872440 [Eh]
	 SCS Opposite-Spin Energy  =      -1.8519495398668429 [Eh]
	 SCS Correlation Energy    =      -2.0195915000540867 [Eh]
	 SCS Total Energy          =    -492.6870820903649246 [Eh]
	-----------------------------------------------------------

  Dipole Moment: [D]
     X:     0.9941      Y:     4.4385      Z:     0.2182     Total:     4.5537

*** Psi4 exiting successfully. Buy a developer a beer!
