                               Psi4 1.3.2 release

  ==> Input File <==

--------------------------------------------------------------------------
#psi4
#
memory 32 gb

molecule  {
0 1
  O        2.3111590    -1.3984000     0.0000580
  O       -2.2718830    -1.4902890    -0.0001310
  N        1.1826080     0.6255060     0.0000550
  N        0.0153410    -1.3761840    -0.0000340
  C       -1.2346770     0.6647280    -0.0000250
  C       -0.0319280     1.2897490     0.0000350
  C        1.2605820    -0.7608720     0.0000310
  C       -1.2542960    -0.7955090    -0.0000670
  C        2.4243390     1.3942650     0.0001240
  C       -2.5504790     1.3758010    -0.0000570
  H        0.0516667     2.3739765    -0.0499310
  H        0.0461780    -2.3935470    -0.0000610
  H        2.4800130     2.0209940     0.8935150
  H        2.4798690     2.0213500    -0.8930780
  H        3.2466700     0.6823050    -0.0000520
  H       -3.1375530     1.0948740    -0.8785960
  H       -2.4103180     2.4605130    -0.0000230
  H       -3.1376190     1.0948280     0.8784230
units angstrom
no_reorient  #important for SAPT in psi4, default
symmetry c1  #important for SAPT in psi4, default
}

set PROPERTIES_ORIGIN ["COM"]
properties('MP2/aug-cc-pvtz', properties = ['dipole'])
--------------------------------------------------------------------------

    Molecular point group: c1
  Charge       = 0
  Multiplicity = 1
  Basis Set: AUG-CC-PVTZ
    Blend: AUG-CC-PVTZ
  Basis Set: (AUG-CC-PVTZ AUX)
    Blend: AUG-CC-PVTZ-JKFIT

    Orbital Energies [Eh]
    ---------------------

    Doubly Occupied:

       1A    -20.540511     2A    -20.538581     3A    -15.638170
       4A    -15.624623     5A    -11.413714     6A    -11.376245
       7A    -11.325043     8A    -11.285958     9A    -11.259699
      10A    -11.237147    11A     -1.424098    12A     -1.387030
      13A     -1.306771    14A     -1.242917    15A     -1.109021
      16A     -0.993144    17A     -0.963813    18A     -0.914201
      19A     -0.852752    20A     -0.770699    21A     -0.734931
      22A     -0.692175    23A     -0.682043    24A     -0.649483
      25A     -0.637733    26A     -0.615671    27A     -0.609714
      28A     -0.588764    29A     -0.584006    30A     -0.555403
      31A     -0.548087    32A     -0.543195    33A     -0.488023
      34A     -0.475256    35A     -0.444357    36A     -0.430605
      37A     -0.345920

  @DF-RHF Final Energy:  -490.71184001882455

   => Energetics <=

    Nuclear Repulsion Energy =            530.3730370894563748
    One-Electron Energy =               -1720.5107443866138510
    Two-Electron Energy =                 699.4258672783329303
    Total Energy =                       -490.7118400188245460
  Basis Set: (AUG-CC-PVTZ AUX)
    Blend: AUG-CC-PVTZ-RI
    Molecular point group: c1

    Geometry (in Angstrom), charge = 0, multiplicity = 1:

       Center              X                  Y                   Z               Mass
    ------------   -----------------  -----------------  -----------------  -----------------
         O            2.308434415711    -1.332215617030     0.000419093731    15.994914619570
         O           -2.274607584289    -1.424104617030     0.000230093731    15.994914619570
         N            1.179883415711     0.691690382970     0.000416093731    14.003074004430
         N            0.012616415711    -1.309999617030     0.000327093731    14.003074004430
         C           -1.237401584289     0.730912382970     0.000336093731    12.000000000000
         C           -0.034652584289     1.355933382970     0.000396093731    12.000000000000
         C            1.257857415711    -0.694687617030     0.000392093731    12.000000000000
         C           -1.257020584289    -0.729324617030     0.000294093731    12.000000000000
         C            2.421614415711     1.460449382970     0.000485093731    12.000000000000
         C           -2.553203584289     1.441985382970     0.000304093731    12.000000000000
         H            0.048942115711     2.440160882970    -0.049569906269     1.007825032230
         H            0.043453415711    -2.327362617030     0.000300093731     1.007825032230
         H            2.477288415711     2.087178382970     0.893876093731     1.007825032230
         H            2.477144415711     2.087534382970    -0.892716906269     1.007825032230
         H            3.243945415711     0.748489382970     0.000309093731     1.007825032230
         H           -3.140277584289     1.161058382970    -0.878234906269     1.007825032230
         H           -2.413042584289     2.526697382970     0.000338093731     1.007825032230
         H           -3.140343584289     1.161012382970     0.878784093731     1.007825032230

  Basis Set: AUG-CC-PVTZ
    Blend: AUG-CC-PVTZ
  Basis Set: (AUG-CC-PVTZ AUX)
    Blend: AUG-CC-PVTZ-JKFIT
	 Reference Energy          =    -490.7118400188245460 [Eh]
	 Singles Energy            =      -0.0000000000000000 [Eh]
	 Same-Spin Energy          =      -0.5023990371529180 [Eh]
	 Opposite-Spin Energy      =      -1.5414828034863457 [Eh]
	 Correlation Energy        =      -2.0438818406392638 [Eh]
	 Total Energy              =    -492.7557218594637902 [Eh]

	 ================> DF-SCS-MP2 Energies <==================
	-----------------------------------------------------------
	 SCS Same-Spin Scale       =       0.3333333333333333 [-]
	 SCS Opposite-Spin Scale   =       1.2000000000000000 [-]
	 SCS Same-Spin Energy      =      -0.1674663457176393 [Eh]
	 SCS Opposite-Spin Energy  =      -1.8497793641836147 [Eh]
	 SCS Correlation Energy    =      -2.0172457099012542 [Eh]
	 SCS Total Energy          =    -492.7290857287258063 [Eh]
	-----------------------------------------------------------

  Dipole Moment: [D]
     X:     1.0468      Y:     4.5206      Z:    -0.0290     Total:     4.6403

*** Psi4 exiting successfully. Buy a developer a beer!
