                               Psi4 1.3.2 release

  ==> Input File <==

--------------------------------------------------------------------------
#psi4
#
memory 32 gb

molecule  {
0 1
  O        2.3111590    -1.3984000     0.0000580
  O       -2.2718830    -1.4902890    -0.0001310
  N        1.1826080     0.6255060     0.0000550
  N        0.0153410    -1.3761840    -0.0000340
  C       -1.2346770     0.6647280    -0.0000250
  C       -0.0319280     1.2897490     0.0000350
  C        1.2605820    -0.7608720     0.0000310
  C       -1.2542960    -0.7955090    -0.0000670
  C        2.4243390     1.3942650     0.0001240
  C       -2.5504771     1.3758023    -0.0500570
  H        0.0516650     2.3739750     0.0000690
  H        0.0461780    -2.3935470    -0.0000610
  H        2.4800130     2.0209940     0.8935150
  H        2.4798690     2.0213500    -0.8930780
  H        3.2466700     0.6823050    -0.0000520
  H       -3.1375530     1.0948740    -0.8785960
  H       -2.4103180     2.4605130    -0.0000230
  H       -3.1376190     1.0948280     0.8784230
units angstrom
no_reorient  #important for SAPT in psi4, default
symmetry c1  #important for SAPT in psi4, default
}

set PROPERTIES_ORIGIN ["COM"]
properties('MP2/aug-cc-pvtz', properties = ['dipole'])
--------------------------------------------------------------------------

    Molecular point group: c1
  Charge       = 0
  Multiplicity = 1
  Basis Set: AUG-CC-PVTZ
    Blend: AUG-CC-PVTZ
  Basis Set: (AUG-CC-PVTZ AUX)
    Blend: AUG-CC-PVTZ-JKFIT

    Orbital Energies [Eh]
    ---------------------

    Doubly Occupied:

       1A    -20.540539     2A    -20.538579     3A    -15.638224
       4A    -15.624637     5A    -11.413740     6A    -11.376246
       7A    -11.324994     8A    -11.285995     9A    -11.259856
      10A    -11.237511    11A     -1.424123    12A     -1.387031
      13A     -1.306812    14A     -1.242938    15A     -1.109021
      16A     -0.993209    17A     -0.964015    18A     -0.914342
      19A     -0.852910    20A     -0.770792    21A     -0.735022
      22A     -0.692301    23A     -0.682200    24A     -0.649592
      25A     -0.637862    26A     -0.616556    27A     -0.610279
      28A     -0.590501    29A     -0.584107    30A     -0.555569
      31A     -0.549627    32A     -0.538444    33A     -0.487588
      34A     -0.475345    35A     -0.444361    36A     -0.430601
      37A     -0.345763

  @DF-RHF Final Energy:  -490.70941259968026

   => Energetics <=

    Nuclear Repulsion Energy =            530.3672754987912867
    One-Electron Energy =               -1720.4909074742204211
    Two-Electron Energy =                 699.4142193757488712
    Total Energy =                       -490.7094125996802632
  Basis Set: (AUG-CC-PVTZ AUX)
    Blend: AUG-CC-PVTZ-RI
    Molecular point group: c1

    Geometry (in Angstrom), charge = 0, multiplicity = 1:

       Center              X                  Y                   Z               Mass
    ------------   -----------------  -----------------  -----------------  -----------------
         O            2.308434265155    -1.332215717619     0.004343228605    15.994914619570
         O           -2.274607734845    -1.424104717619     0.004154228605    15.994914619570
         N            1.179883265155     0.691690282381     0.004340228605    14.003074004430
         N            0.012616265155    -1.309999717619     0.004251228605    14.003074004430
         C           -1.237401734845     0.730912282381     0.004260228605    12.000000000000
         C           -0.034652734845     1.355933282381     0.004320228605    12.000000000000
         C            1.257857265155    -0.694687717619     0.004316228605    12.000000000000
         C           -1.257020734845    -0.729324717619     0.004218228605    12.000000000000
         C            2.421614265155     1.460449282381     0.004409228605    12.000000000000
         C           -2.553201834845     1.441986582381    -0.045771771395    12.000000000000
         H            0.048940265155     2.440159282381     0.004354228605     1.007825032230
         H            0.043453265155    -2.327362717619     0.004224228605     1.007825032230
         H            2.477288265155     2.087178282381     0.897800228605     1.007825032230
         H            2.477144265155     2.087534282381    -0.888792771395     1.007825032230
         H            3.243945265155     0.748489282381     0.004233228605     1.007825032230
         H           -3.140277734845     1.161058282381    -0.874310771395     1.007825032230
         H           -2.413042734845     2.526697282381     0.004262228605     1.007825032230
         H           -3.140343734845     1.161012282381     0.882708228605     1.007825032230

  Basis Set: AUG-CC-PVTZ
    Blend: AUG-CC-PVTZ
  Basis Set: (AUG-CC-PVTZ AUX)
    Blend: AUG-CC-PVTZ-JKFIT
	 Reference Energy          =    -490.7094125996802632 [Eh]
	 Singles Energy            =      -0.0000000000000000 [Eh]
	 Same-Spin Energy          =      -0.5024199221849092 [Eh]
	 Opposite-Spin Energy      =      -1.5415714821641640 [Eh]
	 Correlation Energy        =      -2.0439914043490730 [Eh]
	 Total Energy              =    -492.7534040040293348 [Eh]

	 ================> DF-SCS-MP2 Energies <==================
	-----------------------------------------------------------
	 SCS Same-Spin Scale       =       0.3333333333333333 [-]
	 SCS Opposite-Spin Scale   =       1.2000000000000000 [-]
	 SCS Same-Spin Energy      =      -0.1674733073949697 [Eh]
	 SCS Opposite-Spin Energy  =      -1.8498857785969967 [Eh]
	 SCS Correlation Energy    =      -2.0173590859919663 [Eh]
	 SCS Total Energy          =    -492.7267716856722473 [Eh]
	-----------------------------------------------------------

  Dipole Moment: [D]
     X:     1.0517      Y:     4.5214      Z:    -0.0188     Total:     4.6421

*** Psi4 exiting successfully. Buy a developer a beer!
