                               Psi4 1.3.2 release

  ==> Input File <==

--------------------------------------------------------------------------
#psi4
#
memory 32 gb

molecule  {
0 1
  O        2.3111590    -1.3984000     0.0000580
  O       -2.2718830    -1.4902890    -0.0001310
  N        1.1826080     0.6255060     0.0000550
  N        0.0153410    -1.3761840    -0.0000340
  C       -1.2346770     0.6647280    -0.0000250
  C       -0.0319280     1.2897490     0.0000350
  C        1.2605820    -0.7608720     0.0000310
  C       -1.2542960    -0.7955090    -0.0000670
  C        2.4243390     1.3942650     0.0001240
  C       -2.5504790     1.3758010    -0.0000570
  H        0.0516650     2.3739750     0.0000690
  H        0.0461684    -2.3935539     0.2499390
  H        2.4800130     2.0209940     0.8935150
  H        2.4798690     2.0213500    -0.8930780
  H        3.2466700     0.6823050    -0.0000520
  H       -3.1375530     1.0948740    -0.8785960
  H       -2.4103180     2.4605130    -0.0000230
  H       -3.1376190     1.0948280     0.8784230
units angstrom
no_reorient  #important for SAPT in psi4, default
symmetry c1  #important for SAPT in psi4, default
}

set PROPERTIES_ORIGIN ["COM"]
properties('MP2/aug-cc-pvtz', properties = ['dipole'])
--------------------------------------------------------------------------

    Molecular point group: c1
  Charge       = 0
  Multiplicity = 1
  Basis Set: AUG-CC-PVTZ
    Blend: AUG-CC-PVTZ
  Basis Set: (AUG-CC-PVTZ AUX)
    Blend: AUG-CC-PVTZ-JKFIT

    Orbital Energies [Eh]
    ---------------------

    Doubly Occupied:

       1A    -20.540614     2A    -20.538774     3A    -15.638068
       4A    -15.625954     5A    -11.413389     6A    -11.375878
       7A    -11.324978     8A    -11.285878     9A    -11.259525
      10A    -11.237047    11A     -1.423600    12A     -1.386854
      13A     -1.306683    14A     -1.240195    15A     -1.108699
      16A     -0.992791    17A     -0.963538    18A     -0.911899
      19A     -0.852186    20A     -0.769832    21A     -0.729418
      22A     -0.692307    23A     -0.680608    24A     -0.648672
      25A     -0.637754    26A     -0.616758    27A     -0.607279
      28A     -0.588631    29A     -0.583722    30A     -0.554676
      31A     -0.547969    32A     -0.542635    33A     -0.487835
      34A     -0.475213    35A     -0.444408    36A     -0.430434
      37A     -0.345817

  @DF-RHF Final Energy:  -490.70821402706412

   => Energetics <=

    Nuclear Repulsion Energy =            530.2216923019091155
    One-Electron Energy =               -1720.2387736397897697
    Two-Electron Energy =                 699.3088673108165949
    Total Energy =                       -490.7082140270640593
  Basis Set: (AUG-CC-PVTZ AUX)
    Blend: AUG-CC-PVTZ-RI
    Molecular point group: c1

    Geometry (in Angstrom), charge = 0, multiplicity = 1:

       Center              X                  Y                   Z               Mass
    ------------   -----------------  -----------------  -----------------  -----------------
         O            2.308434497023    -1.332215556586    -0.001739628106    15.994914619570
         O           -2.274607502977    -1.424104556586    -0.001928628106    15.994914619570
         N            1.179883497023     0.691690443414    -0.001742628106    14.003074004430
         N            0.012616497023    -1.309999556586    -0.001831628106    14.003074004430
         C           -1.237401502977     0.730912443414    -0.001822628106    12.000000000000
         C           -0.034652502977     1.355933443414    -0.001762628106    12.000000000000
         C            1.257857497023    -0.694687556586    -0.001766628106    12.000000000000
         C           -1.257020502977    -0.729324556586    -0.001864628106    12.000000000000
         C            2.421614497023     1.460449443414    -0.001673628106    12.000000000000
         C           -2.553203502977     1.441985443414    -0.001854628106    12.000000000000
         H            0.048940497023     2.440159443414    -0.001728628106     1.007825032230
         H            0.043443897023    -2.327369456586     0.248141371894     1.007825032230
         H            2.477288497023     2.087178443414     0.891717371894     1.007825032230
         H            2.477144497023     2.087534443414    -0.894875628106     1.007825032230
         H            3.243945497023     0.748489443414    -0.001849628106     1.007825032230
         H           -3.140277502977     1.161058443414    -0.880393628106     1.007825032230
         H           -2.413042502977     2.526697443414    -0.001820628106     1.007825032230
         H           -3.140343502977     1.161012443414     0.876625371894     1.007825032230

  Basis Set: AUG-CC-PVTZ
    Blend: AUG-CC-PVTZ
  Basis Set: (AUG-CC-PVTZ AUX)
    Blend: AUG-CC-PVTZ-JKFIT
	 Reference Energy          =    -490.7082140270641162 [Eh]
	 Singles Energy            =      -0.0000000000000000 [Eh]
	 Same-Spin Energy          =      -0.5026717230558225 [Eh]
	 Opposite-Spin Energy      =      -1.5420899955373044 [Eh]
	 Correlation Energy        =      -2.0447617185931271 [Eh]
	 Total Energy              =    -492.7529757456572383 [Eh]

	 ================> DF-SCS-MP2 Energies <==================
	-----------------------------------------------------------
	 SCS Same-Spin Scale       =       0.3333333333333333 [-]
	 SCS Opposite-Spin Scale   =       1.2000000000000000 [-]
	 SCS Same-Spin Energy      =      -0.1675572410186075 [Eh]
	 SCS Opposite-Spin Energy  =      -1.8505079946447651 [Eh]
	 SCS Correlation Energy    =      -2.0180652356633728 [Eh]
	 SCS Total Energy          =    -492.7262792627274735 [Eh]
	-----------------------------------------------------------

  Dipole Moment: [D]
     X:     1.0462      Y:     4.5332      Z:     0.3212     Total:     4.6634

*** Psi4 exiting successfully. Buy a developer a beer!
