                               Psi4 1.3.2 release

  ==> Input File <==

--------------------------------------------------------------------------
#psi4
#
memory 32 gb

molecule  {
0 1
  O        2.3111590    -1.3984000     0.0000580
  O       -2.2718830    -1.4902890    -0.0001310
  N        1.1826080     0.6255060     0.0000550
  N        0.0153410    -1.3761840    -0.0000340
  C       -1.2346770     0.6647280    -0.0000250
  C       -0.0319280     1.2897490     0.0000350
  C        1.2605820    -0.7608720     0.0000310
  C       -1.2542960    -0.7955090    -0.0000670
  C        2.4243390     1.3942650     0.0001240
  C       -2.5504715     1.3758064    -0.2000570
  H        0.0516650     2.3739750     0.0000690
  H        0.0461780    -2.3935470    -0.0000610
  H        2.4800130     2.0209940     0.8935150
  H        2.4798690     2.0213500    -0.8930780
  H        3.2466700     0.6823050    -0.0000520
  H       -3.1375530     1.0948740    -0.8785960
  H       -2.4103180     2.4605130    -0.0000230
  H       -3.1376190     1.0948280     0.8784230
units angstrom
no_reorient  #important for SAPT in psi4, default
symmetry c1  #important for SAPT in psi4, default
}

set PROPERTIES_ORIGIN ["COM"]
properties('MP2/aug-cc-pvtz', properties = ['dipole'])
--------------------------------------------------------------------------

    Molecular point group: c1
  Charge       = 0
  Multiplicity = 1
  Basis Set: AUG-CC-PVTZ
    Blend: AUG-CC-PVTZ
  Basis Set: (AUG-CC-PVTZ AUX)
    Blend: AUG-CC-PVTZ-JKFIT

    Orbital Energies [Eh]
    ---------------------

    Doubly Occupied:

       1A    -20.540911     2A    -20.538869     3A    -15.638806
       4A    -15.624978     5A    -11.414103     6A    -11.376567
       7A    -11.325600     8A    -11.286337     9A    -11.262808
      10A    -11.243134    11A     -1.424489    12A     -1.387279
      13A     -1.307270    14A     -1.243290    15A     -1.109020
      16A     -0.994162    17A     -0.966649    18A     -0.915567
      19A     -0.855347    20A     -0.772068    21A     -0.736520
      22A     -0.693027    23A     -0.682611    24A     -0.652665
      25A     -0.640745    26A     -0.631792    27A     -0.612579
      28A     -0.598303    29A     -0.583623    30A     -0.557502
      31A     -0.547662    32A     -0.514484    33A     -0.479362
      34A     -0.475500    35A     -0.444587    36A     -0.430620
      37A     -0.343447

  @DF-RHF Final Energy:  -490.66999483943198

   => Energetics <=

    Nuclear Repulsion Energy =            530.2077780524997479
    One-Electron Energy =               -1720.0509795357104394
    Two-Electron Energy =                 699.1732066437785988
    Total Energy =                       -490.6699948394319790
  Basis Set: (AUG-CC-PVTZ AUX)
    Blend: AUG-CC-PVTZ-RI
    Molecular point group: c1

    Geometry (in Angstrom), charge = 0, multiplicity = 1:

       Center              X                  Y                   Z               Mass
    ------------   -----------------  -----------------  -----------------  -----------------
         O            2.308433785356    -1.332216068900     0.017194994145    15.994914619570
         O           -2.274608214644    -1.424105068900     0.017005994145    15.994914619570
         N            1.179882785356     0.691689931100     0.017191994145    14.003074004430
         N            0.012615785356    -1.310000068900     0.017102994145    14.003074004430
         C           -1.237402214644     0.730911931100     0.017111994145    12.000000000000
         C           -0.034653214644     1.355932931100     0.017171994145    12.000000000000
         C            1.257856785356    -0.694688068900     0.017167994145    12.000000000000
         C           -1.257021214644    -0.729325068900     0.017069994145    12.000000000000
         C            2.421613785356     1.460448931100     0.017260994145    12.000000000000
         C           -2.553196714644     1.441990331100    -0.182920005855    12.000000000000
         H            0.048939785356     2.440158931100     0.017205994145     1.007825032230
         H            0.043452785356    -2.327363068900     0.017075994145     1.007825032230
         H            2.477287785356     2.087177931100     0.910651994145     1.007825032230
         H            2.477143785356     2.087533931100    -0.875941005855     1.007825032230
         H            3.243944785356     0.748488931100     0.017084994145     1.007825032230
         H           -3.140278214644     1.161057931100    -0.861459005855     1.007825032230
         H           -2.413043214644     2.526696931100     0.017113994145     1.007825032230
         H           -3.140344214644     1.161011931100     0.895559994145     1.007825032230

  Basis Set: AUG-CC-PVTZ
    Blend: AUG-CC-PVTZ
  Basis Set: (AUG-CC-PVTZ AUX)
    Blend: AUG-CC-PVTZ-JKFIT
	 Reference Energy          =    -490.6699948394319790 [Eh]
	 Singles Energy            =      -0.0000000000000000 [Eh]
	 Same-Spin Energy          =      -0.5029238384753549 [Eh]
	 Opposite-Spin Energy      =      -1.5433046217279738 [Eh]
	 Correlation Energy        =      -2.0462284602033289 [Eh]
	 Total Energy              =    -492.7162232996353168 [Eh]

	 ================> DF-SCS-MP2 Energies <==================
	-----------------------------------------------------------
	 SCS Same-Spin Scale       =       0.3333333333333333 [-]
	 SCS Opposite-Spin Scale   =       1.2000000000000000 [-]
	 SCS Same-Spin Energy      =      -0.1676412794917850 [Eh]
	 SCS Opposite-Spin Energy  =      -1.8519655460735684 [Eh]
	 SCS Correlation Energy    =      -2.0196068255653534 [Eh]
	 SCS Total Energy          =    -492.6896016649973262 [Eh]
	-----------------------------------------------------------

  Dipole Moment: [D]
     X:     1.1025      Y:     4.5076      Z:    -0.0680     Total:     4.6410

*** Psi4 exiting successfully. Buy a developer a beer!
