                               Psi4 1.3.2 release

  ==> Input File <==

--------------------------------------------------------------------------
#psi4
#
memory 32 gb

molecule  {
0 1
  O        2.3111590    -1.3984000     0.0000580
  O       -2.2718830    -1.4902890    -0.0001310
  N        1.1826080     0.6255060     0.0000550
  N        0.0153410    -1.3761840    -0.0000340
  C       -1.2346770     0.6647280    -0.0000250
  C       -0.0319280     1.2897490     0.0000350
  C        1.2605820    -0.7608720     0.0000310
  C       -1.2542960    -0.7955090    -0.0000670
  C        2.4243390     1.3942650     0.0001240
  C       -2.5504790     1.3758010    -0.0000570
  H        0.0516650     2.3739750     0.0000690
  H        0.0461761    -2.3935484     0.0499390
  H        2.4800130     2.0209940     0.8935150
  H        2.4798690     2.0213500    -0.8930780
  H        3.2466700     0.6823050    -0.0000520
  H       -3.1375530     1.0948740    -0.8785960
  H       -2.4103180     2.4605130    -0.0000230
  H       -3.1376190     1.0948280     0.8784230
units angstrom
no_reorient  #important for SAPT in psi4, default
symmetry c1  #important for SAPT in psi4, default
}

set PROPERTIES_ORIGIN ["COM"]
properties('MP2/aug-cc-pvtz', properties = ['dipole'])
--------------------------------------------------------------------------

    Molecular point group: c1
  Charge       = 0
  Multiplicity = 1
  Basis Set: AUG-CC-PVTZ
    Blend: AUG-CC-PVTZ
  Basis Set: (AUG-CC-PVTZ AUX)
    Blend: AUG-CC-PVTZ-JKFIT

    Orbital Energies [Eh]
    ---------------------

    Doubly Occupied:

       1A    -20.540519     2A    -20.538569     3A    -15.638180
       4A    -15.624670     5A    -11.413702     6A    -11.376210
       7A    -11.324954     8A    -11.285968     9A    -11.259650
      10A    -11.237131    11A     -1.424077    12A     -1.387008
      13A     -1.306777    14A     -1.242799    15A     -1.109007
      16A     -0.993136    17A     -0.963835    18A     -0.914161
      19A     -0.852724    20A     -0.770668    21A     -0.734704
      22A     -0.692262    23A     -0.682105    24A     -0.649459
      25A     -0.637785    26A     -0.615733    27A     -0.609656
      28A     -0.588764    29A     -0.583995    30A     -0.555367
      31A     -0.548074    32A     -0.543167    33A     -0.487996
      34A     -0.475322    35A     -0.444349    36A     -0.430592
      37A     -0.345910

  @DF-RHF Final Energy:  -490.71186984939379

   => Energetics <=

    Nuclear Repulsion Energy =            530.3715515647958227
    One-Electron Energy =               -1720.5088711209061785
    Two-Electron Energy =                 699.4254497067166767
    Total Energy =                       -490.7118698493937927
  Basis Set: (AUG-CC-PVTZ AUX)
    Blend: AUG-CC-PVTZ-RI
    Molecular point group: c1

    Geometry (in Angstrom), charge = 0, multiplicity = 1:

       Center              X                  Y                   Z               Mass
    ------------   -----------------  -----------------  -----------------  -----------------
         O            2.308434441616    -1.332215596163    -0.000300480215    15.994914619570
         O           -2.274607558384    -1.424104596163    -0.000489480215    15.994914619570
         N            1.179883441616     0.691690403837    -0.000303480215    14.003074004430
         N            0.012616441616    -1.309999596163    -0.000392480215    14.003074004430
         C           -1.237401558384     0.730912403837    -0.000383480215    12.000000000000
         C           -0.034652558384     1.355933403837    -0.000323480215    12.000000000000
         C            1.257857441616    -0.694687596163    -0.000327480215    12.000000000000
         C           -1.257020558384    -0.729324596163    -0.000425480215    12.000000000000
         C            2.421614441616     1.460449403837    -0.000234480215    12.000000000000
         C           -2.553203558384     1.441985403837    -0.000415480215    12.000000000000
         H            0.048940441616     2.440159403837    -0.000289480215     1.007825032230
         H            0.043451541616    -2.327363996163     0.049580519785     1.007825032230
         H            2.477288441616     2.087178403837     0.893156519785     1.007825032230
         H            2.477144441616     2.087534403837    -0.893436480215     1.007825032230
         H            3.243945441616     0.748489403837    -0.000410480215     1.007825032230
         H           -3.140277558384     1.161058403837    -0.878954480215     1.007825032230
         H           -2.413042558384     2.526697403837    -0.000381480215     1.007825032230
         H           -3.140343558384     1.161012403837     0.878064519785     1.007825032230

  Basis Set: AUG-CC-PVTZ
    Blend: AUG-CC-PVTZ
  Basis Set: (AUG-CC-PVTZ AUX)
    Blend: AUG-CC-PVTZ-JKFIT
	 Reference Energy          =    -490.7118698493937927 [Eh]
	 Singles Energy            =      -0.0000000000000000 [Eh]
	 Same-Spin Energy          =      -0.5023984670541133 [Eh]
	 Opposite-Spin Energy      =      -1.5414863773659919 [Eh]
	 Correlation Energy        =      -2.0438848444201052 [Eh]
	 Total Energy              =    -492.7557546938139126 [Eh]

	 ================> DF-SCS-MP2 Energies <==================
	-----------------------------------------------------------
	 SCS Same-Spin Scale       =       0.3333333333333333 [-]
	 SCS Opposite-Spin Scale   =       1.2000000000000000 [-]
	 SCS Same-Spin Energy      =      -0.1674661556847044 [Eh]
	 SCS Opposite-Spin Energy  =      -1.8497836528391902 [Eh]
	 SCS Correlation Energy    =      -2.0172498085238946 [Eh]
	 SCS Total Energy          =    -492.7291196579176926 [Eh]
	-----------------------------------------------------------

  Dipole Moment: [D]
     X:     1.0480      Y:     4.5227      Z:     0.0646     Total:     4.6430

*** Psi4 exiting successfully. Buy a developer a beer!
