                               Psi4 1.3.2 release

  ==> Input File <==

--------------------------------------------------------------------------
#psi4
#
memory 32 gb

molecule  {
0 1
  O        2.3111590    -1.3984000     0.0000580
  O       -2.2718830    -1.4902890    -0.0001310
  N        1.1826080     0.6255060     0.0000550
  N        0.0153410    -1.3761840    -0.0000340
  C       -1.2346831     0.6647236     0.1499750
  C       -0.0319280     1.2897490     0.0000350
  C        1.2605820    -0.7608720     0.0000310
  C       -1.2542960    -0.7955090    -0.0000670
  C        2.4243390     1.3942650     0.0001240
  C       -2.5504790     1.3758010    -0.0000570
  H        0.0516650     2.3739750     0.0000690
  H        0.0461780    -2.3935470    -0.0000610
  H        2.4800130     2.0209940     0.8935150
  H        2.4798690     2.0213500    -0.8930780
  H        3.2466700     0.6823050    -0.0000520
  H       -3.1375530     1.0948740    -0.8785960
  H       -2.4103180     2.4605130    -0.0000230
  H       -3.1376190     1.0948280     0.8784230
units angstrom
no_reorient  #important for SAPT in psi4, default
symmetry c1  #important for SAPT in psi4, default
}

set PROPERTIES_ORIGIN ["COM"]
properties('MP2/aug-cc-pvtz', properties = ['dipole'])
--------------------------------------------------------------------------

    Molecular point group: c1
  Charge       = 0
  Multiplicity = 1
  Basis Set: AUG-CC-PVTZ
    Blend: AUG-CC-PVTZ
  Basis Set: (AUG-CC-PVTZ AUX)
    Blend: AUG-CC-PVTZ-JKFIT

    Orbital Energies [Eh]
    ---------------------

    Doubly Occupied:

       1A    -20.541282     2A    -20.538538     3A    -15.639177
       4A    -15.624590     5A    -11.414310     6A    -11.376701
       7A    -11.327430     8A    -11.286463     9A    -11.260859
      10A    -11.236914    11A     -1.424547    12A     -1.386901
      13A     -1.307360    14A     -1.243082    15A     -1.106819
      16A     -0.993147    17A     -0.963206    18A     -0.912972
      19A     -0.852477    20A     -0.769054    21A     -0.734768
      22A     -0.692741    23A     -0.682145    24A     -0.649838
      25A     -0.637984    26A     -0.616041    27A     -0.608878
      28A     -0.592067    29A     -0.581595    30A     -0.554141
      31A     -0.547194    32A     -0.539330    33A     -0.487162
      34A     -0.475374    35A     -0.443690    36A     -0.430679
      37A     -0.346037

  @DF-RHF Final Energy:  -490.70489778852948

   => Energetics <=

    Nuclear Repulsion Energy =            530.0737960625056076
    One-Electron Energy =               -1719.9063990614408794
    Two-Electron Energy =                 699.1277052104057930
    Total Energy =                       -490.7048977885294789
  Basis Set: (AUG-CC-PVTZ AUX)
    Blend: AUG-CC-PVTZ-RI
    Molecular point group: c1

    Geometry (in Angstrom), charge = 0, multiplicity = 1:

       Center              X                  Y                   Z               Mass
    ------------   -----------------  -----------------  -----------------  -----------------
         O            2.308434950582    -1.332215229252    -0.012792458782    15.994914619570
         O           -2.274607049418    -1.424104229252    -0.012981458782    15.994914619570
         N            1.179883950582     0.691690770748    -0.012795458782    14.003074004430
         N            0.012616950582    -1.309999229252    -0.012884458782    14.003074004430
         C           -1.237407149418     0.730908370748     0.137124541218    12.000000000000
         C           -0.034652049418     1.355933770748    -0.012815458782    12.000000000000
         C            1.257857950582    -0.694687229252    -0.012819458782    12.000000000000
         C           -1.257020049418    -0.729324229252    -0.012917458782    12.000000000000
         C            2.421614950582     1.460449770748    -0.012726458782    12.000000000000
         C           -2.553203049418     1.441985770748    -0.012907458782    12.000000000000
         H            0.048940950582     2.440159770748    -0.012781458782     1.007825032230
         H            0.043453950582    -2.327362229252    -0.012911458782     1.007825032230
         H            2.477288950582     2.087178770748     0.880664541218     1.007825032230
         H            2.477144950582     2.087534770748    -0.905928458782     1.007825032230
         H            3.243945950582     0.748489770748    -0.012902458782     1.007825032230
         H           -3.140277049418     1.161058770748    -0.891446458782     1.007825032230
         H           -2.413042049418     2.526697770748    -0.012873458782     1.007825032230
         H           -3.140343049418     1.161012770748     0.865572541218     1.007825032230

  Basis Set: AUG-CC-PVTZ
    Blend: AUG-CC-PVTZ
  Basis Set: (AUG-CC-PVTZ AUX)
    Blend: AUG-CC-PVTZ-JKFIT
	 Reference Energy          =    -490.7048977885294789 [Eh]
	 Singles Energy            =      -0.0000000000000000 [Eh]
	 Same-Spin Energy          =      -0.5026677558779951 [Eh]
	 Opposite-Spin Energy      =      -1.5422626361963754 [Eh]
	 Correlation Energy        =      -2.0449303920743702 [Eh]
	 Total Energy              =    -492.7498281806038563 [Eh]

	 ================> DF-SCS-MP2 Energies <==================
	-----------------------------------------------------------
	 SCS Same-Spin Scale       =       0.3333333333333333 [-]
	 SCS Opposite-Spin Scale   =       1.2000000000000000 [-]
	 SCS Same-Spin Energy      =      -0.1675559186259983 [Eh]
	 SCS Opposite-Spin Energy  =      -1.8507151634356505 [Eh]
	 SCS Correlation Energy    =      -2.0182710820616490 [Eh]
	 SCS Total Energy          =    -492.7231688705911097 [Eh]
	-----------------------------------------------------------

  Dipole Moment: [D]
     X:     1.0985      Y:     4.4909      Z:    -0.0850     Total:     4.6241

*** Psi4 exiting successfully. Buy a developer a beer!
