                               Psi4 1.3.2 release

  ==> Input File <==

--------------------------------------------------------------------------
#psi4
#
memory 32 gb

molecule  {
0 1
  O        2.3111590    -1.3984000     0.0000580
  O       -2.2718830    -1.4902890    -0.0001310
  N        1.1826080     0.6255060     0.0000550
  N        0.0153410    -1.3761840    -0.0000340
  C       -1.2346770     0.6647280    -0.0000250
  C       -0.0319280     1.2897490     0.0000350
  C        1.2605820    -0.7608720     0.0000310
  C       -1.2542960    -0.7955090    -0.0000670
  C        2.4243302     1.3942590     0.2501240
  C       -2.5504790     1.3758010    -0.0000570
  H        0.0516650     2.3739750     0.0000690
  H        0.0461780    -2.3935470    -0.0000610
  H        2.4800130     2.0209940     0.8935150
  H        2.4798690     2.0213500    -0.8930780
  H        3.2466700     0.6823050    -0.0000520
  H       -3.1375530     1.0948740    -0.8785960
  H       -2.4103180     2.4605130    -0.0000230
  H       -3.1376190     1.0948280     0.8784230
units angstrom
no_reorient  #important for SAPT in psi4, default
symmetry c1  #important for SAPT in psi4, default
}

set PROPERTIES_ORIGIN ["COM"]
properties('MP2/aug-cc-pvtz', properties = ['dipole'])
--------------------------------------------------------------------------

    Molecular point group: c1
  Charge       = 0
  Multiplicity = 1
  Basis Set: AUG-CC-PVTZ
    Blend: AUG-CC-PVTZ
  Basis Set: (AUG-CC-PVTZ AUX)
    Blend: AUG-CC-PVTZ-JKFIT

    Orbital Energies [Eh]
    ---------------------

    Doubly Occupied:

       1A    -20.542089     2A    -20.539565     3A    -15.641560
       4A    -15.625621     5A    -11.414979     6A    -11.377088
       7A    -11.324906     8A    -11.295182     9A    -11.260493
      10A    -11.237572    11A     -1.425075    12A     -1.387961
      13A     -1.306511    14A     -1.242993    15A     -1.109219
      16A     -1.000337    17A     -0.965792    18A     -0.914839
      19A     -0.858862    20A     -0.773153    21A     -0.744583
      22A     -0.697730    23A     -0.684571    24A     -0.664288
      25A     -0.638113    26A     -0.625439    27A     -0.608479
      28A     -0.590728    29A     -0.569230    30A     -0.554690
      31A     -0.547395    32A     -0.527209    33A     -0.476062
      34A     -0.471013    35A     -0.445270    36A     -0.431120
      37A     -0.345909

  @DF-RHF Final Energy:  -490.64181400058135

   => Energetics <=

    Nuclear Repulsion Energy =            530.0679415347805161
    One-Electron Energy =               -1719.6882622727473517
    Two-Electron Energy =                 698.9785067373853735
    Total Energy =                       -490.6418140005813484
  Basis Set: (AUG-CC-PVTZ AUX)
    Blend: AUG-CC-PVTZ-RI
    Molecular point group: c1

    Geometry (in Angstrom), charge = 0, multiplicity = 1:

       Center              X                  Y                   Z               Mass
    ------------   -----------------  -----------------  -----------------  -----------------
         O            2.308435181914    -1.332215092166    -0.021360302476    15.994914619570
         O           -2.274606818086    -1.424104092166    -0.021549302476    15.994914619570
         N            1.179884181914     0.691690907834    -0.021363302476    14.003074004430
         N            0.012617181914    -1.309999092166    -0.021452302476    14.003074004430
         C           -1.237400818086     0.730912907834    -0.021443302476    12.000000000000
         C           -0.034651818086     1.355933907834    -0.021383302476    12.000000000000
         C            1.257858181914    -0.694687092166    -0.021387302476    12.000000000000
         C           -1.257019818086    -0.729324092166    -0.021485302476    12.000000000000
         C            2.421606381914     1.460443907834     0.228705697524    12.000000000000
         C           -2.553202818086     1.441985907834    -0.021475302476    12.000000000000
         H            0.048941181914     2.440159907834    -0.021349302476     1.007825032230
         H            0.043454181914    -2.327362092166    -0.021479302476     1.007825032230
         H            2.477289181914     2.087178907834     0.872096697524     1.007825032230
         H            2.477145181914     2.087534907834    -0.914496302476     1.007825032230
         H            3.243946181914     0.748489907834    -0.021470302476     1.007825032230
         H           -3.140276818086     1.161058907834    -0.900014302476     1.007825032230
         H           -2.413041818086     2.526697907834    -0.021441302476     1.007825032230
         H           -3.140342818086     1.161012907834     0.857004697524     1.007825032230

  Basis Set: AUG-CC-PVTZ
    Blend: AUG-CC-PVTZ
  Basis Set: (AUG-CC-PVTZ AUX)
    Blend: AUG-CC-PVTZ-JKFIT
	 Reference Energy          =    -490.6418140005813484 [Eh]
	 Singles Energy            =      -0.0000000000000000 [Eh]
	 Same-Spin Energy          =      -0.5032358207691496 [Eh]
	 Opposite-Spin Energy      =      -1.5444030529969579 [Eh]
	 Correlation Energy        =      -2.0476388737661075 [Eh]
	 Total Energy              =    -492.6894528743474666 [Eh]

	 ================> DF-SCS-MP2 Energies <==================
	-----------------------------------------------------------
	 SCS Same-Spin Scale       =       0.3333333333333333 [-]
	 SCS Opposite-Spin Scale   =       1.2000000000000000 [-]
	 SCS Same-Spin Energy      =      -0.1677452735897165 [Eh]
	 SCS Opposite-Spin Energy  =      -1.8532836635963494 [Eh]
	 SCS Correlation Energy    =      -2.0210289371860659 [Eh]
	 SCS Total Energy          =    -492.6628429377674365 [Eh]
	-----------------------------------------------------------

  Dipole Moment: [D]
     X:     0.9645      Y:     4.3958      Z:     0.2629     Total:     4.5080

*** Psi4 exiting successfully. Buy a developer a beer!
