                               Psi4 1.3.2 release

  ==> Input File <==

--------------------------------------------------------------------------
#psi4
#
memory 32 gb

molecule  {
0 1
  O        2.3111590    -1.3984000     0.0000580
  O       -2.2718830    -1.4902890    -0.0001310
  N        1.1826080     0.6255060     0.0000550
  N        0.0153410    -1.3761840    -0.0000340
  C       -1.2346770     0.6647280    -0.0000250
  C       -0.0319280     1.2897490     0.0000350
  C        1.2605820    -0.7608720     0.0000310
  C       -1.2542960    -0.7955090    -0.0000670
  C        2.4243390     1.3942650     0.0001240
  C       -2.5504790     1.3758010    -0.0000570
  H        0.0516700     2.3739795    -0.1499310
  H        0.0461780    -2.3935470    -0.0000610
  H        2.4800130     2.0209940     0.8935150
  H        2.4798690     2.0213500    -0.8930780
  H        3.2466700     0.6823050    -0.0000520
  H       -3.1375530     1.0948740    -0.8785960
  H       -2.4103180     2.4605130    -0.0000230
  H       -3.1376190     1.0948280     0.8784230
units angstrom
no_reorient  #important for SAPT in psi4, default
symmetry c1  #important for SAPT in psi4, default
}

set PROPERTIES_ORIGIN ["COM"]
properties('MP2/aug-cc-pvtz', properties = ['dipole'])
--------------------------------------------------------------------------

    Molecular point group: c1
  Charge       = 0
  Multiplicity = 1
  Basis Set: AUG-CC-PVTZ
    Blend: AUG-CC-PVTZ
  Basis Set: (AUG-CC-PVTZ AUX)
    Blend: AUG-CC-PVTZ-JKFIT

    Orbital Energies [Eh]
    ---------------------

    Doubly Occupied:

       1A    -20.540490     2A    -20.538754     3A    -15.638053
       4A    -15.624697     5A    -11.413704     6A    -11.376404
       7A    -11.325756     8A    -11.285845     9A    -11.260051
      10A    -11.237244    11A     -1.424100    12A     -1.387154
      13A     -1.306690    14A     -1.242941    15A     -1.109024
      16A     -0.993088    17A     -0.963545    18A     -0.913719
      19A     -0.852788    20A     -0.770639    21A     -0.734921
      22A     -0.691593    23A     -0.681001    24A     -0.649434
      25A     -0.637311    26A     -0.615680    27A     -0.609204
      28A     -0.588723    29A     -0.583997    30A     -0.555463
      31A     -0.548158    32A     -0.543247    33A     -0.488171
      34A     -0.474705    35A     -0.444444    36A     -0.430663
      37A     -0.345973

  @DF-RHF Final Energy:  -490.71052322110341

   => Energetics <=

    Nuclear Repulsion Energy =            530.3337066976027927
    One-Electron Energy =               -1720.4337126170144074
    Two-Electron Energy =                 699.3894826983082567
    Total Energy =                       -490.7105232211033581
  Basis Set: (AUG-CC-PVTZ AUX)
    Blend: AUG-CC-PVTZ-RI
    Molecular point group: c1

    Geometry (in Angstrom), charge = 0, multiplicity = 1:

       Center              X                  Y                   Z               Mass
    ------------   -----------------  -----------------  -----------------  -----------------
         O            2.308434391965    -1.332215638618     0.001138667676    15.994914619570
         O           -2.274607608035    -1.424104638618     0.000949667676    15.994914619570
         N            1.179883391965     0.691690361382     0.001135667676    14.003074004430
         N            0.012616391965    -1.309999638618     0.001046667676    14.003074004430
         C           -1.237401608035     0.730912361382     0.001055667676    12.000000000000
         C           -0.034652608035     1.355933361382     0.001115667676    12.000000000000
         C            1.257857391965    -0.694687638618     0.001111667676    12.000000000000
         C           -1.257020608035    -0.729324638618     0.001013667676    12.000000000000
         C            2.421614391965     1.460449361382     0.001204667676    12.000000000000
         C           -2.553203608035     1.441985361382     0.001023667676    12.000000000000
         H            0.048945391965     2.440163861382    -0.148850332324     1.007825032230
         H            0.043453391965    -2.327362638618     0.001019667676     1.007825032230
         H            2.477288391965     2.087178361382     0.894595667676     1.007825032230
         H            2.477144391965     2.087534361382    -0.891997332324     1.007825032230
         H            3.243945391965     0.748489361382     0.001028667676     1.007825032230
         H           -3.140277608035     1.161058361382    -0.877515332324     1.007825032230
         H           -2.413042608035     2.526697361382     0.001057667676     1.007825032230
         H           -3.140343608035     1.161012361382     0.879503667676     1.007825032230

  Basis Set: AUG-CC-PVTZ
    Blend: AUG-CC-PVTZ
  Basis Set: (AUG-CC-PVTZ AUX)
    Blend: AUG-CC-PVTZ-JKFIT
	 Reference Energy          =    -490.7105232211034149 [Eh]
	 Singles Energy            =      -0.0000000000000000 [Eh]
	 Same-Spin Energy          =      -0.5024954506192273 [Eh]
	 Opposite-Spin Energy      =      -1.5416571651858235 [Eh]
	 Correlation Energy        =      -2.0441526158050509 [Eh]
	 Total Energy              =    -492.7546758369084614 [Eh]

	 ================> DF-SCS-MP2 Energies <==================
	-----------------------------------------------------------
	 SCS Same-Spin Scale       =       0.3333333333333333 [-]
	 SCS Opposite-Spin Scale   =       1.2000000000000000 [-]
	 SCS Same-Spin Energy      =      -0.1674984835397424 [Eh]
	 SCS Opposite-Spin Energy  =      -1.8499885982229882 [Eh]
	 SCS Correlation Energy    =      -2.0174870817627308 [Eh]
	 SCS Total Energy          =    -492.7280103028661529 [Eh]
	-----------------------------------------------------------

  Dipole Moment: [D]
     X:     1.0364      Y:     4.5077      Z:    -0.0869     Total:     4.6261

*** Psi4 exiting successfully. Buy a developer a beer!
