                               Psi4 1.3.2 release

  ==> Input File <==

--------------------------------------------------------------------------
#psi4
#
memory 32 gb

molecule  {
0 1
  O        2.3111590    -1.3984000     0.0000580
  O       -2.2718830    -1.4902890    -0.0001310
  N        1.1826080     0.6255060     0.0000550
  N        0.0153410    -1.3761840    -0.0000340
  C       -1.2346770     0.6647280    -0.0000250
  C       -0.0319280     1.2897490     0.0000350
  C        1.2605820    -0.7608720     0.0000310
  C       -1.2542960    -0.7955090    -0.0000670
  C        2.4243390     1.3942650     0.0001240
  C       -2.5504790     1.3758010    -0.0000570
  H        0.0516650     2.3739750     0.0000690
  H        0.0461703    -2.3935525     0.1999390
  H        2.4800130     2.0209940     0.8935150
  H        2.4798690     2.0213500    -0.8930780
  H        3.2466700     0.6823050    -0.0000520
  H       -3.1375530     1.0948740    -0.8785960
  H       -2.4103180     2.4605130    -0.0000230
  H       -3.1376190     1.0948280     0.8784230
units angstrom
no_reorient  #important for SAPT in psi4, default
symmetry c1  #important for SAPT in psi4, default
}

set PROPERTIES_ORIGIN ["COM"]
properties('MP2/aug-cc-pvtz', properties = ['dipole'])
--------------------------------------------------------------------------

    Molecular point group: c1
  Charge       = 0
  Multiplicity = 1
  Basis Set: AUG-CC-PVTZ
    Blend: AUG-CC-PVTZ
  Basis Set: (AUG-CC-PVTZ AUX)
    Blend: AUG-CC-PVTZ-JKFIT

    Orbital Energies [Eh]
    ---------------------

    Doubly Occupied:

       1A    -20.540583     2A    -20.538703     3A    -15.638109
       4A    -15.625485     5A    -11.413503     6A    -11.375999
       7A    -11.324969     8A    -11.285911     9A    -11.259570
      10A    -11.237078    11A     -1.423775    12A     -1.386913
      13A     -1.306719    14A     -1.241139    15A     -1.108811
      16A     -0.992914    17A     -0.963644    18A     -0.912709
      19A     -0.852382    20A     -0.770121    21A     -0.731351
      22A     -0.692317    23A     -0.681153    24A     -0.648978
      25A     -0.637769    26A     -0.616452    27A     -0.608089
      28A     -0.588681    29A     -0.583825    30A     -0.554936
      31A     -0.548011    32A     -0.542839    33A     -0.487894
      34A     -0.475257    35A     -0.444390    36A     -0.430494
      37A     -0.345852

  @DF-RHF Final Energy:  -490.70969963751827

   => Energetics <=

    Nuclear Repulsion Energy =            530.2768101575765058
    One-Electron Energy =               -1720.3383688946416896
    Two-Electron Energy =                 699.3518590995470277
    Total Energy =                       -490.7096996375182698
  Basis Set: (AUG-CC-PVTZ AUX)
    Blend: AUG-CC-PVTZ-RI
    Molecular point group: c1

    Geometry (in Angstrom), charge = 0, multiplicity = 1:

       Center              X                  Y                   Z               Mass
    ------------   -----------------  -----------------  -----------------  -----------------
         O            2.308434483351    -1.332215566660    -0.001379841133    15.994914619570
         O           -2.274607516649    -1.424104566660    -0.001568841133    15.994914619570
         N            1.179883483351     0.691690433340    -0.001382841133    14.003074004430
         N            0.012616483351    -1.309999566660    -0.001471841133    14.003074004430
         C           -1.237401516649     0.730912433340    -0.001462841133    12.000000000000
         C           -0.034652516649     1.355933433340    -0.001402841133    12.000000000000
         C            1.257857483351    -0.694687566660    -0.001406841133    12.000000000000
         C           -1.257020516649    -0.729324566660    -0.001504841133    12.000000000000
         C            2.421614483351     1.460449433340    -0.001313841133    12.000000000000
         C           -2.553203516649     1.441985433340    -0.001494841133    12.000000000000
         H            0.048940483351     2.440159433340    -0.001368841133     1.007825032230
         H            0.043445783351    -2.327368066660     0.198501158867     1.007825032230
         H            2.477288483351     2.087178433340     0.892077158867     1.007825032230
         H            2.477144483351     2.087534433340    -0.894515841133     1.007825032230
         H            3.243945483351     0.748489433340    -0.001489841133     1.007825032230
         H           -3.140277516649     1.161058433340    -0.880033841133     1.007825032230
         H           -2.413042516649     2.526697433340    -0.001460841133     1.007825032230
         H           -3.140343516649     1.161012433340     0.876985158867     1.007825032230

  Basis Set: AUG-CC-PVTZ
    Blend: AUG-CC-PVTZ
  Basis Set: (AUG-CC-PVTZ AUX)
    Blend: AUG-CC-PVTZ-JKFIT
	 Reference Energy          =    -490.7096996375182698 [Eh]
	 Singles Energy            =      -0.0000000000000000 [Eh]
	 Same-Spin Energy          =      -0.5025700615410482 [Eh]
	 Opposite-Spin Energy      =      -1.5418587364432765 [Eh]
	 Correlation Energy        =      -2.0444287979843248 [Eh]
	 Total Energy              =    -492.7541284355025937 [Eh]

	 ================> DF-SCS-MP2 Energies <==================
	-----------------------------------------------------------
	 SCS Same-Spin Scale       =       0.3333333333333333 [-]
	 SCS Opposite-Spin Scale   =       1.2000000000000000 [-]
	 SCS Same-Spin Energy      =      -0.1675233538470161 [Eh]
	 SCS Opposite-Spin Energy  =      -1.8502304837319317 [Eh]
	 SCS Correlation Energy    =      -2.0177538375789479 [Eh]
	 SCS Total Energy          =    -492.7274534750972066 [Eh]
	-----------------------------------------------------------

  Dipole Moment: [D]
     X:     1.0469      Y:     4.5293      Z:     0.2574     Total:     4.6559

*** Psi4 exiting successfully. Buy a developer a beer!
