                               Psi4 1.3.2 release

  ==> Input File <==

--------------------------------------------------------------------------
#psi4
#
memory 32 gb

molecule  {
0 1
  O        2.3111590    -1.3984000     0.0000580
  O       -2.2718830    -1.4902890    -0.0001310
  N        1.1826080     0.6255060     0.0000550
  N        0.0153410    -1.3761840    -0.0000340
  C       -1.2346872     0.6647206     0.2499750
  C       -0.0319280     1.2897490     0.0000350
  C        1.2605820    -0.7608720     0.0000310
  C       -1.2542960    -0.7955090    -0.0000670
  C        2.4243390     1.3942650     0.0001240
  C       -2.5504790     1.3758010    -0.0000570
  H        0.0516650     2.3739750     0.0000690
  H        0.0461780    -2.3935470    -0.0000610
  H        2.4800130     2.0209940     0.8935150
  H        2.4798690     2.0213500    -0.8930780
  H        3.2466700     0.6823050    -0.0000520
  H       -3.1375530     1.0948740    -0.8785960
  H       -2.4103180     2.4605130    -0.0000230
  H       -3.1376190     1.0948280     0.8784230
units angstrom
no_reorient  #important for SAPT in psi4, default
symmetry c1  #important for SAPT in psi4, default
}

set PROPERTIES_ORIGIN ["COM"]
properties('MP2/aug-cc-pvtz', properties = ['dipole'])
--------------------------------------------------------------------------

    Molecular point group: c1
  Charge       = 0
  Multiplicity = 1
  Basis Set: AUG-CC-PVTZ
    Blend: AUG-CC-PVTZ
  Basis Set: (AUG-CC-PVTZ AUX)
    Blend: AUG-CC-PVTZ-JKFIT

    Orbital Energies [Eh]
    ---------------------

    Doubly Occupied:

       1A    -20.542671     2A    -20.538542     3A    -15.640985
       4A    -15.624571     5A    -11.415388     6A    -11.377479
       7A    -11.331741     8A    -11.287352     9A    -11.262872
      10A    -11.236466    11A     -1.425387    12A     -1.386711
      13A     -1.308429    14A     -1.243394    15A     -1.102911
      16A     -0.993264    17A     -0.962126    18A     -0.910792
      19A     -0.852009    20A     -0.766337    21A     -0.734460
      22A     -0.693553    23A     -0.682200    24A     -0.650483
      25A     -0.638357    26A     -0.616509    27A     -0.607477
      28A     -0.594521    29A     -0.580460    30A     -0.553505
      31A     -0.544523    32A     -0.532555    33A     -0.485644
      34A     -0.475504    35A     -0.442409    36A     -0.430821
      37A     -0.346367

  @DF-RHF Final Energy:  -490.69225617741716

   => Energetics <=

    Nuclear Repulsion Energy =            529.5427173724145860
    One-Electron Energy =               -1718.8324010974295106
    Two-Electron Energy =                 698.5974275475979312
    Total Energy =                       -490.6922561774171072
  Basis Set: (AUG-CC-PVTZ AUX)
    Blend: AUG-CC-PVTZ-RI
    Molecular point group: c1

    Geometry (in Angstrom), charge = 0, multiplicity = 1:

       Center              X                  Y                   Z               Mass
    ------------   -----------------  -----------------  -----------------  -----------------
         O            2.308435301864    -1.332214972216    -0.021360302476    15.994914619570
         O           -2.274606698136    -1.424103972216    -0.021549302476    15.994914619570
         N            1.179884301864     0.691691027784    -0.021363302476    14.003074004430
         N            0.012617301864    -1.309998972216    -0.021452302476    14.003074004430
         C           -1.237410898136     0.730905627784     0.228556697524    12.000000000000
         C           -0.034651698136     1.355934027784    -0.021383302476    12.000000000000
         C            1.257858301864    -0.694686972216    -0.021387302476    12.000000000000
         C           -1.257019698136    -0.729323972216    -0.021485302476    12.000000000000
         C            2.421615301864     1.460450027784    -0.021294302476    12.000000000000
         C           -2.553202698136     1.441986027784    -0.021475302476    12.000000000000
         H            0.048941301864     2.440160027784    -0.021349302476     1.007825032230
         H            0.043454301864    -2.327361972216    -0.021479302476     1.007825032230
         H            2.477289301864     2.087179027784     0.872096697524     1.007825032230
         H            2.477145301864     2.087535027784    -0.914496302476     1.007825032230
         H            3.243946301864     0.748490027784    -0.021470302476     1.007825032230
         H           -3.140276698136     1.161059027784    -0.900014302476     1.007825032230
         H           -2.413041698136     2.526698027784    -0.021441302476     1.007825032230
         H           -3.140342698136     1.161013027784     0.857004697524     1.007825032230

  Basis Set: AUG-CC-PVTZ
    Blend: AUG-CC-PVTZ
  Basis Set: (AUG-CC-PVTZ AUX)
    Blend: AUG-CC-PVTZ-JKFIT
	 Reference Energy          =    -490.6922561774171641 [Eh]
	 Singles Energy            =      -0.0000000000000000 [Eh]
	 Same-Spin Energy          =      -0.5031733281612081 [Eh]
	 Opposite-Spin Energy      =      -1.5437528998437573 [Eh]
	 Correlation Energy        =      -2.0469262280049652 [Eh]
	 Total Energy              =    -492.7391824054221274 [Eh]

	 ================> DF-SCS-MP2 Energies <==================
	-----------------------------------------------------------
	 SCS Same-Spin Scale       =       0.3333333333333333 [-]
	 SCS Opposite-Spin Scale   =       1.2000000000000000 [-]
	 SCS Same-Spin Energy      =      -0.1677244427204027 [Eh]
	 SCS Opposite-Spin Energy  =      -1.8525034798125086 [Eh]
	 SCS Correlation Energy    =      -2.0202279225329112 [Eh]
	 SCS Total Energy          =    -492.7124840999500748 [Eh]
	-----------------------------------------------------------

  Dipole Moment: [D]
     X:     1.1867      Y:     4.4347      Z:    -0.1477     Total:     4.5932

*** Psi4 exiting successfully. Buy a developer a beer!
