                               Psi4 1.3.2 release

  ==> Input File <==

--------------------------------------------------------------------------
#psi4
#
memory 32 gb

molecule  {
0 1
  O        2.3111590    -1.3984000     0.0000580
  O       -2.2718830    -1.4902890    -0.0001310
  N        1.1826080     0.6255060     0.0000550
  N        0.0153410    -1.3761840    -0.0000340
  C       -1.2346790     0.6647265     0.0499750
  C       -0.0319280     1.2897490     0.0000350
  C        1.2605820    -0.7608720     0.0000310
  C       -1.2542960    -0.7955090    -0.0000670
  C        2.4243390     1.3942650     0.0001240
  C       -2.5504790     1.3758010    -0.0000570
  H        0.0516650     2.3739750     0.0000690
  H        0.0461780    -2.3935470    -0.0000610
  H        2.4800130     2.0209940     0.8935150
  H        2.4798690     2.0213500    -0.8930780
  H        3.2466700     0.6823050    -0.0000520
  H       -3.1375530     1.0948740    -0.8785960
  H       -2.4103180     2.4605130    -0.0000230
  H       -3.1376190     1.0948280     0.8784230
units angstrom
no_reorient  #important for SAPT in psi4, default
symmetry c1  #important for SAPT in psi4, default
}

set PROPERTIES_ORIGIN ["COM"]
properties('MP2/aug-cc-pvtz', properties = ['dipole'])
--------------------------------------------------------------------------

    Molecular point group: c1
  Charge       = 0
  Multiplicity = 1
  Basis Set: AUG-CC-PVTZ
    Blend: AUG-CC-PVTZ
  Basis Set: (AUG-CC-PVTZ AUX)
    Blend: AUG-CC-PVTZ-JKFIT

    Orbital Energies [Eh]
    ---------------------

    Doubly Occupied:

       1A    -20.540599     2A    -20.538556     3A    -15.638294
       4A    -15.624611     5A    -11.413781     6A    -11.376279
       7A    -11.325229     8A    -11.286026     9A    -11.259791
      10A    -11.237110    11A     -1.424147    12A     -1.387002
      13A     -1.306844    14A     -1.242932    15A     -1.108775
      16A     -0.993148    17A     -0.963775    18A     -0.914116
      19A     -0.852717    20A     -0.770519    21A     -0.734915
      22A     -0.692310    23A     -0.682166    24A     -0.649528
      25A     -0.637807    26A     -0.615717    27A     -0.609669
      28A     -0.589364    29A     -0.583513    30A     -0.555200
      31A     -0.548043    32A     -0.542743    33A     -0.487910
      34A     -0.475330    35A     -0.444275    36A     -0.430607
      37A     -0.345925

  @DF-RHF Final Energy:  -490.71121085769562

   => Energetics <=

    Nuclear Repulsion Energy =            530.3440000354016775
    One-Electron Energy =               -1720.4518770376025714
    Two-Electron Energy =                 699.3966661445052750
    Total Energy =                       -490.7112108576956189
  Basis Set: (AUG-CC-PVTZ AUX)
    Blend: AUG-CC-PVTZ-RI
    Molecular point group: c1

    Geometry (in Angstrom), charge = 0, multiplicity = 1:

       Center              X                  Y                   Z               Mass
    ------------   -----------------  -----------------  -----------------  -----------------
         O            2.308434599301    -1.332215477719    -0.004224615089    15.994914619570
         O           -2.274607400699    -1.424104477719    -0.004413615089    15.994914619570
         N            1.179883599301     0.691690522281    -0.004227615089    14.003074004430
         N            0.012616599301    -1.309999477719    -0.004316615089    14.003074004430
         C           -1.237403400699     0.730911022281     0.045692384911    12.000000000000
         C           -0.034652400699     1.355933522281    -0.004247615089    12.000000000000
         C            1.257857599301    -0.694687477719    -0.004251615089    12.000000000000
         C           -1.257020400699    -0.729324477719    -0.004349615089    12.000000000000
         C            2.421614599301     1.460449522281    -0.004158615089    12.000000000000
         C           -2.553203400699     1.441985522281    -0.004339615089    12.000000000000
         H            0.048940599301     2.440159522281    -0.004213615089     1.007825032230
         H            0.043453599301    -2.327362477719    -0.004343615089     1.007825032230
         H            2.477288599301     2.087178522281     0.889232384911     1.007825032230
         H            2.477144599301     2.087534522281    -0.897360615089     1.007825032230
         H            3.243945599301     0.748489522281    -0.004334615089     1.007825032230
         H           -3.140277400699     1.161058522281    -0.882878615089     1.007825032230
         H           -2.413042400699     2.526697522281    -0.004305615089     1.007825032230
         H           -3.140343400699     1.161012522281     0.874140384911     1.007825032230

  Basis Set: AUG-CC-PVTZ
    Blend: AUG-CC-PVTZ
  Basis Set: (AUG-CC-PVTZ AUX)
    Blend: AUG-CC-PVTZ-JKFIT
	 Reference Energy          =    -490.7112108576956189 [Eh]
	 Singles Energy            =      -0.0000000000000000 [Eh]
	 Same-Spin Energy          =      -0.5024176139417894 [Eh]
	 Opposite-Spin Energy      =      -1.5415457138312143 [Eh]
	 Correlation Energy        =      -2.0439633277730036 [Eh]
	 Total Energy              =    -492.7551741854686043 [Eh]

	 ================> DF-SCS-MP2 Energies <==================
	-----------------------------------------------------------
	 SCS Same-Spin Scale       =       0.3333333333333333 [-]
	 SCS Opposite-Spin Scale   =       1.2000000000000000 [-]
	 SCS Same-Spin Energy      =      -0.1674725379805965 [Eh]
	 SCS Opposite-Spin Energy  =      -1.8498548565974571 [Eh]
	 SCS Correlation Energy    =      -2.0173273945780537 [Eh]
	 SCS Total Energy          =    -492.7285382522736654 [Eh]
	-----------------------------------------------------------

  Dipole Moment: [D]
     X:     1.0537      Y:     4.5188      Z:    -0.0275     Total:     4.6401

*** Psi4 exiting successfully. Buy a developer a beer!
