                               Psi4 1.3.2 release

  ==> Input File <==

--------------------------------------------------------------------------
#psi4
#
memory 32 gb

molecule  {
0 1
  O        2.3111590    -1.3984000     0.0000580
  O       -2.2718830    -1.4902890    -0.0001310
  N        1.1826202     0.6255124    -0.2999450
  N        0.0153410    -1.3761840    -0.0000340
  C       -1.2346770     0.6647280    -0.0000250
  C       -0.0319280     1.2897490     0.0000350
  C        1.2605820    -0.7608720     0.0000310
  C       -1.2542960    -0.7955090    -0.0000670
  C        2.4243390     1.3942650     0.0001240
  C       -2.5504790     1.3758010    -0.0000570
  H        0.0516650     2.3739750     0.0000690
  H        0.0461780    -2.3935470    -0.0000610
  H        2.4800130     2.0209940     0.8935150
  H        2.4798690     2.0213500    -0.8930780
  H        3.2466700     0.6823050    -0.0000520
  H       -3.1375530     1.0948740    -0.8785960
  H       -2.4103180     2.4605130    -0.0000230
  H       -3.1376190     1.0948280     0.8784230
units angstrom
no_reorient  #important for SAPT in psi4, default
symmetry c1  #important for SAPT in psi4, default
}

set PROPERTIES_ORIGIN ["COM"]
properties('MP2/aug-cc-pvtz', properties = ['dipole'])
--------------------------------------------------------------------------

    Molecular point group: c1
  Charge       = 0
  Multiplicity = 1
  Basis Set: AUG-CC-PVTZ
    Blend: AUG-CC-PVTZ
  Basis Set: (AUG-CC-PVTZ AUX)
    Blend: AUG-CC-PVTZ-JKFIT

    Orbital Energies [Eh]
    ---------------------

    Doubly Occupied:

       1A    -20.546931     2A    -20.543154     3A    -15.637414
       4A    -15.625634     5A    -11.415501     6A    -11.379115
       7A    -11.322893     8A    -11.282872     9A    -11.262907
      10A    -11.238564    11A     -1.423464    12A     -1.390258
      13A     -1.296491    14A     -1.240174    15A     -1.108026
      16A     -0.984232    17A     -0.957498    18A     -0.910061
      19A     -0.852368    20A     -0.761996    21A     -0.735893
      22A     -0.690908    23A     -0.673051    24A     -0.648840
      25A     -0.639813    26A     -0.619826    27A     -0.598206
      28A     -0.590250    29A     -0.575715    30A     -0.554800
      31A     -0.548691    32A     -0.541757    33A     -0.485647
      34A     -0.476154    35A     -0.447367    36A     -0.432145
      37A     -0.352924

  @DF-RHF Final Energy:  -490.69144396823759

   => Energetics <=

    Nuclear Repulsion Energy =            528.9265464180241452
    One-Electron Energy =               -1717.6528998673040860
    Two-Electron Energy =                 698.0349094810424049
    Total Energy =                       -490.6914439682375360
  Basis Set: (AUG-CC-PVTZ AUX)
    Blend: AUG-CC-PVTZ-RI
    Molecular point group: c1

    Geometry (in Angstrom), charge = 0, multiplicity = 1:

       Center              X                  Y                   Z               Mass
    ------------   -----------------  -----------------  -----------------  -----------------
         O            2.308433208186    -1.332216246110     0.030053344083    15.994914619570
         O           -2.274608791814    -1.424105246110     0.029864344083    15.994914619570
         N            1.179894408186     0.691696153890    -0.269949655917    14.003074004430
         N            0.012615208186    -1.310000246110     0.029961344083    14.003074004430
         C           -1.237402791814     0.730911753890     0.029970344083    12.000000000000
         C           -0.034653791814     1.355932753890     0.030030344083    12.000000000000
         C            1.257856208186    -0.694688246110     0.030026344083    12.000000000000
         C           -1.257021791814    -0.729325246110     0.029928344083    12.000000000000
         C            2.421613208186     1.460448753890     0.030119344083    12.000000000000
         C           -2.553204791814     1.441984753890     0.029938344083    12.000000000000
         H            0.048939208186     2.440158753890     0.030064344083     1.007825032230
         H            0.043452208186    -2.327363246110     0.029934344083     1.007825032230
         H            2.477287208186     2.087177753890     0.923510344083     1.007825032230
         H            2.477143208186     2.087533753890    -0.863082655917     1.007825032230
         H            3.243944208186     0.748488753890     0.029943344083     1.007825032230
         H           -3.140278791814     1.161057753890    -0.848600655917     1.007825032230
         H           -2.413043791814     2.526696753890     0.029972344083     1.007825032230
         H           -3.140344791814     1.161011753890     0.908418344083     1.007825032230

  Basis Set: AUG-CC-PVTZ
    Blend: AUG-CC-PVTZ
  Basis Set: (AUG-CC-PVTZ AUX)
    Blend: AUG-CC-PVTZ-JKFIT
	 Reference Energy          =    -490.6914439682375928 [Eh]
	 Singles Energy            =      -0.0000000000000000 [Eh]
	 Same-Spin Energy          =      -0.5025290114091053 [Eh]
	 Opposite-Spin Energy      =      -1.5438312700360934 [Eh]
	 Correlation Energy        =      -2.0463602814451987 [Eh]
	 Total Energy              =    -492.7378042496827675 [Eh]

	 ================> DF-SCS-MP2 Energies <==================
	-----------------------------------------------------------
	 SCS Same-Spin Scale       =       0.3333333333333333 [-]
	 SCS Opposite-Spin Scale   =       1.2000000000000000 [-]
	 SCS Same-Spin Energy      =      -0.1675096704697018 [Eh]
	 SCS Opposite-Spin Energy  =      -1.8525975240433121 [Eh]
	 SCS Correlation Energy    =      -2.0201071945130140 [Eh]
	 SCS Total Energy          =    -492.7115511627505953 [Eh]
	-----------------------------------------------------------

  Dipole Moment: [D]
     X:     0.8392      Y:     4.2315      Z:     0.2274     Total:     4.3199

*** Psi4 exiting successfully. Buy a developer a beer!
