                               Psi4 1.3.2 release

  ==> Input File <==

--------------------------------------------------------------------------
#psi4
#
memory 32 gb

molecule  {
0 1
  O        2.3111590    -1.3984000     0.0000580
  O       -2.2718830    -1.4902890    -0.0001310
  N        1.1826080     0.6255060     0.0000550
  N        0.0153410    -1.3761840    -0.0000340
  C       -1.2346770     0.6647280    -0.0000250
  C       -0.0319280     1.2897490     0.0000350
  C        1.2605820    -0.7608720     0.0000310
  C       -1.2542960    -0.7955090    -0.0000670
  C        2.4243390     1.3942650     0.0001240
  C       -2.5504790     1.3758010    -0.0000570
  H        0.0516650     2.3739750     0.0000690
  H        0.0461741    -2.3935498     0.0999390
  H        2.4800130     2.0209940     0.8935150
  H        2.4798690     2.0213500    -0.8930780
  H        3.2466700     0.6823050    -0.0000520
  H       -3.1375530     1.0948740    -0.8785960
  H       -2.4103180     2.4605130    -0.0000230
  H       -3.1376190     1.0948280     0.8784230
units angstrom
no_reorient  #important for SAPT in psi4, default
symmetry c1  #important for SAPT in psi4, default
}

set PROPERTIES_ORIGIN ["COM"]
properties('MP2/aug-cc-pvtz', properties = ['dipole'])
--------------------------------------------------------------------------

    Molecular point group: c1
  Charge       = 0
  Multiplicity = 1
  Basis Set: AUG-CC-PVTZ
    Blend: AUG-CC-PVTZ
  Basis Set: (AUG-CC-PVTZ AUX)
    Blend: AUG-CC-PVTZ-JKFIT

    Orbital Energies [Eh]
    ---------------------

    Doubly Occupied:

       1A    -20.540533     2A    -20.538597     3A    -15.638165
       4A    -15.624836     5A    -11.413662     6A    -11.376167
       7A    -11.324957     8A    -11.285956     9A    -11.259633
      10A    -11.237120    11A     -1.424015    12A     -1.386990
      13A     -1.306766    14A     -1.242458    15A     -1.108967
      16A     -0.993090    17A     -0.963795    18A     -0.913860
      19A     -0.852654    20A     -0.770551    21A     -0.734022
      22A     -0.692281    23A     -0.681910    24A     -0.649365
      25A     -0.637783    26A     -0.615908    27A     -0.609311
      28A     -0.588747    29A     -0.583962    30A     -0.555281
      31A     -0.548062    32A     -0.543103    33A     -0.487976
      34A     -0.475310    35A     -0.444358    36A     -0.430572
      37A     -0.345898

  @DF-RHF Final Energy:  -490.71146918465712

   => Energetics <=

    Nuclear Repulsion Energy =            530.3523040053166824
    One-Electron Energy =               -1720.4743043563912579
    Two-Electron Energy =                 699.4105311664175133
    Total Energy =                       -490.7114691846570622
  Basis Set: (AUG-CC-PVTZ AUX)
    Blend: AUG-CC-PVTZ-RI
    Molecular point group: c1

    Geometry (in Angstrom), charge = 0, multiplicity = 1:

       Center              X                  Y                   Z               Mass
    ------------   -----------------  -----------------  -----------------  -----------------
         O            2.308434456007    -1.332215586089    -0.000660267187    15.994914619570
         O           -2.274607543993    -1.424104586089    -0.000849267187    15.994914619570
         N            1.179883456007     0.691690413911    -0.000663267187    14.003074004430
         N            0.012616456007    -1.309999586089    -0.000752267187    14.003074004430
         C           -1.237401543993     0.730912413911    -0.000743267187    12.000000000000
         C           -0.034652543993     1.355933413911    -0.000683267187    12.000000000000
         C            1.257857456007    -0.694687586089    -0.000687267187    12.000000000000
         C           -1.257020543993    -0.729324586089    -0.000785267187    12.000000000000
         C            2.421614456007     1.460449413911    -0.000594267187    12.000000000000
         C           -2.553203543993     1.441985413911    -0.000775267187    12.000000000000
         H            0.048940456007     2.440159413911    -0.000649267187     1.007825032230
         H            0.043449556007    -2.327365386089     0.099220732813     1.007825032230
         H            2.477288456007     2.087178413911     0.892796732813     1.007825032230
         H            2.477144456007     2.087534413911    -0.893796267187     1.007825032230
         H            3.243945456007     0.748489413911    -0.000770267187     1.007825032230
         H           -3.140277543993     1.161058413911    -0.879314267187     1.007825032230
         H           -2.413042543993     2.526697413911    -0.000741267187     1.007825032230
         H           -3.140343543993     1.161012413911     0.877704732813     1.007825032230

  Basis Set: AUG-CC-PVTZ
    Blend: AUG-CC-PVTZ
  Basis Set: (AUG-CC-PVTZ AUX)
    Blend: AUG-CC-PVTZ-JKFIT
	 Reference Energy          =    -490.7114691846571191 [Eh]
	 Singles Energy            =      -0.0000000000000000 [Eh]
	 Same-Spin Energy          =      -0.5024329810811827 [Eh]
	 Opposite-Spin Energy      =      -1.5415590917201292 [Eh]
	 Correlation Energy        =      -2.0439920728013119 [Eh]
	 Total Energy              =    -492.7554612574584212 [Eh]

	 ================> DF-SCS-MP2 Energies <==================
	-----------------------------------------------------------
	 SCS Same-Spin Scale       =       0.3333333333333333 [-]
	 SCS Opposite-Spin Scale   =       1.2000000000000000 [-]
	 SCS Same-Spin Energy      =      -0.1674776603603942 [Eh]
	 SCS Opposite-Spin Energy  =      -1.8498709100641548 [Eh]
	 SCS Correlation Energy    =      -2.0173485704245491 [Eh]
	 SCS Total Energy          =    -492.7288177550816499 [Eh]
	-----------------------------------------------------------

  Dipole Moment: [D]
     X:     1.0478      Y:     4.5241      Z:     0.1291     Total:     4.6456

*** Psi4 exiting successfully. Buy a developer a beer!
