                               Psi4 1.3.2 release

  ==> Input File <==

--------------------------------------------------------------------------
#psi4
#
memory 32 gb

molecule  {
0 1
  O        2.3111590    -1.3984000     0.0000580
  O       -2.2718830    -1.4902890    -0.0001310
  N        1.1826080     0.6255060     0.0000550
  N        0.0153410    -1.3761840    -0.0000340
  C       -1.2346852     0.6647221     0.1999750
  C       -0.0319280     1.2897490     0.0000350
  C        1.2605820    -0.7608720     0.0000310
  C       -1.2542960    -0.7955090    -0.0000670
  C        2.4243390     1.3942650     0.0001240
  C       -2.5504790     1.3758010    -0.0000570
  H        0.0516650     2.3739750     0.0000690
  H        0.0461780    -2.3935470    -0.0000610
  H        2.4800130     2.0209940     0.8935150
  H        2.4798690     2.0213500    -0.8930780
  H        3.2466700     0.6823050    -0.0000520
  H       -3.1375530     1.0948740    -0.8785960
  H       -2.4103180     2.4605130    -0.0000230
  H       -3.1376190     1.0948280     0.8784230
units angstrom
no_reorient  #important for SAPT in psi4, default
symmetry c1  #important for SAPT in psi4, default
}

set PROPERTIES_ORIGIN ["COM"]
properties('MP2/aug-cc-pvtz', properties = ['dipole'])
--------------------------------------------------------------------------

    Molecular point group: c1
  Charge       = 0
  Multiplicity = 1
  Basis Set: AUG-CC-PVTZ
    Blend: AUG-CC-PVTZ
  Basis Set: (AUG-CC-PVTZ AUX)
    Blend: AUG-CC-PVTZ-JKFIT

    Orbital Energies [Eh]
    ---------------------

    Doubly Occupied:

       1A    -20.541887     2A    -20.538534     3A    -15.639962
       4A    -15.624578     5A    -11.414779     6A    -11.377053
       7A    -11.329333     8A    -11.286850     9A    -11.261760
      10A    -11.236727    11A     -1.424909    12A     -1.386816
      13A     -1.307823    14A     -1.243217    15A     -1.105108
      16A     -0.993180    17A     -0.962724    18A     -0.912002
      19A     -0.852271    20A     -0.767830    21A     -0.734636
      22A     -0.693105    23A     -0.682155    24A     -0.650117
      25A     -0.638145    26A     -0.616268    27A     -0.608244
      28A     -0.593395    29A     -0.580891    30A     -0.553727
      31A     -0.546062    32A     -0.536369    33A     -0.486505
      34A     -0.475426    35A     -0.443148    36A     -0.430742
      37A     -0.346164

  @DF-RHF Final Energy:  -490.69936841622751

   => Energetics <=

    Nuclear Repulsion Energy =            529.8399407251190496
    One-Electron Energy =               -1719.4337369153608961
    Two-Electron Energy =                 698.8944277740143889
    Total Energy =                       -490.6993684162274576
  Basis Set: (AUG-CC-PVTZ AUX)
    Blend: AUG-CC-PVTZ-RI
    Molecular point group: c1

    Geometry (in Angstrom), charge = 0, multiplicity = 1:

       Center              X                  Y                   Z               Mass
    ------------   -----------------  -----------------  -----------------  -----------------
         O            2.308435130507    -1.332215100734    -0.017076380629    15.994914619570
         O           -2.274606869493    -1.424104100734    -0.017265380629    15.994914619570
         N            1.179884130507     0.691690899266    -0.017079380629    14.003074004430
         N            0.012617130507    -1.309999100734    -0.017168380629    14.003074004430
         C           -1.237409069493     0.730906999266     0.182840619371    12.000000000000
         C           -0.034651869493     1.355933899266    -0.017099380629    12.000000000000
         C            1.257858130507    -0.694687100734    -0.017103380629    12.000000000000
         C           -1.257019869493    -0.729324100734    -0.017201380629    12.000000000000
         C            2.421615130507     1.460449899266    -0.017010380629    12.000000000000
         C           -2.553202869493     1.441985899266    -0.017191380629    12.000000000000
         H            0.048941130507     2.440159899266    -0.017065380629     1.007825032230
         H            0.043454130507    -2.327362100734    -0.017195380629     1.007825032230
         H            2.477289130507     2.087178899266     0.876380619371     1.007825032230
         H            2.477145130507     2.087534899266    -0.910212380629     1.007825032230
         H            3.243946130507     0.748489899266    -0.017186380629     1.007825032230
         H           -3.140276869493     1.161058899266    -0.895730380629     1.007825032230
         H           -2.413041869493     2.526697899266    -0.017157380629     1.007825032230
         H           -3.140342869493     1.161012899266     0.861288619371     1.007825032230

  Basis Set: AUG-CC-PVTZ
    Blend: AUG-CC-PVTZ
  Basis Set: (AUG-CC-PVTZ AUX)
    Blend: AUG-CC-PVTZ-JKFIT
	 Reference Energy          =    -490.6993684162275144 [Eh]
	 Singles Energy            =      -0.0000000000000000 [Eh]
	 Same-Spin Energy          =      -0.5028890105564019 [Eh]
	 Opposite-Spin Energy      =      -1.5429112694487146 [Eh]
	 Correlation Energy        =      -2.0458002800051167 [Eh]
	 Total Energy              =    -492.7451686962326107 [Eh]

	 ================> DF-SCS-MP2 Energies <==================
	-----------------------------------------------------------
	 SCS Same-Spin Scale       =       0.3333333333333333 [-]
	 SCS Opposite-Spin Scale   =       1.2000000000000000 [-]
	 SCS Same-Spin Energy      =      -0.1676296701854673 [Eh]
	 SCS Opposite-Spin Energy  =      -1.8514935233384575 [Eh]
	 SCS Correlation Energy    =      -2.0191231935239249 [Eh]
	 SCS Total Energy          =    -492.7184916097514247 [Eh]
	-----------------------------------------------------------

  Dipole Moment: [D]
     X:     1.1374      Y:     4.4664      Z:    -0.1155     Total:     4.6104

*** Psi4 exiting successfully. Buy a developer a beer!
