                               Psi4 1.3.2 release

  ==> Input File <==

--------------------------------------------------------------------------
#psi4
#
memory 32 gb

molecule  {
0 1
  O        2.3111590    -1.3984000     0.0000580
  O       -2.2718830    -1.4902890    -0.0001310
  N        1.1826080     0.6255060     0.0000550
  N        0.0153410    -1.3761840    -0.0000340
  C       -1.2346770     0.6647280    -0.0000250
  C       -0.0319280     1.2897490     0.0000350
  C        1.2605820    -0.7608720     0.0000310
  C       -1.2542960    -0.7955090    -0.0000670
  C        2.4243372     1.3942638     0.0501240
  C       -2.5504790     1.3758010    -0.0000570
  H        0.0516650     2.3739750     0.0000690
  H        0.0461780    -2.3935470    -0.0000610
  H        2.4800130     2.0209940     0.8935150
  H        2.4798690     2.0213500    -0.8930780
  H        3.2466700     0.6823050    -0.0000520
  H       -3.1375530     1.0948740    -0.8785960
  H       -2.4103180     2.4605130    -0.0000230
  H       -3.1376190     1.0948280     0.8784230
units angstrom
no_reorient  #important for SAPT in psi4, default
symmetry c1  #important for SAPT in psi4, default
}

set PROPERTIES_ORIGIN ["COM"]
properties('MP2/aug-cc-pvtz', properties = ['dipole'])
--------------------------------------------------------------------------

    Molecular point group: c1
  Charge       = 0
  Multiplicity = 1
  Basis Set: AUG-CC-PVTZ
    Blend: AUG-CC-PVTZ
  Basis Set: (AUG-CC-PVTZ AUX)
    Blend: AUG-CC-PVTZ-JKFIT

    Orbital Energies [Eh]
    ---------------------

    Doubly Occupied:

       1A    -20.540580     2A    -20.538601     3A    -15.638327
       4A    -15.624656     5A    -11.413768     6A    -11.376260
       7A    -11.324950     8A    -11.286343     9A    -11.259690
      10A    -11.237152    11A     -1.424139    12A     -1.387054
      13A     -1.306770    14A     -1.242918    15A     -1.109028
      16A     -0.993397    17A     -0.963937    18A     -0.914286
      19A     -0.852984    20A     -0.770792    21A     -0.735315
      22A     -0.692431    23A     -0.682353    24A     -0.650270
      25A     -0.637851    26A     -0.617390    27A     -0.609713
      28A     -0.589401    29A     -0.581536    30A     -0.555327
      31A     -0.548066    32A     -0.542324    33A     -0.487412
      34A     -0.475357    35A     -0.444384    36A     -0.430625
      37A     -0.345918

  @DF-RHF Final Energy:  -490.70926546228804

   => Energetics <=

    Nuclear Repulsion Energy =            530.3653913588315163
    One-Electron Energy =               -1720.4866993245288995
    Two-Electron Energy =                 699.4120425034092250
    Total Energy =                       -490.7092654622880445
  Basis Set: (AUG-CC-PVTZ AUX)
    Blend: AUG-CC-PVTZ-RI
    Molecular point group: c1

    Geometry (in Angstrom), charge = 0, multiplicity = 1:

       Center              X                  Y                   Z               Mass
    ------------   -----------------  -----------------  -----------------  -----------------
         O            2.308434582165    -1.332215503423    -0.004224615089    15.994914619570
         O           -2.274607417835    -1.424104503423    -0.004413615089    15.994914619570
         N            1.179883582165     0.691690496577    -0.004227615089    14.003074004430
         N            0.012616582165    -1.309999503423    -0.004316615089    14.003074004430
         C           -1.237401417835     0.730912496577    -0.004307615089    12.000000000000
         C           -0.034652417835     1.355933496577    -0.004247615089    12.000000000000
         C            1.257857582165    -0.694687503423    -0.004251615089    12.000000000000
         C           -1.257020417835    -0.729324503423    -0.004349615089    12.000000000000
         C            2.421612782165     1.460448296577     0.045841384911    12.000000000000
         C           -2.553203417835     1.441985496577    -0.004339615089    12.000000000000
         H            0.048940582165     2.440159496577    -0.004213615089     1.007825032230
         H            0.043453582165    -2.327362503423    -0.004343615089     1.007825032230
         H            2.477288582165     2.087178496577     0.889232384911     1.007825032230
         H            2.477144582165     2.087534496577    -0.897360615089     1.007825032230
         H            3.243945582165     0.748489496577    -0.004334615089     1.007825032230
         H           -3.140277417835     1.161058496577    -0.882878615089     1.007825032230
         H           -2.413042417835     2.526697496577    -0.004305615089     1.007825032230
         H           -3.140343417835     1.161012496577     0.874140384911     1.007825032230

  Basis Set: AUG-CC-PVTZ
    Blend: AUG-CC-PVTZ
  Basis Set: (AUG-CC-PVTZ AUX)
    Blend: AUG-CC-PVTZ-JKFIT
	 Reference Energy          =    -490.7092654622880445 [Eh]
	 Singles Energy            =      -0.0000000000000000 [Eh]
	 Same-Spin Energy          =      -0.5024202052911024 [Eh]
	 Opposite-Spin Energy      =      -1.5415689476558154 [Eh]
	 Correlation Energy        =      -2.0439891529469181 [Eh]
	 Total Energy              =    -492.7532546152349369 [Eh]

	 ================> DF-SCS-MP2 Energies <==================
	-----------------------------------------------------------
	 SCS Same-Spin Scale       =       0.3333333333333333 [-]
	 SCS Opposite-Spin Scale   =       1.2000000000000000 [-]
	 SCS Same-Spin Energy      =      -0.1674734017637008 [Eh]
	 SCS Opposite-Spin Energy  =      -1.8498827371869784 [Eh]
	 SCS Correlation Energy    =      -2.0173561389506793 [Eh]
	 SCS Total Energy          =    -492.7266216012387190 [Eh]
	-----------------------------------------------------------

  Dipole Moment: [D]
     X:     1.0447      Y:     4.5167      Z:     0.0578     Total:     4.6363

*** Psi4 exiting successfully. Buy a developer a beer!
