                               Psi4 1.3.2 release

  ==> Input File <==

--------------------------------------------------------------------------
#psi4
#
memory 32 gb

molecule  {
0 1
  O        2.3111590    -1.3984000     0.0000580
  O       -2.2718830    -1.4902890    -0.0001310
  N        1.1826182     0.6255113    -0.2499450
  N        0.0153410    -1.3761840    -0.0000340
  C       -1.2346770     0.6647280    -0.0000250
  C       -0.0319280     1.2897490     0.0000350
  C        1.2605820    -0.7608720     0.0000310
  C       -1.2542960    -0.7955090    -0.0000670
  C        2.4243390     1.3942650     0.0001240
  C       -2.5504790     1.3758010    -0.0000570
  H        0.0516650     2.3739750     0.0000690
  H        0.0461780    -2.3935470    -0.0000610
  H        2.4800130     2.0209940     0.8935150
  H        2.4798690     2.0213500    -0.8930780
  H        3.2466700     0.6823050    -0.0000520
  H       -3.1375530     1.0948740    -0.8785960
  H       -2.4103180     2.4605130    -0.0000230
  H       -3.1376190     1.0948280     0.8784230
units angstrom
no_reorient  #important for SAPT in psi4, default
symmetry c1  #important for SAPT in psi4, default
}

set PROPERTIES_ORIGIN ["COM"]
properties('MP2/aug-cc-pvtz', properties = ['dipole'])
--------------------------------------------------------------------------

    Molecular point group: c1
  Charge       = 0
  Multiplicity = 1
  Basis Set: AUG-CC-PVTZ
    Blend: AUG-CC-PVTZ
  Basis Set: (AUG-CC-PVTZ AUX)
    Blend: AUG-CC-PVTZ-JKFIT

    Orbital Energies [Eh]
    ---------------------

    Doubly Occupied:

       1A    -20.545095     2A    -20.541851     3A    -15.637405
       4A    -15.625345     5A    -11.415011     6A    -11.378298
       7A    -11.323488     8A    -11.283724     9A    -11.261948
      10A    -11.238144    11A     -1.423590    12A     -1.389336
      13A     -1.299488    14A     -1.241189    15A     -1.108287
      16A     -0.986728    17A     -0.959157    18A     -0.911367
      19A     -0.852466    20A     -0.764636    21A     -0.735621
      22A     -0.691187    23A     -0.675581    24A     -0.649148
      25A     -0.639388    26A     -0.618998    27A     -0.600733
      28A     -0.589912    29A     -0.578263    30A     -0.554966
      31A     -0.548628    32A     -0.542343    33A     -0.486185
      34A     -0.476101    35A     -0.446552    36A     -0.431708
      37A     -0.350887

  @DF-RHF Final Energy:  -490.69784914148482

   => Energetics <=

    Nuclear Repulsion Energy =            529.3618690886149807
    One-Electron Energy =               -1718.5139339803079110
    Two-Electron Energy =                 698.4542157502081636
    Total Energy =                       -490.6978491414848804
  Basis Set: (AUG-CC-PVTZ AUX)
    Blend: AUG-CC-PVTZ-RI
    Molecular point group: c1

    Geometry (in Angstrom), charge = 0, multiplicity = 1:

       Center              X                  Y                   Z               Mass
    ------------   -----------------  -----------------  -----------------  -----------------
         O            2.308433408147    -1.332216136131     0.025054337862    15.994914619570
         O           -2.274608591853    -1.424105136131     0.024865337862    15.994914619570
         N            1.179892608147     0.691695163869    -0.224948662138    14.003074004430
         N            0.012615408147    -1.310000136131     0.024962337862    14.003074004430
         C           -1.237402591853     0.730911863869     0.024971337862    12.000000000000
         C           -0.034653591853     1.355932863869     0.025031337862    12.000000000000
         C            1.257856408147    -0.694688136131     0.025027337862    12.000000000000
         C           -1.257021591853    -0.729325136131     0.024929337862    12.000000000000
         C            2.421613408147     1.460448863869     0.025120337862    12.000000000000
         C           -2.553204591853     1.441984863869     0.024939337862    12.000000000000
         H            0.048939408147     2.440158863869     0.025065337862     1.007825032230
         H            0.043452408147    -2.327363136131     0.024935337862     1.007825032230
         H            2.477287408147     2.087177863869     0.918511337862     1.007825032230
         H            2.477143408147     2.087533863869    -0.868081662138     1.007825032230
         H            3.243944408147     0.748488863869     0.024944337862     1.007825032230
         H           -3.140278591853     1.161057863869    -0.853599662138     1.007825032230
         H           -2.413043591853     2.526696863869     0.024973337862     1.007825032230
         H           -3.140344591853     1.161011863869     0.903419337862     1.007825032230

  Basis Set: AUG-CC-PVTZ
    Blend: AUG-CC-PVTZ
  Basis Set: (AUG-CC-PVTZ AUX)
    Blend: AUG-CC-PVTZ-JKFIT
	 Reference Energy          =    -490.6978491414848236 [Eh]
	 Singles Energy            =      -0.0000000000000000 [Eh]
	 Same-Spin Energy          =      -0.5024548619581983 [Eh]
	 Opposite-Spin Energy      =      -1.5429848021744403 [Eh]
	 Correlation Energy        =      -2.0454396641326387 [Eh]
	 Total Energy              =    -492.7432888056174534 [Eh]

	 ================> DF-SCS-MP2 Energies <==================
	-----------------------------------------------------------
	 SCS Same-Spin Scale       =       0.3333333333333333 [-]
	 SCS Opposite-Spin Scale   =       1.2000000000000000 [-]
	 SCS Same-Spin Energy      =      -0.1674849539860661 [Eh]
	 SCS Opposite-Spin Energy  =      -1.8515817626093283 [Eh]
	 SCS Correlation Energy    =      -2.0190667165953942 [Eh]
	 SCS Total Energy          =    -492.7169158580801991 [Eh]
	-----------------------------------------------------------

  Dipole Moment: [D]
     X:     0.8996      Y:     4.3149      Z:     0.1809     Total:     4.4114

*** Psi4 exiting successfully. Buy a developer a beer!
