                               Psi4 1.3.2 release

  ==> Input File <==

--------------------------------------------------------------------------
#psi4
#
memory 32 gb

molecule  {
0 1
  O        2.3111590    -1.3984000     0.0000580
  O       -2.2718830    -1.4902890    -0.0001310
  N        1.1826080     0.6255060     0.0000550
  N        0.0153410    -1.3761840    -0.0000340
  C       -1.2346770     0.6647280    -0.0000250
  C       -0.0319280     1.2897490     0.0000350
  C        1.2605820    -0.7608720     0.0000310
  C       -1.2542960    -0.7955090    -0.0000670
  C        2.4243390     1.3942650     0.0001240
  C       -2.5504790     1.3758010    -0.0000570
  H        0.0516717     2.3739809    -0.1999310
  H        0.0461780    -2.3935470    -0.0000610
  H        2.4800130     2.0209940     0.8935150
  H        2.4798690     2.0213500    -0.8930780
  H        3.2466700     0.6823050    -0.0000520
  H       -3.1375530     1.0948740    -0.8785960
  H       -2.4103180     2.4605130    -0.0000230
  H       -3.1376190     1.0948280     0.8784230
units angstrom
no_reorient  #important for SAPT in psi4, default
symmetry c1  #important for SAPT in psi4, default
}

set PROPERTIES_ORIGIN ["COM"]
properties('MP2/aug-cc-pvtz', properties = ['dipole'])
--------------------------------------------------------------------------

    Molecular point group: c1
  Charge       = 0
  Multiplicity = 1
  Basis Set: AUG-CC-PVTZ
    Blend: AUG-CC-PVTZ
  Basis Set: (AUG-CC-PVTZ AUX)
    Blend: AUG-CC-PVTZ-JKFIT

    Orbital Energies [Eh]
    ---------------------

    Doubly Occupied:

       1A    -20.540474     2A    -20.538903     3A    -15.637956
       4A    -15.624761     5A    -11.413697     6A    -11.376542
       7A    -11.326371     8A    -11.285748     9A    -11.260354
      10A    -11.237327    11A     -1.424103    12A     -1.387261
      13A     -1.306622    14A     -1.242963    15A     -1.109030
      16A     -0.993039    17A     -0.963326    18A     -0.913311
      19A     -0.852820    20A     -0.770593    21A     -0.734917
      22A     -0.691158    23A     -0.680082    24A     -0.649394
      25A     -0.636938    26A     -0.615689    27A     -0.608727
      28A     -0.588689    29A     -0.583985    30A     -0.555511
      31A     -0.548218    32A     -0.543293    33A     -0.488292
      34A     -0.474235    35A     -0.444519    36A     -0.430714
      37A     -0.346019

  @DF-RHF Final Energy:  -490.70931435042502

   => Energetics <=

    Nuclear Repulsion Energy =            530.2998437987669149
    One-Electron Energy =               -1720.3671491830207287
    Two-Electron Energy =                 699.3579910338287391
    Total Energy =                       -490.7093143504250747
  Basis Set: (AUG-CC-PVTZ AUX)
    Blend: AUG-CC-PVTZ-RI
    Molecular point group: c1

    Geometry (in Angstrom), charge = 0, multiplicity = 1:

       Center              X                  Y                   Z               Mass
    ------------   -----------------  -----------------  -----------------  -----------------
         O            2.308434379733    -1.332215648692     0.001498454649    15.994914619570
         O           -2.274607620267    -1.424104648692     0.001309454649    15.994914619570
         N            1.179883379733     0.691690351308     0.001495454649    14.003074004430
         N            0.012616379733    -1.309999648692     0.001406454649    14.003074004430
         C           -1.237401620267     0.730912351308     0.001415454649    12.000000000000
         C           -0.034652620267     1.355933351308     0.001475454649    12.000000000000
         C            1.257857379733    -0.694687648692     0.001471454649    12.000000000000
         C           -1.257020620267    -0.729324648692     0.001373454649    12.000000000000
         C            2.421614379733     1.460449351308     0.001564454649    12.000000000000
         C           -2.553203620267     1.441985351308     0.001383454649    12.000000000000
         H            0.048947079733     2.440165251308    -0.198490545351     1.007825032230
         H            0.043453379733    -2.327362648692     0.001379454649     1.007825032230
         H            2.477288379733     2.087178351308     0.894955454649     1.007825032230
         H            2.477144379733     2.087534351308    -0.891637545351     1.007825032230
         H            3.243945379733     0.748489351308     0.001388454649     1.007825032230
         H           -3.140277620267     1.161058351308    -0.877155545351     1.007825032230
         H           -2.413042620267     2.526697351308     0.001417454649     1.007825032230
         H           -3.140343620267     1.161012351308     0.879863454649     1.007825032230

  Basis Set: AUG-CC-PVTZ
    Blend: AUG-CC-PVTZ
  Basis Set: (AUG-CC-PVTZ AUX)
    Blend: AUG-CC-PVTZ-JKFIT
	 Reference Energy          =    -490.7093143504250179 [Eh]
	 Singles Energy            =      -0.0000000000000000 [Eh]
	 Same-Spin Energy          =      -0.5025792060666190 [Eh]
	 Opposite-Spin Energy      =      -1.5418217128577325 [Eh]
	 Correlation Energy        =      -2.0444009189243513 [Eh]
	 Total Energy              =    -492.7537152693493567 [Eh]

	 ================> DF-SCS-MP2 Energies <==================
	-----------------------------------------------------------
	 SCS Same-Spin Scale       =       0.3333333333333333 [-]
	 SCS Opposite-Spin Scale   =       1.2000000000000000 [-]
	 SCS Same-Spin Energy      =      -0.1675264020222063 [Eh]
	 SCS Opposite-Spin Energy  =      -1.8501860554292788 [Eh]
	 SCS Correlation Energy    =      -2.0177124574514851 [Eh]
	 SCS Total Energy          =    -492.7270268078764843 [Eh]
	-----------------------------------------------------------

  Dipole Moment: [D]
     X:     1.0276      Y:     4.4965      Z:    -0.1155     Total:     4.6139

*** Psi4 exiting successfully. Buy a developer a beer!
