                               Psi4 1.3.2 release

  ==> Input File <==

--------------------------------------------------------------------------
#psi4
#
memory 32 gb

molecule  {
0 1
  O        2.3111590    -1.3984000     0.0000580
  O       -2.2718830    -1.4902890    -0.0001310
  N        1.1826080     0.6255060     0.0000550
  N        0.0153410    -1.3761840    -0.0000340
  C       -1.2346893     0.6647192     0.2999750
  C       -0.0319280     1.2897490     0.0000350
  C        1.2605820    -0.7608720     0.0000310
  C       -1.2542960    -0.7955090    -0.0000670
  C        2.4243390     1.3942650     0.0001240
  C       -2.5504790     1.3758010    -0.0000570
  H        0.0516650     2.3739750     0.0000690
  H        0.0461780    -2.3935470    -0.0000610
  H        2.4800130     2.0209940     0.8935150
  H        2.4798690     2.0213500    -0.8930780
  H        3.2466700     0.6823050    -0.0000520
  H       -3.1375530     1.0948740    -0.8785960
  H       -2.4103180     2.4605130    -0.0000230
  H       -3.1376190     1.0948280     0.8784230
units angstrom
no_reorient  #important for SAPT in psi4, default
symmetry c1  #important for SAPT in psi4, default
}

set PROPERTIES_ORIGIN ["COM"]
properties('MP2/aug-cc-pvtz', properties = ['dipole'])
--------------------------------------------------------------------------

    Molecular point group: c1
  Charge       = 0
  Multiplicity = 1
  Basis Set: AUG-CC-PVTZ
    Blend: AUG-CC-PVTZ
  Basis Set: (AUG-CC-PVTZ AUX)
    Blend: AUG-CC-PVTZ-JKFIT

    Orbital Energies [Eh]
    ---------------------

    Doubly Occupied:

       1A    -20.543637     2A    -20.538572     3A    -15.642251
       4A    -15.624570     5A    -11.416138     6A    -11.377961
       7A    -11.334622     8A    -11.287971     9A    -11.264166
      10A    -11.236116    11A     -1.425988    12A     -1.386586
      13A     -1.309185    14A     -1.243614    15A     -1.100232
      16A     -0.993420    17A     -0.961430    18A     -0.909364
      19A     -0.851691    20A     -0.764639    21A     -0.734233
      22A     -0.694069    23A     -0.682297    24A     -0.650941
      25A     -0.638625    26A     -0.616753    27A     -0.606588
      28A     -0.595390    29A     -0.580280    30A     -0.553405
      31A     -0.542738    32A     -0.527985    33A     -0.484549
      34A     -0.475607    35A     -0.441440    36A     -0.430909
      37A     -0.346673

  @DF-RHF Final Energy:  -490.68356711968084

   => Energetics <=

    Nuclear Repulsion Energy =            529.1845771426998226
    One-Electron Energy =               -1718.1070165138007724
    Two-Electron Energy =                 698.2388722514201618
    Total Energy =                       -490.6835671196809017
  Basis Set: (AUG-CC-PVTZ AUX)
    Blend: AUG-CC-PVTZ-RI
    Molecular point group: c1

    Geometry (in Angstrom), charge = 0, multiplicity = 1:

       Center              X                  Y                   Z               Mass
    ------------   -----------------  -----------------  -----------------  -----------------
         O            2.308435481789    -1.332214852267    -0.025644224322    15.994914619570
         O           -2.274606518211    -1.424103852267    -0.025833224322    15.994914619570
         N            1.179884481789     0.691691147733    -0.025647224322    14.003074004430
         N            0.012617481789    -1.309998852267    -0.025736224322    14.003074004430
         C           -1.237412818211     0.730904347733     0.274272775678    12.000000000000
         C           -0.034651518211     1.355934147733    -0.025667224322    12.000000000000
         C            1.257858481789    -0.694686852267    -0.025671224322    12.000000000000
         C           -1.257019518211    -0.729323852267    -0.025769224322    12.000000000000
         C            2.421615481789     1.460450147733    -0.025578224322    12.000000000000
         C           -2.553202518211     1.441986147733    -0.025759224322    12.000000000000
         H            0.048941481789     2.440160147733    -0.025633224322     1.007825032230
         H            0.043454481789    -2.327361852267    -0.025763224322     1.007825032230
         H            2.477289481789     2.087179147733     0.867812775678     1.007825032230
         H            2.477145481789     2.087535147733    -0.918780224322     1.007825032230
         H            3.243946481789     0.748490147733    -0.025754224322     1.007825032230
         H           -3.140276518211     1.161059147733    -0.904298224322     1.007825032230
         H           -2.413041518211     2.526698147733    -0.025725224322     1.007825032230
         H           -3.140342518211     1.161013147733     0.852720775678     1.007825032230

  Basis Set: AUG-CC-PVTZ
    Blend: AUG-CC-PVTZ
  Basis Set: (AUG-CC-PVTZ AUX)
    Blend: AUG-CC-PVTZ-JKFIT
	 Reference Energy          =    -490.6835671196808448 [Eh]
	 Singles Energy            =      -0.0000000000000000 [Eh]
	 Same-Spin Energy          =      -0.5035181577176295 [Eh]
	 Opposite-Spin Energy      =      -1.5447882490236329 [Eh]
	 Correlation Energy        =      -2.0483064067412622 [Eh]
	 Total Energy              =    -492.7318735264221345 [Eh]

	 ================> DF-SCS-MP2 Energies <==================
	-----------------------------------------------------------
	 SCS Same-Spin Scale       =       0.3333333333333333 [-]
	 SCS Opposite-Spin Scale   =       1.2000000000000000 [-]
	 SCS Same-Spin Energy      =      -0.1678393859058765 [Eh]
	 SCS Opposite-Spin Energy  =      -1.8537458988283593 [Eh]
	 SCS Correlation Energy    =      -2.0215852847342357 [Eh]
	 SCS Total Energy          =    -492.7051524044150597 [Eh]
	-----------------------------------------------------------

  Dipole Moment: [D]
     X:     1.2461      Y:     4.3961      Z:    -0.1816     Total:     4.5729

*** Psi4 exiting successfully. Buy a developer a beer!
