                               Psi4 1.3.2 release

  ==> Input File <==

--------------------------------------------------------------------------
#psi4
#
memory 32 gb

molecule  {
0 1
  O        2.3111590    -1.3984000     0.0000580
  O       -2.2718830    -1.4902890    -0.0001310
  N        1.1826080     0.6255060     0.0000550
  N        0.0153410    -1.3761840    -0.0000340
  C       -1.2346770     0.6647280    -0.0000250
  C       -0.0319280     1.2897490     0.0000350
  C        1.2605820    -0.7608720     0.0000310
  C       -1.2542960    -0.7955090    -0.0000670
  C        2.4243390     1.3942650     0.0001240
  C       -2.5504790     1.3758010    -0.0000570
  H        0.0516684     2.3739780    -0.0999310
  H        0.0461780    -2.3935470    -0.0000610
  H        2.4800130     2.0209940     0.8935150
  H        2.4798690     2.0213500    -0.8930780
  H        3.2466700     0.6823050    -0.0000520
  H       -3.1375530     1.0948740    -0.8785960
  H       -2.4103180     2.4605130    -0.0000230
  H       -3.1376190     1.0948280     0.8784230
units angstrom
no_reorient  #important for SAPT in psi4, default
symmetry c1  #important for SAPT in psi4, default
}

set PROPERTIES_ORIGIN ["COM"]
properties('MP2/aug-cc-pvtz', properties = ['dipole'])
--------------------------------------------------------------------------

    Molecular point group: c1
  Charge       = 0
  Multiplicity = 1
  Basis Set: AUG-CC-PVTZ
    Blend: AUG-CC-PVTZ
  Basis Set: (AUG-CC-PVTZ AUX)
    Blend: AUG-CC-PVTZ-JKFIT

    Orbital Energies [Eh]
    ---------------------

    Doubly Occupied:

       1A    -20.540503     2A    -20.538646     3A    -15.638125
       4A    -15.624651     5A    -11.413710     6A    -11.376304
       7A    -11.325312     8A    -11.285915     9A    -11.259832
      10A    -11.237183    11A     -1.424098    12A     -1.387077
      13A     -1.306740    14A     -1.242926    15A     -1.109022
      16A     -0.993123    17A     -0.963710    18A     -0.914019
      19A     -0.852765    20A     -0.770676    21A     -0.734927
      22A     -0.691945    23A     -0.681654    24A     -0.649464
      25A     -0.637575    26A     -0.615675    27A     -0.609527
      28A     -0.588748    29A     -0.584003    30A     -0.555426
      31A     -0.548114    32A     -0.543215    33A     -0.488080
      34A     -0.475047    35A     -0.444390    36A     -0.430627
      37A     -0.345940

  @DF-RHF Final Energy:  -490.71135470394881

   => Energetics <=

    Nuclear Repulsion Energy =            530.3582080139665322
    One-Electron Energy =               -1720.4817359543876591
    Two-Electron Energy =                 699.4121732364723130
    Total Energy =                       -490.7113547039488139
  Basis Set: (AUG-CC-PVTZ AUX)
    Blend: AUG-CC-PVTZ-RI
    Molecular point group: c1

    Geometry (in Angstrom), charge = 0, multiplicity = 1:

       Center              X                  Y                   Z               Mass
    ------------   -----------------  -----------------  -----------------  -----------------
         O            2.308434403479    -1.332215627824     0.000778880704    15.994914619570
         O           -2.274607596521    -1.424104627824     0.000589880704    15.994914619570
         N            1.179883403479     0.691690372176     0.000775880704    14.003074004430
         N            0.012616403479    -1.309999627824     0.000686880704    14.003074004430
         C           -1.237401596521     0.730912372176     0.000695880704    12.000000000000
         C           -0.034652596521     1.355933372176     0.000755880704    12.000000000000
         C            1.257857403479    -0.694687627824     0.000751880704    12.000000000000
         C           -1.257020596521    -0.729324627824     0.000653880704    12.000000000000
         C            2.421614403479     1.460449372176     0.000844880704    12.000000000000
         C           -2.553203596521     1.441985372176     0.000663880704    12.000000000000
         H            0.048943803479     2.440162372176    -0.099210119296     1.007825032230
         H            0.043453403479    -2.327362627824     0.000659880704     1.007825032230
         H            2.477288403479     2.087178372176     0.894235880704     1.007825032230
         H            2.477144403479     2.087534372176    -0.892357119296     1.007825032230
         H            3.243945403479     0.748489372176     0.000668880704     1.007825032230
         H           -3.140277596521     1.161058372176    -0.877875119296     1.007825032230
         H           -2.413042596521     2.526697372176     0.000697880704     1.007825032230
         H           -3.140343596521     1.161012372176     0.879143880704     1.007825032230

  Basis Set: AUG-CC-PVTZ
    Blend: AUG-CC-PVTZ
  Basis Set: (AUG-CC-PVTZ AUX)
    Blend: AUG-CC-PVTZ-JKFIT
	 Reference Energy          =    -490.7113547039488139 [Eh]
	 Singles Energy            =      -0.0000000000000000 [Eh]
	 Same-Spin Energy          =      -0.5024352666125580 [Eh]
	 Opposite-Spin Energy      =      -1.5415460754260064 [Eh]
	 Correlation Energy        =      -2.0439813420385642 [Eh]
	 Total Energy              =    -492.7553360459874057 [Eh]

	 ================> DF-SCS-MP2 Energies <==================
	-----------------------------------------------------------
	 SCS Same-Spin Scale       =       0.3333333333333333 [-]
	 SCS Opposite-Spin Scale   =       1.2000000000000000 [-]
	 SCS Same-Spin Energy      =      -0.1674784222041860 [Eh]
	 SCS Opposite-Spin Energy  =      -1.8498552905112076 [Eh]
	 SCS Correlation Energy    =      -2.0173337127153936 [Eh]
	 SCS Total Energy          =    -492.7286884166642267 [Eh]
	-----------------------------------------------------------

  Dipole Moment: [D]
     X:     1.0429      Y:     4.5158      Z:    -0.0581     Total:     4.6350

*** Psi4 exiting successfully. Buy a developer a beer!
