                               Psi4 1.3.2 release

  ==> Input File <==

--------------------------------------------------------------------------
#psi4
#
memory 32 gb

molecule  {
0 1
  O        2.3111590    -1.3984000     0.0000580
  O       -2.2718830    -1.4902890    -0.0001310
  N        1.1826080     0.6255060     0.0000550
  N        0.0153410    -1.3761840    -0.0000340
  C       -1.2346770     0.6647280    -0.0000250
  C       -0.0319280     1.2897490     0.0000350
  C        1.2605820    -0.7608720     0.0000310
  C       -1.2542960    -0.7955090    -0.0000670
  C        2.4243390     1.3942650     0.0001240
  C       -2.5504678     1.3758091    -0.3000570
  H        0.0516650     2.3739750     0.0000690
  H        0.0461780    -2.3935470    -0.0000610
  H        2.4800130     2.0209940     0.8935150
  H        2.4798690     2.0213500    -0.8930780
  H        3.2466700     0.6823050    -0.0000520
  H       -3.1375530     1.0948740    -0.8785960
  H       -2.4103180     2.4605130    -0.0000230
  H       -3.1376190     1.0948280     0.8784230
units angstrom
no_reorient  #important for SAPT in psi4, default
symmetry c1  #important for SAPT in psi4, default
}

set PROPERTIES_ORIGIN ["COM"]
properties('MP2/aug-cc-pvtz', properties = ['dipole'])
--------------------------------------------------------------------------

    Molecular point group: c1
  Charge       = 0
  Multiplicity = 1
  Basis Set: AUG-CC-PVTZ
    Blend: AUG-CC-PVTZ
  Basis Set: (AUG-CC-PVTZ AUX)
    Blend: AUG-CC-PVTZ-JKFIT

    Orbital Energies [Eh]
    ---------------------

    Doubly Occupied:

       1A    -20.541382     2A    -20.539245     3A    -15.639551
       4A    -15.625414     5A    -11.414564     6A    -11.376990
       7A    -11.326363     8A    -11.286769     9A    -11.266553
      10A    -11.250523    11A     -1.424955    12A     -1.387601
      13A     -1.307849    14A     -1.243741    15A     -1.109005
      16A     -0.995756    17A     -0.970404    18A     -0.917247
      19A     -0.858494    20A     -0.773733    21A     -0.738824
      22A     -0.694097    23A     -0.683084    24A     -0.662932
      25A     -0.645545    26A     -0.635575    27A     -0.613456
      28A     -0.599787    29A     -0.582911    30A     -0.558551
      31A     -0.543300    32A     -0.506129    33A     -0.476214
      34A     -0.465772    35A     -0.444852    36A     -0.430532
      37A     -0.340228

  @DF-RHF Final Energy:  -490.61609363069709

   => Energetics <=

    Nuclear Repulsion Energy =            529.9983701314358768
    One-Electron Energy =               -1719.4730685963238557
    Two-Electron Energy =                 698.8586048341908281
    Total Energy =                       -490.6160936306971507
  Basis Set: (AUG-CC-PVTZ AUX)
    Blend: AUG-CC-PVTZ-RI
    Molecular point group: c1

    Geometry (in Angstrom), charge = 0, multiplicity = 1:

       Center              X                  Y                   Z               Mass
    ------------   -----------------  -----------------  -----------------  -----------------
         O            2.308433468346    -1.332216300232     0.025762837839    15.994914619570
         O           -2.274608531654    -1.424105300232     0.025573837839    15.994914619570
         N            1.179882468346     0.691689699768     0.025759837839    14.003074004430
         N            0.012615468346    -1.310000300232     0.025670837839    14.003074004430
         C           -1.237402531654     0.730911699768     0.025679837839    12.000000000000
         C           -0.034653531654     1.355932699768     0.025739837839    12.000000000000
         C            1.257856468346    -0.694688300232     0.025735837839    12.000000000000
         C           -1.257021531654    -0.729325300232     0.025637837839    12.000000000000
         C            2.421613468346     1.460448699768     0.025828837839    12.000000000000
         C           -2.553193331654     1.441992799768    -0.274352162161    12.000000000000
         H            0.048939468346     2.440158699768     0.025773837839     1.007825032230
         H            0.043452468346    -2.327363300232     0.025643837839     1.007825032230
         H            2.477287468346     2.087177699768     0.919219837839     1.007825032230
         H            2.477143468346     2.087533699768    -0.867373162161     1.007825032230
         H            3.243944468346     0.748488699768     0.025652837839     1.007825032230
         H           -3.140278531654     1.161057699768    -0.852891162161     1.007825032230
         H           -2.413043531654     2.526696699768     0.025681837839     1.007825032230
         H           -3.140344531654     1.161011699768     0.904127837839     1.007825032230

  Basis Set: AUG-CC-PVTZ
    Blend: AUG-CC-PVTZ
  Basis Set: (AUG-CC-PVTZ AUX)
    Blend: AUG-CC-PVTZ-JKFIT
	 Reference Energy          =    -490.6160936306970939 [Eh]
	 Singles Energy            =      -0.0000000000000000 [Eh]
	 Same-Spin Energy          =      -0.5036177953714753 [Eh]
	 Opposite-Spin Energy      =      -1.5457781154430752 [Eh]
	 Correlation Energy        =      -2.0493959108145505 [Eh]
	 Total Energy              =    -492.6654895415116471 [Eh]

	 ================> DF-SCS-MP2 Energies <==================
	-----------------------------------------------------------
	 SCS Same-Spin Scale       =       0.3333333333333333 [-]
	 SCS Opposite-Spin Scale   =       1.2000000000000000 [-]
	 SCS Same-Spin Energy      =      -0.1678725984571584 [Eh]
	 SCS Opposite-Spin Energy  =      -1.8549337385316902 [Eh]
	 SCS Correlation Energy    =      -2.0228063369888485 [Eh]
	 SCS Total Energy          =    -492.6388999676859157 [Eh]
	-----------------------------------------------------------

  Dipole Moment: [D]
     X:     1.1614      Y:     4.4867      Z:    -0.0849     Total:     4.6353

*** Psi4 exiting successfully. Buy a developer a beer!
