                               Psi4 1.3.2 release

  ==> Input File <==

--------------------------------------------------------------------------
#psi4
#
memory 32 gb

molecule  {
0 1
  O        2.3111590    -1.3984000     0.0000580
  O       -2.2718830    -1.4902890    -0.0001310
  N        1.1826080     0.6255060     0.0000550
  N        0.0153410    -1.3761840    -0.0000340
  C       -1.2346770     0.6647280    -0.0000250
  C       -0.0319280     1.2897490     0.0000350
  C        1.2605820    -0.7608720     0.0000310
  C       -1.2542960    -0.7955090    -0.0000670
  C        2.4243390     1.3942650     0.0001240
  C       -2.5504790     1.3758010    -0.0000570
  H        0.0516734     2.3739824    -0.2499310
  H        0.0461780    -2.3935470    -0.0000610
  H        2.4800130     2.0209940     0.8935150
  H        2.4798690     2.0213500    -0.8930780
  H        3.2466700     0.6823050    -0.0000520
  H       -3.1375530     1.0948740    -0.8785960
  H       -2.4103180     2.4605130    -0.0000230
  H       -3.1376190     1.0948280     0.8784230
units angstrom
no_reorient  #important for SAPT in psi4, default
symmetry c1  #important for SAPT in psi4, default
}

set PROPERTIES_ORIGIN ["COM"]
properties('MP2/aug-cc-pvtz', properties = ['dipole'])
--------------------------------------------------------------------------

    Molecular point group: c1
  Charge       = 0
  Multiplicity = 1
  Basis Set: AUG-CC-PVTZ
    Blend: AUG-CC-PVTZ
  Basis Set: (AUG-CC-PVTZ AUX)
    Blend: AUG-CC-PVTZ-JKFIT

    Orbital Energies [Eh]
    ---------------------

    Doubly Occupied:

       1A    -20.540455     2A    -20.539093     3A    -15.637837
       4A    -15.624844     5A    -11.413691     6A    -11.376719
       7A    -11.327150     8A    -11.285625     9A    -11.260740
      10A    -11.237431    11A     -1.424109    12A     -1.387397
      13A     -1.306540    14A     -1.242993    15A     -1.109041
      16A     -0.992979    17A     -0.963065    18A     -0.912803
      19A     -0.852861    20A     -0.770543    21A     -0.734917
      22A     -0.690677    23A     -0.678910    24A     -0.649346
      25A     -0.636458    26A     -0.615701    27A     -0.608072
      28A     -0.588646    29A     -0.583963    30A     -0.555569
      31A     -0.548293    32A     -0.543351    33A     -0.488439
      34A     -0.473648    35A     -0.444614    36A     -0.430780
      37A     -0.346079

  @DF-RHF Final Energy:  -490.70768941437819

   => Energetics <=

    Nuclear Repulsion Energy =            530.2570323634229226
    One-Electron Energy =               -1720.2826833425635868
    Two-Electron Energy =                 699.3179615647624132
    Total Energy =                       -490.7076894143782511
  Basis Set: (AUG-CC-PVTZ AUX)
    Blend: AUG-CC-PVTZ-RI
    Molecular point group: c1

    Geometry (in Angstrom), charge = 0, multiplicity = 1:

       Center              X                  Y                   Z               Mass
    ------------   -----------------  -----------------  -----------------  -----------------
         O            2.308434367500    -1.332215659485     0.001858241622    15.994914619570
         O           -2.274607632500    -1.424104659485     0.001669241622    15.994914619570
         N            1.179883367500     0.691690340515     0.001855241622    14.003074004430
         N            0.012616367500    -1.309999659485     0.001766241622    14.003074004430
         C           -1.237401632500     0.730912340515     0.001775241622    12.000000000000
         C           -0.034652632500     1.355933340515     0.001835241622    12.000000000000
         C            1.257857367500    -0.694687659485     0.001831241622    12.000000000000
         C           -1.257020632500    -0.729324659485     0.001733241622    12.000000000000
         C            2.421614367500     1.460449340515     0.001924241622    12.000000000000
         C           -2.553203632500     1.441985340515     0.001743241622    12.000000000000
         H            0.048948767500     2.440166740515    -0.248130758378     1.007825032230
         H            0.043453367500    -2.327362659485     0.001739241622     1.007825032230
         H            2.477288367500     2.087178340515     0.895315241622     1.007825032230
         H            2.477144367500     2.087534340515    -0.891277758378     1.007825032230
         H            3.243945367500     0.748489340515     0.001748241622     1.007825032230
         H           -3.140277632500     1.161058340515    -0.876795758378     1.007825032230
         H           -2.413042632500     2.526697340515     0.001777241622     1.007825032230
         H           -3.140343632500     1.161012340515     0.880223241622     1.007825032230

  Basis Set: AUG-CC-PVTZ
    Blend: AUG-CC-PVTZ
  Basis Set: (AUG-CC-PVTZ AUX)
    Blend: AUG-CC-PVTZ-JKFIT
	 Reference Energy          =    -490.7076894143781942 [Eh]
	 Singles Energy            =      -0.0000000000000000 [Eh]
	 Same-Spin Energy          =      -0.5026858987916545 [Eh]
	 Opposite-Spin Energy      =      -1.5420441293176379 [Eh]
	 Correlation Energy        =      -2.0447300281092922 [Eh]
	 Total Energy              =    -492.7524194424875077 [Eh]

	 ================> DF-SCS-MP2 Energies <==================
	-----------------------------------------------------------
	 SCS Same-Spin Scale       =       0.3333333333333333 [-]
	 SCS Opposite-Spin Scale   =       1.2000000000000000 [-]
	 SCS Same-Spin Energy      =      -0.1675619662638848 [Eh]
	 SCS Opposite-Spin Energy  =      -1.8504529551811655 [Eh]
	 SCS Correlation Energy    =      -2.0180149214450505 [Eh]
	 SCS Total Energy          =    -492.7257043358232522 [Eh]
	-----------------------------------------------------------

  Dipole Moment: [D]
     X:     1.0167      Y:     4.4821      Z:    -0.1436     Total:     4.5983

*** Psi4 exiting successfully. Buy a developer a beer!
