                               Psi4 1.3.2 release

  ==> Input File <==

--------------------------------------------------------------------------
#psi4
#
memory 32 gb

molecule  {
0 1
  O        2.3111590    -1.3984000     0.0000580
  O       -2.2718830    -1.4902890    -0.0001310
  N        1.1826121     0.6255081    -0.0999450
  N        0.0153410    -1.3761840    -0.0000340
  C       -1.2346770     0.6647280    -0.0000250
  C       -0.0319280     1.2897490     0.0000350
  C        1.2605820    -0.7608720     0.0000310
  C       -1.2542960    -0.7955090    -0.0000670
  C        2.4243390     1.3942650     0.0001240
  C       -2.5504790     1.3758010    -0.0000570
  H        0.0516650     2.3739750     0.0000690
  H        0.0461780    -2.3935470    -0.0000610
  H        2.4800130     2.0209940     0.8935150
  H        2.4798690     2.0213500    -0.8930780
  H        3.2466700     0.6823050    -0.0000520
  H       -3.1375530     1.0948740    -0.8785960
  H       -2.4103180     2.4605130    -0.0000230
  H       -3.1376190     1.0948280     0.8784230
units angstrom
no_reorient  #important for SAPT in psi4, default
symmetry c1  #important for SAPT in psi4, default
}

set PROPERTIES_ORIGIN ["COM"]
properties('MP2/aug-cc-pvtz', properties = ['dipole'])
--------------------------------------------------------------------------

    Molecular point group: c1
  Charge       = 0
  Multiplicity = 1
  Basis Set: AUG-CC-PVTZ
    Blend: AUG-CC-PVTZ
  Basis Set: (AUG-CC-PVTZ AUX)
    Blend: AUG-CC-PVTZ-JKFIT

    Orbital Energies [Eh]
    ---------------------

    Doubly Occupied:

       1A    -20.541286     2A    -20.539117     3A    -15.637978
       4A    -15.624738     5A    -11.413943     6A    -11.376577
       7A    -11.324709     8A    -11.285582     9A    -11.260030
      10A    -11.237300    11A     -1.423990    12A     -1.387407
      13A     -1.305577    14A     -1.242689    15A     -1.108886
      16A     -0.992050    17A     -0.962997    18A     -0.913812
      19A     -0.852697    20A     -0.769733    21A     -0.735050
      22A     -0.692042    23A     -0.681019    24A     -0.649488
      25A     -0.638112    26A     -0.616587    27A     -0.607751
      28A     -0.589025    29A     -0.583061    30A     -0.555330
      31A     -0.548199    32A     -0.543090    33A     -0.487659
      34A     -0.475508    35A     -0.444732    36A     -0.430787
      37A     -0.346740

  @DF-RHF Final Energy:  -490.70977310855079

   => Energetics <=

    Nuclear Repulsion Energy =            530.2128354496644533
    One-Electron Energy =               -1720.1946583900003134
    Two-Electron Energy =                 699.2720498317851252
    Total Energy =                       -490.7097731085507348
  Basis Set: (AUG-CC-PVTZ AUX)
    Blend: AUG-CC-PVTZ-RI
    Molecular point group: c1

    Geometry (in Angstrom), charge = 0, multiplicity = 1:

       Center              X                  Y                   Z               Mass
    ------------   -----------------  -----------------  -----------------  -----------------
         O            2.308434018026    -1.332215816195     0.010057319200    15.994914619570
         O           -2.274607981974    -1.424104816195     0.009868319200    15.994914619570
         N            1.179887118026     0.691692283805    -0.089945680800    14.003074004430
         N            0.012616018026    -1.309999816195     0.009965319200    14.003074004430
         C           -1.237401981974     0.730912183805     0.009974319200    12.000000000000
         C           -0.034652981974     1.355933183805     0.010034319200    12.000000000000
         C            1.257857018026    -0.694687816195     0.010030319200    12.000000000000
         C           -1.257020981974    -0.729324816195     0.009932319200    12.000000000000
         C            2.421614018026     1.460449183805     0.010123319200    12.000000000000
         C           -2.553203981974     1.441985183805     0.009942319200    12.000000000000
         H            0.048940018026     2.440159183805     0.010068319200     1.007825032230
         H            0.043453018026    -2.327362816195     0.009938319200     1.007825032230
         H            2.477288018026     2.087178183805     0.903514319200     1.007825032230
         H            2.477144018026     2.087534183805    -0.883078680800     1.007825032230
         H            3.243945018026     0.748489183805     0.009947319200     1.007825032230
         H           -3.140277981974     1.161058183805    -0.868596680800     1.007825032230
         H           -2.413042981974     2.526697183805     0.009976319200     1.007825032230
         H           -3.140343981974     1.161012183805     0.888422319200     1.007825032230

  Basis Set: AUG-CC-PVTZ
    Blend: AUG-CC-PVTZ
  Basis Set: (AUG-CC-PVTZ AUX)
    Blend: AUG-CC-PVTZ-JKFIT
	 Reference Energy          =    -490.7097731085507917 [Eh]
	 Singles Energy            =      -0.0000000000000000 [Eh]
	 Same-Spin Energy          =      -0.5023866758872003 [Eh]
	 Opposite-Spin Energy      =      -1.5416339785381297 [Eh]
	 Correlation Energy        =      -2.0440206544253301 [Eh]
	 Total Energy              =    -492.7537937629761018 [Eh]

	 ================> DF-SCS-MP2 Energies <==================
	-----------------------------------------------------------
	 SCS Same-Spin Scale       =       0.3333333333333333 [-]
	 SCS Opposite-Spin Scale   =       1.2000000000000000 [-]
	 SCS Same-Spin Energy      =      -0.1674622252957334 [Eh]
	 SCS Opposite-Spin Energy  =      -1.8499607742457556 [Eh]
	 SCS Correlation Energy    =      -2.0174229995414890 [Eh]
	 SCS Total Energy          =    -492.7271961080923006 [Eh]
	-----------------------------------------------------------

  Dipole Moment: [D]
     X:     1.0233      Y:     4.4873      Z:     0.0646     Total:     4.6030

*** Psi4 exiting successfully. Buy a developer a beer!
