                               Psi4 1.3.2 release

  ==> Input File <==

--------------------------------------------------------------------------
#psi4
#
memory 32 gb

molecule  {
0 1
  O        2.3111590    -1.3984000     0.0000580
  O       -2.2718830    -1.4902890    -0.0001310
  N        1.1826080     0.6255060     0.0000550
  N        0.0153410    -1.3761840    -0.0000340
  C       -1.2346770     0.6647280    -0.0000250
  C       -0.0319280     1.2897490     0.0000350
  C        1.2605820    -0.7608720     0.0000310
  C       -1.2542960    -0.7955090    -0.0000670
  C        2.4243390     1.3942650     0.0001240
  C       -2.5504753     1.3758037    -0.1000570
  H        0.0516650     2.3739750     0.0000690
  H        0.0461780    -2.3935470    -0.0000610
  H        2.4800130     2.0209940     0.8935150
  H        2.4798690     2.0213500    -0.8930780
  H        3.2466700     0.6823050    -0.0000520
  H       -3.1375530     1.0948740    -0.8785960
  H       -2.4103180     2.4605130    -0.0000230
  H       -3.1376190     1.0948280     0.8784230
units angstrom
no_reorient  #important for SAPT in psi4, default
symmetry c1  #important for SAPT in psi4, default
}

set PROPERTIES_ORIGIN ["COM"]
properties('MP2/aug-cc-pvtz', properties = ['dipole'])
--------------------------------------------------------------------------

    Molecular point group: c1
  Charge       = 0
  Multiplicity = 1
  Basis Set: AUG-CC-PVTZ
    Blend: AUG-CC-PVTZ
  Basis Set: (AUG-CC-PVTZ AUX)
    Blend: AUG-CC-PVTZ-JKFIT

    Orbital Energies [Eh]
    ---------------------

    Doubly Occupied:

       1A    -20.540615     2A    -20.538637     3A    -15.638342
       4A    -15.624706     5A    -11.413814     6A    -11.376311
       7A    -11.325118     8A    -11.286064     9A    -11.260456
      10A    -11.238640    11A     -1.424197    12A     -1.387081
      13A     -1.306905    14A     -1.243009    15A     -1.109021
      16A     -0.993386    17A     -0.964524    18A     -0.914582
      19A     -0.853396    20A     -0.771046    21A     -0.735298
      22A     -0.692441    23A     -0.682286    24A     -0.649948
      25A     -0.638140    26A     -0.619947    27A     -0.611279
      28A     -0.593999    29A     -0.584094    30A     -0.556129
      31A     -0.550058    32A     -0.530140    33A     -0.486228
      34A     -0.475401    35A     -0.444408    36A     -0.430610
      37A     -0.345309

  @DF-RHF Final Energy:  -490.70161879568741

   => Energetics <=

    Nuclear Repulsion Energy =            530.3351676728616440
    One-Electron Energy =               -1720.4024441107687835
    Two-Electron Energy =                 699.3656576422197304
    Total Energy =                       -490.7016187956874091
  Basis Set: (AUG-CC-PVTZ AUX)
    Blend: AUG-CC-PVTZ-RI
    Molecular point group: c1

    Geometry (in Angstrom), charge = 0, multiplicity = 1:

       Center              X                  Y                   Z               Mass
    ------------   -----------------  -----------------  -----------------  -----------------
         O            2.308434110934    -1.332215837569     0.008627150452    15.994914619570
         O           -2.274607889066    -1.424104837569     0.008438150452    15.994914619570
         N            1.179883110934     0.691690162431     0.008624150452    14.003074004430
         N            0.012616110934    -1.309999837569     0.008535150452    14.003074004430
         C           -1.237401889066     0.730912162431     0.008544150452    12.000000000000
         C           -0.034652889066     1.355933162431     0.008604150452    12.000000000000
         C            1.257857110934    -0.694687837569     0.008600150452    12.000000000000
         C           -1.257020889066    -0.729324837569     0.008502150452    12.000000000000
         C            2.421614110934     1.460449162431     0.008693150452    12.000000000000
         C           -2.553200189066     1.441987862431    -0.091487849548    12.000000000000
         H            0.048940110934     2.440159162431     0.008638150452     1.007825032230
         H            0.043453110934    -2.327362837569     0.008508150452     1.007825032230
         H            2.477288110934     2.087178162431     0.902084150452     1.007825032230
         H            2.477144110934     2.087534162431    -0.884508849548     1.007825032230
         H            3.243945110934     0.748489162431     0.008517150452     1.007825032230
         H           -3.140277889066     1.161058162431    -0.870026849548     1.007825032230
         H           -2.413042889066     2.526697162431     0.008546150452     1.007825032230
         H           -3.140343889066     1.161012162431     0.886992150452     1.007825032230

  Basis Set: AUG-CC-PVTZ
    Blend: AUG-CC-PVTZ
  Basis Set: (AUG-CC-PVTZ AUX)
    Blend: AUG-CC-PVTZ-JKFIT
	 Reference Energy          =    -490.7016187956874091 [Eh]
	 Singles Energy            =      -0.0000000000000000 [Eh]
	 Same-Spin Energy          =      -0.5025193762323721 [Eh]
	 Opposite-Spin Energy      =      -1.5419049014819515 [Eh]
	 Correlation Energy        =      -2.0444242777143238 [Eh]
	 Total Energy              =    -492.7460430734017223 [Eh]

	 ================> DF-SCS-MP2 Energies <==================
	-----------------------------------------------------------
	 SCS Same-Spin Scale       =       0.3333333333333333 [-]
	 SCS Opposite-Spin Scale   =       1.2000000000000000 [-]
	 SCS Same-Spin Energy      =      -0.1675064587441240 [Eh]
	 SCS Opposite-Spin Energy  =      -1.8502858817783416 [Eh]
	 SCS Correlation Energy    =      -2.0177923405224658 [Eh]
	 SCS Total Energy          =    -492.7194111362098852 [Eh]
	-----------------------------------------------------------

  Dipole Moment: [D]
     X:     1.0623      Y:     4.5188      Z:    -0.0370     Total:     4.6421

*** Psi4 exiting successfully. Buy a developer a beer!
