                               Psi4 1.3.2 release

  ==> Input File <==

--------------------------------------------------------------------------
#psi4
#
memory 32 gb

molecule  {
0 1
  O        2.3111590    -1.3984000     0.0000580
  O       -2.2718830    -1.4902890    -0.0001310
  N        1.1826141     0.6255092    -0.1499450
  N        0.0153410    -1.3761840    -0.0000340
  C       -1.2346770     0.6647280    -0.0000250
  C       -0.0319280     1.2897490     0.0000350
  C        1.2605820    -0.7608720     0.0000310
  C       -1.2542960    -0.7955090    -0.0000670
  C        2.4243390     1.3942650     0.0001240
  C       -2.5504790     1.3758010    -0.0000570
  H        0.0516650     2.3739750     0.0000690
  H        0.0461780    -2.3935470    -0.0000610
  H        2.4800130     2.0209940     0.8935150
  H        2.4798690     2.0213500    -0.8930780
  H        3.2466700     0.6823050    -0.0000520
  H       -3.1375530     1.0948740    -0.8785960
  H       -2.4103180     2.4605130    -0.0000230
  H       -3.1376190     1.0948280     0.8784230
units angstrom
no_reorient  #important for SAPT in psi4, default
symmetry c1  #important for SAPT in psi4, default
}

set PROPERTIES_ORIGIN ["COM"]
properties('MP2/aug-cc-pvtz', properties = ['dipole'])
--------------------------------------------------------------------------

    Molecular point group: c1
  Charge       = 0
  Multiplicity = 1
  Basis Set: AUG-CC-PVTZ
    Blend: AUG-CC-PVTZ
  Basis Set: (AUG-CC-PVTZ AUX)
    Blend: AUG-CC-PVTZ-JKFIT

    Orbital Energies [Eh]
    ---------------------

    Doubly Occupied:

       1A    -20.542230     2A    -20.539798     3A    -15.637765
       4A    -15.624889     5A    -11.414216     6A    -11.377006
       7A    -11.324409     8A    -11.285112     9A    -11.260496
      10A    -11.237505    11A     -1.423872    12A     -1.387887
      13A     -1.304090    14A     -1.242381    15A     -1.108729
      16A     -0.990713    17A     -0.961992    18A     -0.913240
      19A     -0.852636    20A     -0.768516    21A     -0.735192
      22A     -0.691798    23A     -0.679638    24A     -0.649451
      25A     -0.638478    26A     -0.617361    27A     -0.605702
      28A     -0.589284    29A     -0.581915    30A     -0.555244
      31A     -0.548334    32A     -0.542950    33A     -0.487256
      34A     -0.475706    35A     -0.445197    36A     -0.431017
      37A     -0.347756

  @DF-RHF Final Energy:  -490.70697034354617

   => Energetics <=

    Nuclear Repulsion Energy =            530.0077926706655944
    One-Electron Energy =               -1719.7900031025642420
    Two-Electron Energy =                 699.0752400883525297
    Total Energy =                       -490.7069703435461179
  Basis Set: (AUG-CC-PVTZ AUX)
    Blend: AUG-CC-PVTZ-RI
    Molecular point group: c1

    Geometry (in Angstrom), charge = 0, multiplicity = 1:

       Center              X                  Y                   Z               Mass
    ------------   -----------------  -----------------  -----------------  -----------------
         O            2.308433818065    -1.332215926173     0.015056325420    15.994914619570
         O           -2.274608181935    -1.424104926173     0.014867325420    15.994914619570
         N            1.179888918065     0.691693273827    -0.134946674580    14.003074004430
         N            0.012615818065    -1.309999926173     0.014964325420    14.003074004430
         C           -1.237402181935     0.730912073827     0.014973325420    12.000000000000
         C           -0.034653181935     1.355933073827     0.015033325420    12.000000000000
         C            1.257856818065    -0.694687926173     0.015029325420    12.000000000000
         C           -1.257021181935    -0.729324926173     0.014931325420    12.000000000000
         C            2.421613818065     1.460449073827     0.015122325420    12.000000000000
         C           -2.553204181935     1.441985073827     0.014941325420    12.000000000000
         H            0.048939818065     2.440159073827     0.015067325420     1.007825032230
         H            0.043452818065    -2.327362926173     0.014937325420     1.007825032230
         H            2.477287818065     2.087178073827     0.908513325420     1.007825032230
         H            2.477143818065     2.087534073827    -0.878079674580     1.007825032230
         H            3.243944818065     0.748489073827     0.014946325420     1.007825032230
         H           -3.140278181935     1.161058073827    -0.863597674580     1.007825032230
         H           -2.413043181935     2.526697073827     0.014975325420     1.007825032230
         H           -3.140344181935     1.161012073827     0.893421325420     1.007825032230

  Basis Set: AUG-CC-PVTZ
    Blend: AUG-CC-PVTZ
  Basis Set: (AUG-CC-PVTZ AUX)
    Blend: AUG-CC-PVTZ-JKFIT
	 Reference Energy          =    -490.7069703435461747 [Eh]
	 Singles Energy            =      -0.0000000000000000 [Eh]
	 Same-Spin Energy          =      -0.5023932663258202 [Eh]
	 Opposite-Spin Energy      =      -1.5419052138339708 [Eh]
	 Correlation Energy        =      -2.0442984801597910 [Eh]
	 Total Energy              =    -492.7512688237059706 [Eh]

	 ================> DF-SCS-MP2 Energies <==================
	-----------------------------------------------------------
	 SCS Same-Spin Scale       =       0.3333333333333333 [-]
	 SCS Opposite-Spin Scale   =       1.2000000000000000 [-]
	 SCS Same-Spin Energy      =      -0.1674644221086067 [Eh]
	 SCS Opposite-Spin Energy  =      -1.8502862566007650 [Eh]
	 SCS Correlation Energy    =      -2.0177506787093717 [Eh]
	 SCS Total Energy          =    -492.7247210222555509 [Eh]
	-----------------------------------------------------------

  Dipole Moment: [D]
     X:     0.9928      Y:     4.4447      Z:     0.0998     Total:     4.5553

*** Psi4 exiting successfully. Buy a developer a beer!
