                               Psi4 1.3.2 release

  ==> Input File <==

--------------------------------------------------------------------------
#psi4
#
memory 32 gb

molecule  {
0 1
  O        2.3111590    -1.3984000     0.0000580
  O       -2.2718830    -1.4902890    -0.0001310
  N        1.1826080     0.6255060     0.0000550
  N        0.0153410    -1.3761840    -0.0000340
  C       -1.2346770     0.6647280    -0.0000250
  C       -0.0319280     1.2897490     0.0000350
  C        1.2605820    -0.7608720     0.0000310
  C       -1.2542960    -0.7955090    -0.0000670
  C        2.4243390     1.3942650     0.0001240
  C       -2.5504790     1.3758010    -0.0000570
  H        0.0516650     2.3739750     0.0000690
  H        0.0461664    -2.3935553     0.2999390
  H        2.4800130     2.0209940     0.8935150
  H        2.4798690     2.0213500    -0.8930780
  H        3.2466700     0.6823050    -0.0000520
  H       -3.1375530     1.0948740    -0.8785960
  H       -2.4103180     2.4605130    -0.0000230
  H       -3.1376190     1.0948280     0.8784230
units angstrom
no_reorient  #important for SAPT in psi4, default
symmetry c1  #important for SAPT in psi4, default
}

set PROPERTIES_ORIGIN ["COM"]
properties('MP2/aug-cc-pvtz', properties = ['dipole'])
--------------------------------------------------------------------------

    Molecular point group: c1
  Charge       = 0
  Multiplicity = 1
  Basis Set: AUG-CC-PVTZ
    Blend: AUG-CC-PVTZ
  Basis Set: (AUG-CC-PVTZ AUX)
    Blend: AUG-CC-PVTZ-JKFIT

    Orbital Energies [Eh]
    ---------------------

    Doubly Occupied:

       1A    -20.540644     2A    -20.538852     3A    -15.638019
       4A    -15.626509     5A    -11.413253     6A    -11.375735
       7A    -11.324987     8A    -11.285838     9A    -11.259472
      10A    -11.237011    11A     -1.423393    12A     -1.386781
      13A     -1.306640    14A     -1.239090    15A     -1.108568
      16A     -0.992650    17A     -0.963415    18A     -0.910966
      19A     -0.851957    20A     -0.769511    21A     -0.727148
      22A     -0.692257    23A     -0.679960    24A     -0.648282
      25A     -0.637730    26A     -0.617057    27A     -0.606367
      28A     -0.588570    29A     -0.583595    30A     -0.554360
      31A     -0.547913    32A     -0.542378    33A     -0.487764
      34A     -0.475154    35A     -0.444426    36A     -0.430360
      37A     -0.345776

  @DF-RHF Final Energy:  -490.70623734466926

   => Energetics <=

    Nuclear Repulsion Energy =            530.1559782210665617
    One-Electron Energy =               -1720.1196590985493913
    Two-Electron Energy =                 699.2574435328135678
    Total Energy =                       -490.7062373446692618
  Basis Set: (AUG-CC-PVTZ AUX)
    Blend: AUG-CC-PVTZ-RI
    Molecular point group: c1

    Geometry (in Angstrom), charge = 0, multiplicity = 1:

       Center              X                  Y                   Z               Mass
    ------------   -----------------  -----------------  -----------------  -----------------
         O            2.308434511415    -1.332215546512    -0.002099415079    15.994914619570
         O           -2.274607488585    -1.424104546512    -0.002288415079    15.994914619570
         N            1.179883511415     0.691690453488    -0.002102415079    14.003074004430
         N            0.012616511415    -1.309999546512    -0.002191415079    14.003074004430
         C           -1.237401488585     0.730912453488    -0.002182415079    12.000000000000
         C           -0.034652488585     1.355933453488    -0.002122415079    12.000000000000
         C            1.257857511415    -0.694687546512    -0.002126415079    12.000000000000
         C           -1.257020488585    -0.729324546512    -0.002224415079    12.000000000000
         C            2.421614511415     1.460449453488    -0.002033415079    12.000000000000
         C           -2.553203488585     1.441985453488    -0.002214415079    12.000000000000
         H            0.048940511415     2.440159453488    -0.002088415079     1.007825032230
         H            0.043441911415    -2.327370846512     0.297781584921     1.007825032230
         H            2.477288511415     2.087178453488     0.891357584921     1.007825032230
         H            2.477144511415     2.087534453488    -0.895235415079     1.007825032230
         H            3.243945511415     0.748489453488    -0.002209415079     1.007825032230
         H           -3.140277488585     1.161058453488    -0.880753415079     1.007825032230
         H           -2.413042488585     2.526697453488    -0.002180415079     1.007825032230
         H           -3.140343488585     1.161012453488     0.876265584921     1.007825032230

  Basis Set: AUG-CC-PVTZ
    Blend: AUG-CC-PVTZ
  Basis Set: (AUG-CC-PVTZ AUX)
    Blend: AUG-CC-PVTZ-JKFIT
	 Reference Energy          =    -490.7062373446692618 [Eh]
	 Singles Energy            =      -0.0000000000000000 [Eh]
	 Same-Spin Energy          =      -0.5027945083886013 [Eh]
	 Opposite-Spin Energy      =      -1.5423773097661275 [Eh]
	 Correlation Energy        =      -2.0451718181547287 [Eh]
	 Total Energy              =    -492.7514091628240180 [Eh]

	 ================> DF-SCS-MP2 Energies <==================
	-----------------------------------------------------------
	 SCS Same-Spin Scale       =       0.3333333333333333 [-]
	 SCS Opposite-Spin Scale   =       1.2000000000000000 [-]
	 SCS Same-Spin Energy      =      -0.1675981694628671 [Eh]
	 SCS Opposite-Spin Energy  =      -1.8508527717193530 [Eh]
	 SCS Correlation Energy    =      -2.0184509411822202 [Eh]
	 SCS Total Energy          =    -492.7246882858514709 [Eh]
	-----------------------------------------------------------

  Dipole Moment: [D]
     X:     1.0453      Y:     4.5378      Z:     0.3847     Total:     4.6725

*** Psi4 exiting successfully. Buy a developer a beer!
