                               Psi4 1.3.2 release

  ==> Input File <==

--------------------------------------------------------------------------
#psi4
#
memory 32 gb

molecule  {
0 1
  O        2.3111590    -1.3984000     0.0000580
  O       -2.2718830    -1.4902890    -0.0001310
  N        1.1826080     0.6255060     0.0000550
  N        0.0153410    -1.3761840    -0.0000340
  C       -1.2346770     0.6647280    -0.0000250
  C       -0.0319280     1.2897490     0.0000350
  C        1.2605820    -0.7608720     0.0000310
  C       -1.2542960    -0.7955090    -0.0000670
  C        2.4243390     1.3942650     0.0001240
  C       -2.5504696     1.3758077    -0.2500570
  H        0.0516650     2.3739750     0.0000690
  H        0.0461780    -2.3935470    -0.0000610
  H        2.4800130     2.0209940     0.8935150
  H        2.4798690     2.0213500    -0.8930780
  H        3.2466700     0.6823050    -0.0000520
  H       -3.1375530     1.0948740    -0.8785960
  H       -2.4103180     2.4605130    -0.0000230
  H       -3.1376190     1.0948280     0.8784230
units angstrom
no_reorient  #important for SAPT in psi4, default
symmetry c1  #important for SAPT in psi4, default
}

set PROPERTIES_ORIGIN ["COM"]
properties('MP2/aug-cc-pvtz', properties = ['dipole'])
--------------------------------------------------------------------------

    Molecular point group: c1
  Charge       = 0
  Multiplicity = 1
  Basis Set: AUG-CC-PVTZ
    Blend: AUG-CC-PVTZ
  Basis Set: (AUG-CC-PVTZ AUX)
    Blend: AUG-CC-PVTZ-JKFIT

    Orbital Energies [Eh]
    ---------------------

    Doubly Occupied:

       1A    -20.541127     2A    -20.539040     3A    -15.639146
       4A    -15.625177     5A    -11.414314     6A    -11.376759
       7A    -11.325950     8A    -11.286535     9A    -11.264521
      10A    -11.246477    11A     -1.424702    12A     -1.387425
      13A     -1.307535    14A     -1.243496    15A     -1.109015
      16A     -0.994827    17A     -0.968318    18A     -0.916322
      19A     -0.856789    20A     -0.772829    21A     -0.737532
      22A     -0.693496    23A     -0.682835    24A     -0.656826
      25A     -0.643647    26A     -0.634591    27A     -0.613030
      28A     -0.599205    29A     -0.583279    30A     -0.558070
      31A     -0.545676    32A     -0.509406    33A     -0.476186
      34A     -0.472766    35A     -0.444712    36A     -0.430600
      37A     -0.342012

  @DF-RHF Final Energy:  -490.64588677567093

   => Energetics <=

    Nuclear Repulsion Energy =            530.1131657388466465
    One-Electron Energy =               -1719.7897572951576421
    Two-Electron Energy =                 699.0307047806401215
    Total Energy =                       -490.6458867756708742
  Basis Set: (AUG-CC-PVTZ AUX)
    Blend: AUG-CC-PVTZ-RI
    Molecular point group: c1

    Geometry (in Angstrom), charge = 0, multiplicity = 1:

       Center              X                  Y                   Z               Mass
    ------------   -----------------  -----------------  -----------------  -----------------
         O            2.308433622567    -1.332216180282     0.021478915992    15.994914619570
         O           -2.274608377433    -1.424105180282     0.021289915992    15.994914619570
         N            1.179882622567     0.691689819718     0.021475915992    14.003074004430
         N            0.012615622567    -1.310000180282     0.021386915992    14.003074004430
         C           -1.237402377433     0.730911819718     0.021395915992    12.000000000000
         C           -0.034653377433     1.355932819718     0.021455915992    12.000000000000
         C            1.257856622567    -0.694688180282     0.021451915992    12.000000000000
         C           -1.257021377433    -0.729325180282     0.021353915992    12.000000000000
         C            2.421613622567     1.460448819718     0.021544915992    12.000000000000
         C           -2.553194977433     1.441991519718    -0.228636084008    12.000000000000
         H            0.048939622567     2.440158819718     0.021489915992     1.007825032230
         H            0.043452622567    -2.327363180282     0.021359915992     1.007825032230
         H            2.477287622567     2.087177819718     0.914935915992     1.007825032230
         H            2.477143622567     2.087533819718    -0.871657084008     1.007825032230
         H            3.243944622567     0.748488819718     0.021368915992     1.007825032230
         H           -3.140278377433     1.161057819718    -0.857175084008     1.007825032230
         H           -2.413043377433     2.526696819718     0.021397915992     1.007825032230
         H           -3.140344377433     1.161011819718     0.899843915992     1.007825032230

  Basis Set: AUG-CC-PVTZ
    Blend: AUG-CC-PVTZ
  Basis Set: (AUG-CC-PVTZ AUX)
    Blend: AUG-CC-PVTZ-JKFIT
	 Reference Energy          =    -490.6458867756709310 [Eh]
	 Singles Energy            =      -0.0000000000000000 [Eh]
	 Same-Spin Energy          =      -0.5032332092176133 [Eh]
	 Opposite-Spin Energy      =      -1.5444013791905074 [Eh]
	 Correlation Energy        =      -2.0476345884081208 [Eh]
	 Total Energy              =    -492.6935213640790607 [Eh]

	 ================> DF-SCS-MP2 Energies <==================
	-----------------------------------------------------------
	 SCS Same-Spin Scale       =       0.3333333333333333 [-]
	 SCS Opposite-Spin Scale   =       1.2000000000000000 [-]
	 SCS Same-Spin Energy      =      -0.1677444030725377 [Eh]
	 SCS Opposite-Spin Energy  =      -1.8532816550286086 [Eh]
	 SCS Correlation Energy    =      -2.0210260581011465 [Eh]
	 SCS Total Energy          =    -492.6669128337720736 [Eh]
	-----------------------------------------------------------

  Dipole Moment: [D]
     X:     1.1303      Y:     4.4986      Z:    -0.0788     Total:     4.6391

*** Psi4 exiting successfully. Buy a developer a beer!
