                               Psi4 1.3.2 release

  ==> Input File <==

--------------------------------------------------------------------------
#psi4
#
memory 32 gb

molecule  {
0 1
  O        2.3111590    -1.3984000     0.0000580
  O       -2.2718830    -1.4902890    -0.0001310
  N        1.1826080     0.6255060     0.0000550
  N        0.0153410    -1.3761840    -0.0000340
  C       -1.2346770     0.6647280    -0.0000250
  C       -0.0319280     1.2897490     0.0000350
  C        1.2605820    -0.7608720     0.0000310
  C       -1.2542960    -0.7955090    -0.0000670
  C        2.4243284     1.3942578     0.3001240
  C       -2.5504790     1.3758010    -0.0000570
  H        0.0516650     2.3739750     0.0000690
  H        0.0461780    -2.3935470    -0.0000610
  H        2.4800130     2.0209940     0.8935150
  H        2.4798690     2.0213500    -0.8930780
  H        3.2466700     0.6823050    -0.0000520
  H       -3.1375530     1.0948740    -0.8785960
  H       -2.4103180     2.4605130    -0.0000230
  H       -3.1376190     1.0948280     0.8784230
units angstrom
no_reorient  #important for SAPT in psi4, default
symmetry c1  #important for SAPT in psi4, default
}

set PROPERTIES_ORIGIN ["COM"]
properties('MP2/aug-cc-pvtz', properties = ['dipole'])
--------------------------------------------------------------------------

    Molecular point group: c1
  Charge       = 0
  Multiplicity = 1
  Basis Set: AUG-CC-PVTZ
    Blend: AUG-CC-PVTZ
  Basis Set: (AUG-CC-PVTZ AUX)
    Blend: AUG-CC-PVTZ-JKFIT

    Orbital Energies [Eh]
    ---------------------

    Doubly Occupied:

       1A    -20.542741     2A    -20.539985     3A    -15.642930
       4A    -15.626037     5A    -11.415501     6A    -11.377448
       7A    -11.324893     8A    -11.299168     9A    -11.260845
      10A    -11.237757    11A     -1.425475    12A     -1.388355
      13A     -1.306388    14A     -1.243003    15A     -1.109306
      16A     -1.004100    17A     -0.966456    18A     -0.915075
      19A     -0.861523    20A     -0.774376    21A     -0.748151
      22A     -0.699781    23A     -0.684835    24A     -0.667256
      25A     -0.638231    26A     -0.625153    27A     -0.607720
      28A     -0.590901    29A     -0.568399    30A     -0.554633
      31A     -0.546994    32A     -0.523889    33A     -0.476311
      34A     -0.463476    35A     -0.445647    36A     -0.431205
      37A     -0.345832

  @DF-RHF Final Energy:  -490.60994721499065

   => Energetics <=

    Nuclear Repulsion Energy =            529.9344957317973694
    One-Electron Energy =               -1719.3293378160033171
    Two-Electron Energy =                 698.7848948692153499
    Total Energy =                       -490.6099472149905978
  Basis Set: (AUG-CC-PVTZ AUX)
    Blend: AUG-CC-PVTZ-RI
    Molecular point group: c1

    Geometry (in Angstrom), charge = 0, multiplicity = 1:

       Center              X                  Y                   Z               Mass
    ------------   -----------------  -----------------  -----------------  -----------------
         O            2.308435336135    -1.332214989352    -0.025644224322    15.994914619570
         O           -2.274606663865    -1.424103989352    -0.025833224322    15.994914619570
         N            1.179884336135     0.691691010648    -0.025647224322    14.003074004430
         N            0.012617336135    -1.309998989352    -0.025736224322    14.003074004430
         C           -1.237400663865     0.730913010648    -0.025727224322    12.000000000000
         C           -0.034651663865     1.355934010648    -0.025667224322    12.000000000000
         C            1.257858336135    -0.694686989352    -0.025671224322    12.000000000000
         C           -1.257019663865    -0.729323989352    -0.025769224322    12.000000000000
         C            2.421604736135     1.460442810648     0.274421775678    12.000000000000
         C           -2.553202663865     1.441986010648    -0.025759224322    12.000000000000
         H            0.048941336135     2.440160010648    -0.025633224322     1.007825032230
         H            0.043454336135    -2.327361989352    -0.025763224322     1.007825032230
         H            2.477289336135     2.087179010648     0.867812775678     1.007825032230
         H            2.477145336135     2.087535010648    -0.918780224322     1.007825032230
         H            3.243946336135     0.748490010648    -0.025754224322     1.007825032230
         H           -3.140276663865     1.161059010648    -0.904298224322     1.007825032230
         H           -2.413041663865     2.526698010648    -0.025725224322     1.007825032230
         H           -3.140342663865     1.161013010648     0.852720775678     1.007825032230

  Basis Set: AUG-CC-PVTZ
    Blend: AUG-CC-PVTZ
  Basis Set: (AUG-CC-PVTZ AUX)
    Blend: AUG-CC-PVTZ-JKFIT
	 Reference Energy          =    -490.6099472149906546 [Eh]
	 Singles Energy            =      -0.0000000000000000 [Eh]
	 Same-Spin Energy          =      -0.5036219751753276 [Eh]
	 Opposite-Spin Energy      =      -1.5458144660721613 [Eh]
	 Correlation Energy        =      -2.0494364412474888 [Eh]
	 Total Energy              =    -492.6593836562381625 [Eh]

	 ================> DF-SCS-MP2 Energies <==================
	-----------------------------------------------------------
	 SCS Same-Spin Scale       =       0.3333333333333333 [-]
	 SCS Opposite-Spin Scale   =       1.2000000000000000 [-]
	 SCS Same-Spin Energy      =      -0.1678739917251092 [Eh]
	 SCS Opposite-Spin Energy  =      -1.8549773592865935 [Eh]
	 SCS Correlation Energy    =      -2.0228513510117025 [Eh]
	 SCS Total Energy          =    -492.6327985660023501 [Eh]
	-----------------------------------------------------------

  Dipole Moment: [D]
     X:     0.9292      Y:     4.3479      Z:     0.3007     Total:     4.4562

*** Psi4 exiting successfully. Buy a developer a beer!
