                               Psi4 1.3.2 release

  ==> Input File <==

--------------------------------------------------------------------------
#psi4
#
memory 32 gb

molecule  {
0 1
  O        2.3111590    -1.3984000     0.0000580
  O       -2.2718830    -1.4902890    -0.0001310
  N        1.1826080     0.6255060     0.0000550
  N        0.0153410    -1.3761840    -0.0000340
  C       -1.2346770     0.6647280    -0.0000250
  C       -0.0319280     1.2897490     0.0000350
  C        1.2605820    -0.7608720     0.0000310
  C       -1.2542960    -0.7955090    -0.0000670
  C        2.4243390     1.3942650     0.0001240
  C       -2.5504790     1.3758010    -0.0000570
  H        0.0516650     2.3739750     0.0000690
  H        0.0461722    -2.3935511     0.1499390
  H        2.4800130     2.0209940     0.8935150
  H        2.4798690     2.0213500    -0.8930780
  H        3.2466700     0.6823050    -0.0000520
  H       -3.1375530     1.0948740    -0.8785960
  H       -2.4103180     2.4605130    -0.0000230
  H       -3.1376190     1.0948280     0.8784230
units angstrom
no_reorient  #important for SAPT in psi4, default
symmetry c1  #important for SAPT in psi4, default
}

set PROPERTIES_ORIGIN ["COM"]
properties('MP2/aug-cc-pvtz', properties = ['dipole'])
--------------------------------------------------------------------------

    Molecular point group: c1
  Charge       = 0
  Multiplicity = 1
  Basis Set: AUG-CC-PVTZ
    Blend: AUG-CC-PVTZ
  Basis Set: (AUG-CC-PVTZ AUX)
    Blend: AUG-CC-PVTZ-JKFIT

    Orbital Energies [Eh]
    ---------------------

    Doubly Occupied:

       1A    -20.540555     2A    -20.538643     3A    -15.638142
       4A    -15.625109     5A    -11.413595     6A    -11.376096
       7A    -11.324962     8A    -11.285937     9A    -11.259607
      10A    -11.237102    11A     -1.423914    12A     -1.386958
      13A     -1.306746    14A     -1.241900    15A     -1.108901
      16A     -0.993015    17A     -0.963731    18A     -0.913370
      19A     -0.852539    20A     -0.770365    21A     -0.732897
      22A     -0.692304    23A     -0.681590    24A     -0.649207
      25A     -0.637778    26A     -0.616159    27A     -0.608776
      28A     -0.588719    29A     -0.583905    30A     -0.555137
      31A     -0.548042    32A     -0.542994    33A     -0.487941
      34A     -0.475289    35A     -0.444372    36A     -0.430540
      37A     -0.345879

  @DF-RHF Final Energy:  -490.71076323757245

   => Energetics <=

    Nuclear Repulsion Energy =            530.3205620964325817
    One-Electron Energy =               -1720.4172178401090605
    Two-Electron Energy =                 699.3858925061039145
    Total Energy =                       -490.7107632375724506
  Basis Set: (AUG-CC-PVTZ AUX)
    Blend: AUG-CC-PVTZ-RI
    Molecular point group: c1

    Geometry (in Angstrom), charge = 0, multiplicity = 1:

       Center              X                  Y                   Z               Mass
    ------------   -----------------  -----------------  -----------------  -----------------
         O            2.308434469679    -1.332215576734    -0.001020054160    15.994914619570
         O           -2.274607530321    -1.424104576734    -0.001209054160    15.994914619570
         N            1.179883469679     0.691690423266    -0.001023054160    14.003074004430
         N            0.012616469679    -1.309999576734    -0.001112054160    14.003074004430
         C           -1.237401530321     0.730912423266    -0.001103054160    12.000000000000
         C           -0.034652530321     1.355933423266    -0.001043054160    12.000000000000
         C            1.257857469679    -0.694687576734    -0.001047054160    12.000000000000
         C           -1.257020530321    -0.729324576734    -0.001145054160    12.000000000000
         C            2.421614469679     1.460449423266    -0.000954054160    12.000000000000
         C           -2.553203530321     1.441985423266    -0.001135054160    12.000000000000
         H            0.048940469679     2.440159423266    -0.001009054160     1.007825032230
         H            0.043447669679    -2.327366676734     0.148860945840     1.007825032230
         H            2.477288469679     2.087178423266     0.892436945840     1.007825032230
         H            2.477144469679     2.087534423266    -0.894156054160     1.007825032230
         H            3.243945469679     0.748489423266    -0.001130054160     1.007825032230
         H           -3.140277530321     1.161058423266    -0.879674054160     1.007825032230
         H           -2.413042530321     2.526697423266    -0.001101054160     1.007825032230
         H           -3.140343530321     1.161012423266     0.877344945840     1.007825032230

  Basis Set: AUG-CC-PVTZ
    Blend: AUG-CC-PVTZ
  Basis Set: (AUG-CC-PVTZ AUX)
    Blend: AUG-CC-PVTZ-JKFIT
	 Reference Energy          =    -490.7107632375724506 [Eh]
	 Singles Energy            =      -0.0000000000000000 [Eh]
	 Same-Spin Energy          =      -0.5024902963980190 [Eh]
	 Opposite-Spin Energy      =      -1.5416824299515317 [Eh]
	 Correlation Energy        =      -2.0441727263495508 [Eh]
	 Total Energy              =    -492.7549359639219801 [Eh]

	 ================> DF-SCS-MP2 Energies <==================
	-----------------------------------------------------------
	 SCS Same-Spin Scale       =       0.3333333333333333 [-]
	 SCS Opposite-Spin Scale   =       1.2000000000000000 [-]
	 SCS Same-Spin Energy      =      -0.1674967654660063 [Eh]
	 SCS Opposite-Spin Energy  =      -1.8500189159418379 [Eh]
	 SCS Correlation Energy    =      -2.0175156814078443 [Eh]
	 SCS Total Energy          =    -492.7282789189803225 [Eh]
	-----------------------------------------------------------

  Dipole Moment: [D]
     X:     1.0474      Y:     4.5263      Z:     0.1933     Total:     4.6499

*** Psi4 exiting successfully. Buy a developer a beer!
