                               Psi4 1.4a3.dev225

  ==> Input File <==

--------------------------------------------------------------------------
#psi4
#
memory 32 gb

molecule  {
0 1
  S        1.9015010     0.0014740    -0.5114990
  O        0.2966630    -0.0047940     1.6103990
  C       -0.8837990     0.0013960    -0.4908930
  C       -1.6918460     1.2669440    -0.1967440
  C       -1.6921440    -1.2655900    -0.2038620
  C        0.3503050    -0.0012110     0.3916140
  H       -0.5708550     0.0043180    -1.5417560
  H       -2.6269492     1.1839501    -0.7579524
  H       -1.1130310     2.1686550    -0.4169050
  H       -1.9752560     1.2862630     0.8584890
  H       -2.5999060    -1.2788960    -0.8138230
  H       -1.1135430    -2.1661840    -0.4290990
  H       -1.9755470    -1.2907820     0.8512470
  H        2.6553200    -0.0017420     0.5985790
units angstrom
no_reorient  #important for SAPT in psi4, default
symmetry c1  #important for SAPT in psi4, default
}

set PROPERTIES_ORIGIN ["COM"]
properties('MP2/aug-cc-pvtz', properties = ['dipole'])
--------------------------------------------------------------------------

    Molecular point group: c1
  Charge       = 0
  Multiplicity = 1
  Basis Set: AUG-CC-PVTZ
    Blend: AUG-CC-PVTZ
  Basis Set: (AUG-CC-PVTZ AUX)
    Blend: AUG-CC-PVTZ-JKFIT

    Orbital Energies [Eh]
    ---------------------

    Doubly Occupied:

       1A    -91.982229     2A    -20.560072     3A    -11.369054
       4A    -11.257320     5A    -11.230688     6A    -11.230606
       7A     -8.984233     8A     -6.665405     9A     -6.664312
      10A     -6.663523    11A     -1.397895    12A     -1.103932
      13A     -1.019783    14A     -0.946676    15A     -0.866520
      16A     -0.733835    17A     -0.668922    18A     -0.646318
      19A     -0.604476    20A     -0.597078    21A     -0.559729
      22A     -0.553126    23A     -0.531309    24A     -0.516060
      25A     -0.493057    26A     -0.489548    27A     -0.408681
      28A     -0.394010

  @DF-RHF Final Energy:  -628.63003033531845

   => Energetics <=

    Nuclear Repulsion Energy =            295.0820280519698713
    One-Electron Energy =               -1449.1473192655600997
    Two-Electron Energy =                 525.4352608782717198
    Total Energy =                       -628.6300303353184518
  Basis Set: (AUG-CC-PVTZ AUX)
    Blend: AUG-CC-PVTZ-RI
    Molecular point group: c1

    Geometry (in Angstrom), charge = 0, multiplicity = 1:

       Center              X                  Y                   Z               Mass
    ------------   -----------------  -----------------  -----------------  -----------------
         S            1.813665199301     0.002495262459    -0.528241841033    31.972071174400
         O            0.208827199301    -0.003772737541     1.593656158967    15.994914619570
         C           -0.971634800699     0.002417262459    -0.507635841033    12.000000000000
         C           -1.779681800699     1.267965262459    -0.213486841033    12.000000000000
         C           -1.779979800699    -1.264568737541    -0.220604841033    12.000000000000
         C            0.262469199301    -0.000189737541     0.374871158967    12.000000000000
         H           -0.658690800699     0.005339262459    -1.558498841033     1.007825032230
         H           -2.714785000699     1.184971362459    -0.774695241033     1.007825032230
         H           -1.200866800699     2.169676262459    -0.433647841033     1.007825032230
         H           -2.063091800699     1.287284262459     0.841746158967     1.007825032230
         H           -2.687741800699    -1.277874737541    -0.830565841033     1.007825032230
         H           -1.201378800699    -2.165162737541    -0.445841841033     1.007825032230
         H           -2.063382800699    -1.289760737541     0.834504158967     1.007825032230
         H            2.567484199301    -0.000720737541     0.581836158967     1.007825032230

  Basis Set: AUG-CC-PVTZ
    Blend: AUG-CC-PVTZ
  Basis Set: (AUG-CC-PVTZ AUX)
    Blend: AUG-CC-PVTZ-JKFIT
	 Reference Energy          =    -628.6300303353184518 [Eh]
	 Singles Energy            =      -0.0000000000000000 [Eh]
	 Same-Spin Energy          =      -0.2913738697466471 [Eh]
	 Opposite-Spin Energy      =      -0.9557625875994260 [Eh]
	 Correlation Energy        =      -1.2471364573460733 [Eh]
	 Total Energy              =    -629.8771667926645250 [Eh]

	 ================> DF-SCS-MP2 Energies <==================
	-----------------------------------------------------------
	 SCS Same-Spin Scale       =       0.3333333333333333 [-]
	 SCS Opposite-Spin Scale   =       1.2000000000000000 [-]
	 SCS Same-Spin Energy      =      -0.0971246232488824 [Eh]
	 SCS Opposite-Spin Energy  =      -1.1469151051193112 [Eh]
	 SCS Correlation Energy    =      -1.2440397283681934 [Eh]
	 SCS Total Energy          =    -629.8740700636866450 [Eh]
	-----------------------------------------------------------

  Dipole Moment: [D]
     X:    -0.6488      Y:    -0.0226      Z:    -1.5733     Total:     1.7020

*** Psi4 exiting successfully. Buy a developer a beer!
