                               Psi4 1.4a3.dev225

  ==> Input File <==

--------------------------------------------------------------------------
#psi4
#
memory 32 gb

molecule  {
0 1
  S        1.9015010     0.0014740    -0.5114990
  O        0.2966630    -0.0047940     1.6103990
  C       -0.8474267    -0.0148798    -0.4553350
  C       -1.6918460     1.2669440    -0.1967440
  C       -1.6921440    -1.2655900    -0.2038620
  C        0.3503050    -0.0012110     0.3916140
  H       -0.5708550     0.0043180    -1.5417560
  H       -2.5996000     1.2838970    -0.8066260
  H       -1.1130310     2.1686550    -0.4169050
  H       -1.9752560     1.2862630     0.8584890
  H       -2.5999060    -1.2788960    -0.8138230
  H       -1.1135430    -2.1661840    -0.4290990
  H       -1.9755470    -1.2907820     0.8512470
  H        2.6553200    -0.0017420     0.5985790
units angstrom
no_reorient  #important for SAPT in psi4, default
symmetry c1  #important for SAPT in psi4, default
}

set PROPERTIES_ORIGIN ["COM"]
properties('MP2/aug-cc-pvtz', properties = ['dipole'])
--------------------------------------------------------------------------

    Molecular point group: c1
  Charge       = 0
  Multiplicity = 1
  Basis Set: AUG-CC-PVTZ
    Blend: AUG-CC-PVTZ
  Basis Set: (AUG-CC-PVTZ AUX)
    Blend: AUG-CC-PVTZ-JKFIT

    Orbital Energies [Eh]
    ---------------------

    Doubly Occupied:

       1A    -91.982739     2A    -20.559876     3A    -11.368255
       4A    -11.257657     5A    -11.232585     6A    -11.231257
       7A     -8.984713     8A     -6.665880     9A     -6.664787
      10A     -6.663994    11A     -1.399440    12A     -1.105361
      13A     -1.019886    14A     -0.945383    15A     -0.875759
      16A     -0.730637    17A     -0.672042    18A     -0.645895
      19A     -0.602000    20A     -0.598418    21A     -0.559957
      22A     -0.554008    23A     -0.529479    24A     -0.522248
      25A     -0.488055    26A     -0.481003    27A     -0.414400
      28A     -0.394327

  @DF-RHF Final Energy:  -628.62816857670794

   => Energetics <=

    Nuclear Repulsion Energy =            295.5535066884726803
    One-Electron Energy =               -1450.0632679409452521
    Two-Electron Energy =                 525.8815926757646366
    Total Energy =                       -628.6281685767079352
  Basis Set: (AUG-CC-PVTZ AUX)
    Blend: AUG-CC-PVTZ-RI
    Molecular point group: c1

    Geometry (in Angstrom), charge = 0, multiplicity = 1:

       Center              X                  Y                   Z               Mass
    ------------   -----------------  -----------------  -----------------  -----------------
         S            1.809204633552     0.003404432782    -0.531871976861    31.972071174400
         O            0.204366633552    -0.002863567218     1.590026023139    15.994914619570
         C           -0.939723066448    -0.012949367218    -0.475707976861    12.000000000000
         C           -1.784142366448     1.268874432782    -0.217116976861    12.000000000000
         C           -1.784440366448    -1.263659567218    -0.224234976861    12.000000000000
         C            0.258008633552     0.000719432782     0.371241023139    12.000000000000
         H           -0.663151366448     0.006248432782    -1.562128976861     1.007825032230
         H           -2.691896366448     1.285827432782    -0.826998976861     1.007825032230
         H           -1.205327366448     2.170585432782    -0.437277976861     1.007825032230
         H           -2.067552366448     1.288193432782     0.838116023139     1.007825032230
         H           -2.692202366448    -1.276965567218    -0.834195976861     1.007825032230
         H           -1.205839366448    -2.164253567218    -0.449471976861     1.007825032230
         H           -2.067843366448    -1.288851567218     0.830874023139     1.007825032230
         H            2.563023633552     0.000188432782     0.578206023139     1.007825032230

  Basis Set: AUG-CC-PVTZ
    Blend: AUG-CC-PVTZ
  Basis Set: (AUG-CC-PVTZ AUX)
    Blend: AUG-CC-PVTZ-JKFIT
	 Reference Energy          =    -628.6281685767079352 [Eh]
	 Singles Energy            =      -0.0000000000000000 [Eh]
	 Same-Spin Energy          =      -0.2914978438140488 [Eh]
	 Opposite-Spin Energy      =      -0.9560841086263354 [Eh]
	 Correlation Energy        =      -1.2475819524403842 [Eh]
	 Total Energy              =    -629.8757505291482630 [Eh]

	 ================> DF-SCS-MP2 Energies <==================
	-----------------------------------------------------------
	 SCS Same-Spin Scale       =       0.3333333333333333 [-]
	 SCS Opposite-Spin Scale   =       1.2000000000000000 [-]
	 SCS Same-Spin Energy      =      -0.0971659479380163 [Eh]
	 SCS Opposite-Spin Energy  =      -1.1473009303516024 [Eh]
	 SCS Correlation Energy    =      -1.2444668782896187 [Eh]
	 SCS Total Energy          =    -629.8726354549975213 [Eh]
	-----------------------------------------------------------

  Dipole Moment: [D]
     X:    -0.6837      Y:    -0.0015      Z:    -1.6184     Total:     1.7569

*** Psi4 exiting successfully. Buy a developer a beer!
