                               Psi4 1.4a3.dev225

  ==> Input File <==

--------------------------------------------------------------------------
#psi4
#
memory 32 gb

molecule  {
0 1
  S        1.9015010     0.0014740    -0.5114990
  O        0.1695586    -0.0047566     1.5981153
  C       -0.8837990     0.0013960    -0.4908930
  C       -1.6918460     1.2669440    -0.1967440
  C       -1.6921440    -1.2655900    -0.2038620
  C        0.3503050    -0.0012110     0.3916140
  H       -0.5708550     0.0043180    -1.5417560
  H       -2.5996000     1.2838970    -0.8066260
  H       -1.1130310     2.1686550    -0.4169050
  H       -1.9752560     1.2862630     0.8584890
  H       -2.5999060    -1.2788960    -0.8138230
  H       -1.1135430    -2.1661840    -0.4290990
  H       -1.9755470    -1.2907820     0.8512470
  H        2.6553200    -0.0017420     0.5985790
units angstrom
no_reorient  #important for SAPT in psi4, default
symmetry c1  #important for SAPT in psi4, default
}

set PROPERTIES_ORIGIN ["COM"]
properties('MP2/aug-cc-pvtz', properties = ['dipole'])
--------------------------------------------------------------------------

    Molecular point group: c1
  Charge       = 0
  Multiplicity = 1
  Basis Set: AUG-CC-PVTZ
    Blend: AUG-CC-PVTZ
  Basis Set: (AUG-CC-PVTZ AUX)
    Blend: AUG-CC-PVTZ-JKFIT

    Orbital Energies [Eh]
    ---------------------

    Doubly Occupied:

       1A    -91.989885     2A    -20.559528     3A    -11.368260
       4A    -11.252280     5A    -11.226590     6A    -11.226574
       7A     -8.991499     8A     -6.672667     9A     -6.671505
      10A     -6.670722    11A     -1.398091    12A     -1.098564
      13A     -1.024600    14A     -0.943382    15A     -0.863613
      16A     -0.731009    17A     -0.670584    18A     -0.645202
      19A     -0.599903    20A     -0.596737    21A     -0.555429
      22A     -0.553019    23A     -0.525594    24A     -0.516656
      25A     -0.489399    26A     -0.486442    27A     -0.410601
      28A     -0.399690

  @DF-RHF Final Energy:  -628.62770332336402

   => Energetics <=

    Nuclear Repulsion Energy =            295.3746843374722175
    One-Electron Energy =               -1449.7287176477634603
    Two-Electron Energy =                 525.7263299869272259
    Total Energy =                       -628.6277033233640168
  Basis Set: (AUG-CC-PVTZ AUX)
    Blend: AUG-CC-PVTZ-RI
    Molecular point group: c1

    Geometry (in Angstrom), charge = 0, multiplicity = 1:

       Center              X                  Y                   Z               Mass
    ------------   -----------------  -----------------  -----------------  -----------------
         S            1.832942992220     0.001521239574    -0.525881635494    31.972071174400
         O            0.101000592220    -0.004709360426     1.583732664506    15.994914619570
         C           -0.952357007780     0.001443239574    -0.505275635494    12.000000000000
         C           -1.760404007780     1.266991239574    -0.211126635494    12.000000000000
         C           -1.760702007780    -1.265542760426    -0.218244635494    12.000000000000
         C            0.281746992220    -0.001163760426     0.377231364506    12.000000000000
         H           -0.639413007780     0.004365239574    -1.556138635494     1.007825032230
         H           -2.668158007780     1.283944239574    -0.821008635494     1.007825032230
         H           -1.181589007780     2.168702239574    -0.431287635494     1.007825032230
         H           -2.043814007780     1.286310239574     0.844106364506     1.007825032230
         H           -2.668464007780    -1.278848760426    -0.828205635494     1.007825032230
         H           -1.182101007780    -2.166136760426    -0.443481635494     1.007825032230
         H           -2.044105007780    -1.290734760426     0.836864364506     1.007825032230
         H            2.586761992220    -0.001694760426     0.584196364506     1.007825032230

  Basis Set: AUG-CC-PVTZ
    Blend: AUG-CC-PVTZ
  Basis Set: (AUG-CC-PVTZ AUX)
    Blend: AUG-CC-PVTZ-JKFIT
	 Reference Energy          =    -628.6277033233640168 [Eh]
	 Singles Energy            =      -0.0000000000000000 [Eh]
	 Same-Spin Energy          =      -0.2915948890850523 [Eh]
	 Opposite-Spin Energy      =      -0.9563085789168397 [Eh]
	 Correlation Energy        =      -1.2479034680018919 [Eh]
	 Total Energy              =    -629.8756067913659535 [Eh]

	 ================> DF-SCS-MP2 Energies <==================
	-----------------------------------------------------------
	 SCS Same-Spin Scale       =       0.3333333333333333 [-]
	 SCS Opposite-Spin Scale   =       1.2000000000000000 [-]
	 SCS Same-Spin Energy      =      -0.0971982963616841 [Eh]
	 SCS Opposite-Spin Energy  =      -1.1475702947002075 [Eh]
	 SCS Correlation Energy    =      -1.2447685910618915 [Eh]
	 SCS Total Energy          =    -629.8724719144258870 [Eh]
	-----------------------------------------------------------

  Dipole Moment: [D]
     X:    -0.2358      Y:     0.0048      Z:    -1.5946     Total:     1.6120

*** Psi4 exiting successfully. Buy a developer a beer!
