                               Psi4 1.4a3.dev225

  ==> Input File <==

--------------------------------------------------------------------------
#psi4
#
memory 32 gb

molecule  {
0 1
  S        1.9015010     0.0014740    -0.5114990
  O        0.2966630    -0.0047940     1.6103990
  C       -0.8837990     0.0013960    -0.4908930
  C       -1.6918460     1.2669440    -0.1967440
  C       -1.6921440    -1.2655900    -0.2038620
  C        0.3503050    -0.0012110     0.3916140
  H       -0.5708550     0.0043180    -1.5417560
  H       -2.5996000     1.2838970    -0.8066260
  H       -1.1130310     2.1686550    -0.4169050
  H       -1.9752560     1.2862630     0.8584890
  H       -2.5999060    -1.2788960    -0.8138230
  H       -1.1241218    -2.1497180    -0.4249809
  H       -1.9755470    -1.2907820     0.8512470
  H        2.6553200    -0.0017420     0.5985790
units angstrom
no_reorient  #important for SAPT in psi4, default
symmetry c1  #important for SAPT in psi4, default
}

set PROPERTIES_ORIGIN ["COM"]
properties('MP2/aug-cc-pvtz', properties = ['dipole'])
--------------------------------------------------------------------------

    Molecular point group: c1
  Charge       = 0
  Multiplicity = 1
  Basis Set: AUG-CC-PVTZ
    Blend: AUG-CC-PVTZ
  Basis Set: (AUG-CC-PVTZ AUX)
    Blend: AUG-CC-PVTZ-JKFIT

    Orbital Energies [Eh]
    ---------------------

    Doubly Occupied:

       1A    -91.982461     2A    -20.560429     3A    -11.369504
       4A    -11.257690     5A    -11.230182     6A    -11.227896
       7A     -8.984455     8A     -6.665626     9A     -6.664535
      10A     -6.663744    11A     -1.398224    12A     -1.103602
      13A     -1.019826    14A     -0.948201    15A     -0.866834
      16A     -0.734103    17A     -0.670199    18A     -0.646143
      19A     -0.602232    20A     -0.598270    21A     -0.558800
      22A     -0.555845    23A     -0.529965    24A     -0.516924
      25A     -0.493005    26A     -0.491259    27A     -0.409137
      28A     -0.394169

  @DF-RHF Final Energy:  -628.63138456891659

   => Energetics <=

    Nuclear Repulsion Energy =            295.0648829608700225
    One-Electron Energy =               -1449.1060116618725715
    Two-Electron Energy =                 525.4097441320858479
    Total Energy =                       -628.6313845689165873
  Basis Set: (AUG-CC-PVTZ AUX)
    Blend: AUG-CC-PVTZ-RI
    Molecular point group: c1

    Geometry (in Angstrom), charge = 0, multiplicity = 1:

       Center              X                  Y                   Z               Mass
    ------------   -----------------  -----------------  -----------------  -----------------
         S            1.813502729858     0.001367469500    -0.527810193172    31.972071174400
         O            0.208664729858    -0.004900530500     1.594087806828    15.994914619570
         C           -0.971797270142     0.001289469500    -0.507204193172    12.000000000000
         C           -1.779844270142     1.266837469500    -0.213055193172    12.000000000000
         C           -1.780142270142    -1.265696530500    -0.220173193172    12.000000000000
         C            0.262306729858    -0.001317530500     0.375302806828    12.000000000000
         H           -0.658853270142     0.004211469500    -1.558067193172     1.007825032230
         H           -2.687598270142     1.283790469500    -0.822937193172     1.007825032230
         H           -1.201029270142     2.168548469500    -0.433216193172     1.007825032230
         H           -2.063254270142     1.286156469500     0.842177806828     1.007825032230
         H           -2.687904270142    -1.279002530500    -0.830134193172     1.007825032230
         H           -1.212120070142    -2.149824530500    -0.441292093172     1.007825032230
         H           -2.063545270142    -1.290888530500     0.834935806828     1.007825032230
         H            2.567321729858    -0.001848530500     0.582267806828     1.007825032230

  Basis Set: AUG-CC-PVTZ
    Blend: AUG-CC-PVTZ
  Basis Set: (AUG-CC-PVTZ AUX)
    Blend: AUG-CC-PVTZ-JKFIT
	 Reference Energy          =    -628.6313845689165873 [Eh]
	 Singles Energy            =      -0.0000000000000000 [Eh]
	 Same-Spin Energy          =      -0.2912368114530226 [Eh]
	 Opposite-Spin Energy      =      -0.9554433729286419 [Eh]
	 Correlation Energy        =      -1.2466801843816646 [Eh]
	 Total Energy              =    -629.8780647532983039 [Eh]

	 ================> DF-SCS-MP2 Energies <==================
	-----------------------------------------------------------
	 SCS Same-Spin Scale       =       0.3333333333333333 [-]
	 SCS Opposite-Spin Scale   =       1.2000000000000000 [-]
	 SCS Same-Spin Energy      =      -0.0970789371510075 [Eh]
	 SCS Opposite-Spin Energy  =      -1.1465320475143703 [Eh]
	 SCS Correlation Energy    =      -1.2436109846653778 [Eh]
	 SCS Total Energy          =    -629.8749955535819254 [Eh]
	-----------------------------------------------------------

  Dipole Moment: [D]
     X:    -0.6350      Y:    -0.0061      Z:    -1.5991     Total:     1.7206

*** Psi4 exiting successfully. Buy a developer a beer!
