                               Psi4 1.4a3.dev225

  ==> Input File <==

--------------------------------------------------------------------------
#psi4
#
memory 32 gb

molecule  {
0 1
  S        1.9015010     0.0014740    -0.5114990
  O        0.2966630    -0.0047940     1.6103990
  C       -0.8837990     0.0013960    -0.4908930
  C       -1.6918460     1.2669440    -0.1967440
  C       -1.6921440    -1.2655900    -0.2038620
  C        0.3590990    -0.0006236     0.1918083
  H       -0.5708550     0.0043180    -1.5417560
  H       -2.5996000     1.2838970    -0.8066260
  H       -1.1130310     2.1686550    -0.4169050
  H       -1.9752560     1.2862630     0.8584890
  H       -2.5999060    -1.2788960    -0.8138230
  H       -1.1135430    -2.1661840    -0.4290990
  H       -1.9755470    -1.2907820     0.8512470
  H        2.6553200    -0.0017420     0.5985790
units angstrom
no_reorient  #important for SAPT in psi4, default
symmetry c1  #important for SAPT in psi4, default
}

set PROPERTIES_ORIGIN ["COM"]
properties('MP2/aug-cc-pvtz', properties = ['dipole'])
--------------------------------------------------------------------------

    Molecular point group: c1
  Charge       = 0
  Multiplicity = 1
  Basis Set: AUG-CC-PVTZ
    Blend: AUG-CC-PVTZ
  Basis Set: (AUG-CC-PVTZ AUX)
    Blend: AUG-CC-PVTZ-JKFIT

    Orbital Energies [Eh]
    ---------------------

    Doubly Occupied:

       1A    -92.004750     2A    -20.529453     3A    -11.377653
       4A    -11.258061     5A    -11.233790     6A    -11.233774
       7A     -9.007511     8A     -6.688805     9A     -6.687755
      10A     -6.687061    11A     -1.280065    12A     -1.117774
      13A     -1.050748    14A     -0.948861    15A     -0.894705
      16A     -0.729739    17A     -0.676050    18A     -0.623220
      19A     -0.594703    20A     -0.593028    21A     -0.552145
      22A     -0.537844    23A     -0.515382    24A     -0.514302
      25A     -0.479512    26A     -0.470062    27A     -0.415697
      28A     -0.386340

  @DF-RHF Final Energy:  -628.56536622604449

   => Energetics <=

    Nuclear Repulsion Energy =            294.9483768180237462
    One-Electron Energy =               -1448.8499030056839274
    Two-Electron Energy =                 525.3361599616157491
    Total Energy =                       -628.5653662260444889
  Basis Set: (AUG-CC-PVTZ AUX)
    Blend: AUG-CC-PVTZ-RI
    Molecular point group: c1

    Geometry (in Angstrom), charge = 0, multiplicity = 1:

       Center              X                  Y                   Z               Mass
    ------------   -----------------  -----------------  -----------------  -----------------
         S            1.812385840097     0.001459232309    -0.504722350421    31.972071174400
         O            0.207547840097    -0.004808767691     1.617175649579    15.994914619570
         C           -0.972914159903     0.001381232309    -0.484116350421    12.000000000000
         C           -1.780961159903     1.266929232309    -0.189967350421    12.000000000000
         C           -1.781259159903    -1.265604767691    -0.197085350421    12.000000000000
         C            0.269983840097    -0.000638367691     0.198584949579    12.000000000000
         H           -0.659970159903     0.004303232309    -1.534979350421     1.007825032230
         H           -2.688715159903     1.283882232309    -0.799849350421     1.007825032230
         H           -1.202146159903     2.168640232309    -0.410128350421     1.007825032230
         H           -2.064371159903     1.286248232309     0.865265649579     1.007825032230
         H           -2.689021159903    -1.278910767691    -0.807046350421     1.007825032230
         H           -1.202658159903    -2.166198767691    -0.422322350421     1.007825032230
         H           -2.064662159903    -1.290796767691     0.858023649579     1.007825032230
         H            2.566204840097    -0.001756767691     0.605355649579     1.007825032230

  Basis Set: AUG-CC-PVTZ
    Blend: AUG-CC-PVTZ
  Basis Set: (AUG-CC-PVTZ AUX)
    Blend: AUG-CC-PVTZ-JKFIT
	 Reference Energy          =    -628.5653662260444889 [Eh]
	 Singles Energy            =      -0.0000000000000000 [Eh]
	 Same-Spin Energy          =      -0.2975903999315224 [Eh]
	 Opposite-Spin Energy      =      -0.9678301889916658 [Eh]
	 Correlation Energy        =      -1.2654205889231882 [Eh]
	 Total Energy              =    -629.8307868149677233 [Eh]

	 ================> DF-SCS-MP2 Energies <==================
	-----------------------------------------------------------
	 SCS Same-Spin Scale       =       0.3333333333333333 [-]
	 SCS Opposite-Spin Scale   =       1.2000000000000000 [-]
	 SCS Same-Spin Energy      =      -0.0991967999771741 [Eh]
	 SCS Opposite-Spin Energy  =      -1.1613962267899989 [Eh]
	 SCS Correlation Energy    =      -1.2605930267671730 [Eh]
	 SCS Total Energy          =    -629.8259592528116855 [Eh]
	-----------------------------------------------------------

  Dipole Moment: [D]
     X:    -0.0732      Y:     0.0071      Z:    -2.3781     Total:     2.3792

*** Psi4 exiting successfully. Buy a developer a beer!
