                               Psi4 1.4a3.dev225

  ==> Input File <==

--------------------------------------------------------------------------
#psi4
#
memory 32 gb

molecule  {
0 1
  S        1.9015010     0.0014740    -0.5114990
  O        0.2966630    -0.0047940     1.6103990
  C       -0.8888998    -0.0126512    -0.4396202
  C       -1.6918460     1.2669440    -0.1967440
  C       -1.6921440    -1.2655900    -0.2038620
  C        0.3503050    -0.0012110     0.3916140
  H       -0.5708550     0.0043180    -1.5417560
  H       -2.5996000     1.2838970    -0.8066260
  H       -1.1130310     2.1686550    -0.4169050
  H       -1.9752560     1.2862630     0.8584890
  H       -2.5999060    -1.2788960    -0.8138230
  H       -1.1135430    -2.1661840    -0.4290990
  H       -1.9755470    -1.2907820     0.8512470
  H        2.6553200    -0.0017420     0.5985790
units angstrom
no_reorient  #important for SAPT in psi4, default
symmetry c1  #important for SAPT in psi4, default
}

set PROPERTIES_ORIGIN ["COM"]
properties('MP2/aug-cc-pvtz', properties = ['dipole'])
--------------------------------------------------------------------------

    Molecular point group: c1
  Charge       = 0
  Multiplicity = 1
  Basis Set: AUG-CC-PVTZ
    Blend: AUG-CC-PVTZ
  Basis Set: (AUG-CC-PVTZ AUX)
    Blend: AUG-CC-PVTZ-JKFIT

    Orbital Energies [Eh]
    ---------------------

    Doubly Occupied:

       1A    -91.983857     2A    -20.559844     3A    -11.368451
       4A    -11.259100     5A    -11.230862     6A    -11.229667
       7A     -8.985709     8A     -6.666869     9A     -6.665803
      10A     -6.664997    11A     -1.399203    12A     -1.106309
      13A     -1.020998    14A     -0.949310    15A     -0.869909
      16A     -0.727797    17A     -0.671060    18A     -0.646869
      19A     -0.602022    20A     -0.601324    21A     -0.560346
      22A     -0.554417    23A     -0.529645    24A     -0.518812
      25A     -0.495893    26A     -0.477672    27A     -0.412512
      28A     -0.394696

  @DF-RHF Final Energy:  -628.62779330058186

   => Energetics <=

    Nuclear Repulsion Energy =            295.4476823921282289
    One-Electron Energy =               -1449.8430453665821460
    Two-Electron Energy =                 525.7675696738721172
    Total Energy =                       -628.6277933005818568
  Basis Set: (AUG-CC-PVTZ AUX)
    Blend: AUG-CC-PVTZ-RI
    Molecular point group: c1

    Geometry (in Angstrom), charge = 0, multiplicity = 1:

       Center              X                  Y                   Z               Mass
    ------------   -----------------  -----------------  -----------------  -----------------
         S            1.813988630287     0.003147359760    -0.533684707327    31.972071174400
         O            0.209150630287    -0.003120640240     1.588213292673    15.994914619570
         C           -0.976412169713    -0.010977840240    -0.461805907327    12.000000000000
         C           -1.779358369713     1.268617359760    -0.218929707327    12.000000000000
         C           -1.779656369713    -1.263916640240    -0.226047707327    12.000000000000
         C            0.262792630287     0.000462359760     0.369428292673    12.000000000000
         H           -0.658367369713     0.005991359760    -1.563941707327     1.007825032230
         H           -2.687112369713     1.285570359760    -0.828811707327     1.007825032230
         H           -1.200543369713     2.170328359760    -0.439090707327     1.007825032230
         H           -2.062768369713     1.287936359760     0.836303292673     1.007825032230
         H           -2.687418369713    -1.277222640240    -0.836008707327     1.007825032230
         H           -1.201055369713    -2.164510640240    -0.451284707327     1.007825032230
         H           -2.063059369713    -1.289108640240     0.829061292673     1.007825032230
         H            2.567807630287    -0.000068640240     0.576393292673     1.007825032230

  Basis Set: AUG-CC-PVTZ
    Blend: AUG-CC-PVTZ
  Basis Set: (AUG-CC-PVTZ AUX)
    Blend: AUG-CC-PVTZ-JKFIT
	 Reference Energy          =    -628.6277933005818568 [Eh]
	 Singles Energy            =      -0.0000000000000000 [Eh]
	 Same-Spin Energy          =      -0.2914557053373915 [Eh]
	 Opposite-Spin Energy      =      -0.9560426290748802 [Eh]
	 Correlation Energy        =      -1.2474983344122719 [Eh]
	 Total Energy              =    -629.8752916349941415 [Eh]

	 ================> DF-SCS-MP2 Energies <==================
	-----------------------------------------------------------
	 SCS Same-Spin Scale       =       0.3333333333333333 [-]
	 SCS Opposite-Spin Scale   =       1.2000000000000000 [-]
	 SCS Same-Spin Energy      =      -0.0971519017791305 [Eh]
	 SCS Opposite-Spin Energy  =      -1.1472511548898563 [Eh]
	 SCS Correlation Energy    =      -1.2444030566689868 [Eh]
	 SCS Total Energy          =    -629.8721963572508002 [Eh]
	-----------------------------------------------------------

  Dipole Moment: [D]
     X:    -0.6290      Y:    -0.0022      Z:    -1.5836     Total:     1.7039

*** Psi4 exiting successfully. Buy a developer a beer!
