                               Psi4 1.4a3.dev225

  ==> Input File <==

--------------------------------------------------------------------------
#psi4
#
memory 32 gb

molecule  {
0 1
  S        1.9015010     0.0014740    -0.5114990
  O        0.2966630    -0.0047940     1.6103990
  C       -0.8120835    -0.0326795    -0.4194706
  C       -1.6918460     1.2669440    -0.1967440
  C       -1.6921440    -1.2655900    -0.2038620
  C        0.3503050    -0.0012110     0.3916140
  H       -0.5708550     0.0043180    -1.5417560
  H       -2.5996000     1.2838970    -0.8066260
  H       -1.1130310     2.1686550    -0.4169050
  H       -1.9752560     1.2862630     0.8584890
  H       -2.5999060    -1.2788960    -0.8138230
  H       -1.1135430    -2.1661840    -0.4290990
  H       -1.9755470    -1.2907820     0.8512470
  H        2.6553200    -0.0017420     0.5985790
units angstrom
no_reorient  #important for SAPT in psi4, default
symmetry c1  #important for SAPT in psi4, default
}

set PROPERTIES_ORIGIN ["COM"]
properties('MP2/aug-cc-pvtz', properties = ['dipole'])
--------------------------------------------------------------------------

    Molecular point group: c1
  Charge       = 0
  Multiplicity = 1
  Basis Set: AUG-CC-PVTZ
    Blend: AUG-CC-PVTZ
  Basis Set: (AUG-CC-PVTZ AUX)
    Blend: AUG-CC-PVTZ-JKFIT

    Orbital Energies [Eh]
    ---------------------

    Doubly Occupied:

       1A    -91.982754     2A    -20.558940     3A    -11.366116
       4A    -11.257910     5A    -11.235489     6A    -11.232619
       7A     -8.984710     8A     -6.665872     9A     -6.664775
      10A     -6.663980    11A     -1.400569    12A     -1.108345
      13A     -1.019784    14A     -0.944188    15A     -0.885941
      16A     -0.726784    17A     -0.673777    18A     -0.646354
      19A     -0.606014    20A     -0.596330    21A     -0.561707
      22A     -0.552974    23A     -0.529963    24A     -0.527267
      25A     -0.483354    26A     -0.469345    27A     -0.418213
      28A     -0.394264

  @DF-RHF Final Energy:  -628.61867212238519

   => Energetics <=

    Nuclear Repulsion Energy =            296.1392159630358378
    One-Electron Energy =               -1451.1990989243836339
    Two-Electron Energy =                 526.4412108389625473
    Total Energy =                       -628.6186721223851919
  Basis Set: (AUG-CC-PVTZ AUX)
    Blend: AUG-CC-PVTZ-RI
    Molecular point group: c1

    Geometry (in Angstrom), charge = 0, multiplicity = 1:

       Center              X                  Y                   Z               Mass
    ------------   -----------------  -----------------  -----------------  -----------------
         S            1.805127731816     0.005457660215    -0.536008999955    31.972071174400
         O            0.200289731816    -0.000810339785     1.585889000045    15.994914619570
         C           -0.908456768184    -0.028695839785    -0.443980599955    12.000000000000
         C           -1.788219268184     1.270927660215    -0.221253999955    12.000000000000
         C           -1.788517268184    -1.261606339785    -0.228371999955    12.000000000000
         C            0.253931731816     0.002772660215     0.367104000045    12.000000000000
         H           -0.667228268184     0.008301660215    -1.566265999955     1.007825032230
         H           -2.695973268184     1.287880660215    -0.831135999955     1.007825032230
         H           -1.209404268184     2.172638660215    -0.441414999955     1.007825032230
         H           -2.071629268184     1.290246660215     0.833979000045     1.007825032230
         H           -2.696279268184    -1.274912339785    -0.838332999955     1.007825032230
         H           -1.209916268184    -2.162200339785    -0.453608999955     1.007825032230
         H           -2.071920268184    -1.286798339785     0.826737000045     1.007825032230
         H            2.558946731816     0.002241660215     0.574069000045     1.007825032230

  Basis Set: AUG-CC-PVTZ
    Blend: AUG-CC-PVTZ
  Basis Set: (AUG-CC-PVTZ AUX)
    Blend: AUG-CC-PVTZ-JKFIT
	 Reference Energy          =    -628.6186721223851919 [Eh]
	 Singles Energy            =      -0.0000000000000000 [Eh]
	 Same-Spin Energy          =      -0.2920295854349756 [Eh]
	 Opposite-Spin Energy      =      -0.9570796762077965 [Eh]
	 Correlation Energy        =      -1.2491092616427721 [Eh]
	 Total Energy              =    -629.8677813840279214 [Eh]

	 ================> DF-SCS-MP2 Energies <==================
	-----------------------------------------------------------
	 SCS Same-Spin Scale       =       0.3333333333333333 [-]
	 SCS Opposite-Spin Scale   =       1.2000000000000000 [-]
	 SCS Same-Spin Energy      =      -0.0973431951449919 [Eh]
	 SCS Opposite-Spin Energy  =      -1.1484956114493559 [Eh]
	 SCS Correlation Energy    =      -1.2458388065943478 [Eh]
	 SCS Total Energy          =    -629.8645109289794846 [Eh]
	-----------------------------------------------------------

  Dipole Moment: [D]
     X:    -0.7485      Y:    -0.0044      Z:    -1.6409     Total:     1.8036

*** Psi4 exiting successfully. Buy a developer a beer!
