                               Psi4 1.4a3.dev225

  ==> Input File <==

--------------------------------------------------------------------------
#psi4
#
memory 32 gb

molecule  {
0 1
  S        1.9015010     0.0014740    -0.5114990
  O        0.2966630    -0.0047940     1.6103990
  C       -0.8837990     0.0013960    -0.4908930
  C       -1.6918460     1.2669440    -0.1967440
  C       -1.7279823    -1.2498283    -0.2401857
  C        0.3503050    -0.0012110     0.3916140
  H       -0.5708550     0.0043180    -1.5417560
  H       -2.5996000     1.2838970    -0.8066260
  H       -1.1130310     2.1686550    -0.4169050
  H       -1.9752560     1.2862630     0.8584890
  H       -2.5999060    -1.2788960    -0.8138230
  H       -1.1135430    -2.1661840    -0.4290990
  H       -1.9755470    -1.2907820     0.8512470
  H        2.6553200    -0.0017420     0.5985790
units angstrom
no_reorient  #important for SAPT in psi4, default
symmetry c1  #important for SAPT in psi4, default
}

set PROPERTIES_ORIGIN ["COM"]
properties('MP2/aug-cc-pvtz', properties = ['dipole'])
--------------------------------------------------------------------------

    Molecular point group: c1
  Charge       = 0
  Multiplicity = 1
  Basis Set: AUG-CC-PVTZ
    Blend: AUG-CC-PVTZ
  Basis Set: (AUG-CC-PVTZ AUX)
    Blend: AUG-CC-PVTZ-JKFIT

    Orbital Energies [Eh]
    ---------------------

    Doubly Occupied:

       1A    -91.983024     2A    -20.561236     3A    -11.370444
       4A    -11.257737     5A    -11.230485     6A    -11.229879
       7A     -8.984988     8A     -6.666155     9A     -6.665069
      10A     -6.664274    11A     -1.398720    12A     -1.103335
      13A     -1.020363    14A     -0.946059    15A     -0.867885
      16A     -0.733747    17A     -0.670898    18A     -0.645133
      19A     -0.603136    20A     -0.598192    21A     -0.564079
      22A     -0.549728    23A     -0.533002    24A     -0.518821
      25A     -0.489007    26A     -0.485543    27A     -0.410819
      28A     -0.394459

  @DF-RHF Final Energy:  -628.62807575351189

   => Energetics <=

    Nuclear Repulsion Energy =            294.7529295093049768
    One-Electron Energy =               -1448.4695762108908639
    Two-Electron Energy =                 525.0885709480739933
    Total Energy =                       -628.6280757535118937
  Basis Set: (AUG-CC-PVTZ AUX)
    Blend: AUG-CC-PVTZ-RI
    Molecular point group: c1

    Geometry (in Angstrom), charge = 0, multiplicity = 1:

       Center              X                  Y                   Z               Mass
    ------------   -----------------  -----------------  -----------------  -----------------
         S            1.817534256238    -0.000291150510    -0.523580293382    31.972071174400
         O            0.212696256238    -0.006559150510     1.598317706618    15.994914619570
         C           -0.967765743762    -0.000369150510    -0.502974293382    12.000000000000
         C           -1.775812743762     1.265178849490    -0.208825293382    12.000000000000
         C           -1.811949043762    -1.251593450510    -0.252266993382    12.000000000000
         C            0.266338256238    -0.002976150510     0.379532706618    12.000000000000
         H           -0.654821743762     0.002552849490    -1.553837293382     1.007825032230
         H           -2.683566743762     1.282131849490    -0.818707293382     1.007825032230
         H           -1.196997743762     2.166889849490    -0.428986293382     1.007825032230
         H           -2.059222743762     1.284497849490     0.846407706618     1.007825032230
         H           -2.683872743762    -1.280661150510    -0.825904293382     1.007825032230
         H           -1.197509743762    -2.167949150510    -0.441180293382     1.007825032230
         H           -2.059513743762    -1.292547150510     0.839165706618     1.007825032230
         H            2.571353256238    -0.003507150510     0.586497706618     1.007825032230

  Basis Set: AUG-CC-PVTZ
    Blend: AUG-CC-PVTZ
  Basis Set: (AUG-CC-PVTZ AUX)
    Blend: AUG-CC-PVTZ-JKFIT
	 Reference Energy          =    -628.6280757535118937 [Eh]
	 Singles Energy            =      -0.0000000000000000 [Eh]
	 Same-Spin Energy          =      -0.2912361402466345 [Eh]
	 Opposite-Spin Energy      =      -0.9557172916654613 [Eh]
	 Correlation Energy        =      -1.2469534319120958 [Eh]
	 Total Energy              =    -629.8750291854239549 [Eh]

	 ================> DF-SCS-MP2 Energies <==================
	-----------------------------------------------------------
	 SCS Same-Spin Scale       =       0.3333333333333333 [-]
	 SCS Opposite-Spin Scale   =       1.2000000000000000 [-]
	 SCS Same-Spin Energy      =      -0.0970787134155448 [Eh]
	 SCS Opposite-Spin Energy  =      -1.1468607499985535 [Eh]
	 SCS Correlation Energy    =      -1.2439394634140983 [Eh]
	 SCS Total Energy          =    -629.8720152169260018 [Eh]
	-----------------------------------------------------------

  Dipole Moment: [D]
     X:    -0.6228      Y:     0.0102      Z:    -1.6038     Total:     1.7205

*** Psi4 exiting successfully. Buy a developer a beer!
