                               Psi4 1.4a3.dev225

  ==> Input File <==

--------------------------------------------------------------------------
#psi4
#
memory 32 gb

molecule  {
0 1
  S        1.9015010     0.0014740    -0.5114990
  O        0.2966630    -0.0047940     1.6103990
  C       -0.8837990     0.0013960    -0.4908930
  C       -1.7446576     1.3496565    -0.1775193
  C       -1.6921440    -1.2655900    -0.2038620
  C        0.3503050    -0.0012110     0.3916140
  H       -0.5708550     0.0043180    -1.5417560
  H       -2.5996000     1.2838970    -0.8066260
  H       -1.1130310     2.1686550    -0.4169050
  H       -1.9752560     1.2862630     0.8584890
  H       -2.5999060    -1.2788960    -0.8138230
  H       -1.1135430    -2.1661840    -0.4290990
  H       -1.9755470    -1.2907820     0.8512470
  H        2.6553200    -0.0017420     0.5985790
units angstrom
no_reorient  #important for SAPT in psi4, default
symmetry c1  #important for SAPT in psi4, default
}

set PROPERTIES_ORIGIN ["COM"]
properties('MP2/aug-cc-pvtz', properties = ['dipole'])
--------------------------------------------------------------------------

    Molecular point group: c1
  Charge       = 0
  Multiplicity = 1
  Basis Set: AUG-CC-PVTZ
    Blend: AUG-CC-PVTZ
  Basis Set: (AUG-CC-PVTZ AUX)
    Blend: AUG-CC-PVTZ-JKFIT

    Orbital Energies [Eh]
    ---------------------

    Doubly Occupied:

       1A    -91.981815     2A    -20.559272     3A    -11.368715
       4A    -11.260646     5A    -11.230250     6A    -11.229496
       7A     -8.983819     8A     -6.664991     9A     -6.663899
      10A     -6.663109    11A     -1.397070    12A     -1.092586
      13A     -1.017844    14A     -0.948758    15A     -0.868659
      16A     -0.730732    17A     -0.667624    18A     -0.641851
      19A     -0.604276    20A     -0.594456    21A     -0.568030
      22A     -0.559232    23A     -0.536412    24A     -0.518855
      25A     -0.499056    26A     -0.468341    27A     -0.407840
      28A     -0.393634

  @DF-RHF Final Energy:  -628.62455094967254

   => Energetics <=

    Nuclear Repulsion Energy =            293.3990877199963734
    One-Electron Energy =               -1445.8047455778223593
    Two-Electron Energy =                 523.7811069081535607
    Total Energy =                       -628.6245509496725390
  Basis Set: (AUG-CC-PVTZ AUX)
    Blend: AUG-CC-PVTZ-RI
    Molecular point group: c1

    Geometry (in Angstrom), charge = 0, multiplicity = 1:

       Center              X                  Y                   Z               Mass
    ------------   -----------------  -----------------  -----------------  -----------------
         S            1.819492156945    -0.008014045798    -0.529987901307    31.972071174400
         O            0.214654156945    -0.014282045798     1.591910098693    15.994914619570
         C           -0.965807843055    -0.008092045798    -0.509381901307    12.000000000000
         C           -1.826666443055     1.340168454202    -0.196008201307    12.000000000000
         C           -1.774152843055    -1.275078045798    -0.222350901307    12.000000000000
         C            0.268296156945    -0.010699045798     0.373125098693    12.000000000000
         H           -0.652863843055    -0.005170045798    -1.560244901307     1.007825032230
         H           -2.681608843055     1.274408954202    -0.825114901307     1.007825032230
         H           -1.195039843055     2.159166954202    -0.435393901307     1.007825032230
         H           -2.057264843055     1.276774954202     0.840000098693     1.007825032230
         H           -2.681914843055    -1.288384045798    -0.832311901307     1.007825032230
         H           -1.195551843055    -2.175672045798    -0.447587901307     1.007825032230
         H           -2.057555843055    -1.300270045798     0.832758098693     1.007825032230
         H            2.573311156945    -0.011230045798     0.580090098693     1.007825032230

  Basis Set: AUG-CC-PVTZ
    Blend: AUG-CC-PVTZ
  Basis Set: (AUG-CC-PVTZ AUX)
    Blend: AUG-CC-PVTZ-JKFIT
	 Reference Energy          =    -628.6245509496725390 [Eh]
	 Singles Energy            =      -0.0000000000000000 [Eh]
	 Same-Spin Energy          =      -0.2908874496357012 [Eh]
	 Opposite-Spin Energy      =      -0.9554750106169607 [Eh]
	 Correlation Energy        =      -1.2463624602526620 [Eh]
	 Total Energy              =    -629.8709134099251514 [Eh]

	 ================> DF-SCS-MP2 Energies <==================
	-----------------------------------------------------------
	 SCS Same-Spin Scale       =       0.3333333333333333 [-]
	 SCS Opposite-Spin Scale   =       1.2000000000000000 [-]
	 SCS Same-Spin Energy      =      -0.0969624832119004 [Eh]
	 SCS Opposite-Spin Energy  =      -1.1465700127403529 [Eh]
	 SCS Correlation Energy    =      -1.2435324959522533 [Eh]
	 SCS Total Energy          =    -629.8680834456248476 [Eh]
	-----------------------------------------------------------

  Dipole Moment: [D]
     X:    -0.6760      Y:     0.0123      Z:    -1.6175     Total:     1.7532

*** Psi4 exiting successfully. Buy a developer a beer!
