                               Psi4 1.4a3.dev225

  ==> Input File <==

--------------------------------------------------------------------------
#psi4
#
memory 32 gb

molecule  {
0 1
  S        1.9015010     0.0014740    -0.5114990
  O        0.2966630    -0.0047940     1.6103990
  C       -0.8837990     0.0013960    -0.4908930
  C       -1.6918460     1.2669440    -0.1967440
  C       -1.6921440    -1.2655900    -0.2038620
  C        0.3503050    -0.0012110     0.3916140
  H       -0.5708550     0.0043180    -1.5417560
  H       -2.5996000     1.2838970    -0.8066260
  H       -1.1130310     2.1686550    -0.4169050
  H       -1.9752560     1.2862630     0.8584890
  H       -2.5999060    -1.2788960    -0.8138230
  H       -1.1277635    -2.1954941    -0.3193325
  H       -1.9755470    -1.2907820     0.8512470
  H        2.6553200    -0.0017420     0.5985790
units angstrom
no_reorient  #important for SAPT in psi4, default
symmetry c1  #important for SAPT in psi4, default
}

set PROPERTIES_ORIGIN ["COM"]
properties('MP2/aug-cc-pvtz', properties = ['dipole'])
--------------------------------------------------------------------------

    Molecular point group: c1
  Charge       = 0
  Multiplicity = 1
  Basis Set: AUG-CC-PVTZ
    Blend: AUG-CC-PVTZ
  Basis Set: (AUG-CC-PVTZ AUX)
    Blend: AUG-CC-PVTZ-JKFIT

    Orbital Energies [Eh]
    ---------------------

    Doubly Occupied:

       1A    -91.982434     2A    -20.560497     3A    -11.369677
       4A    -11.258634     5A    -11.230783     6A    -11.230065
       7A     -8.984425     8A     -6.665596     9A     -6.664504
      10A     -6.663712    11A     -1.398322    12A     -1.103314
      13A     -1.019748    14A     -0.947034    15A     -0.867003
      16A     -0.735122    17A     -0.669421    18A     -0.646972
      19A     -0.600026    20A     -0.597869    21A     -0.559833
      22A     -0.551325    23A     -0.532093    24A     -0.517221
      25A     -0.493572    26A     -0.489060    27A     -0.409195
      28A     -0.394123

  @DF-RHF Final Energy:  -628.63017673147465

   => Energetics <=

    Nuclear Repulsion Energy =            294.9458894014402404
    One-Electron Energy =               -1448.8689717368401944
    Two-Electron Energy =                 525.2929056039254192
    Total Energy =                       -628.6301767314746485
  Basis Set: (AUG-CC-PVTZ AUX)
    Blend: AUG-CC-PVTZ-RI
    Molecular point group: c1

    Geometry (in Angstrom), charge = 0, multiplicity = 1:

       Center              X                  Y                   Z               Mass
    ------------   -----------------  -----------------  -----------------  -----------------
         S            1.813538010171     0.001810942374    -0.528833701063    31.972071174400
         O            0.208700010171    -0.004457057626     1.593064298937    15.994914619570
         C           -0.971761989829     0.001732942374    -0.508227701063    12.000000000000
         C           -1.779808989829     1.267280942374    -0.214078701063    12.000000000000
         C           -1.780106989829    -1.265253057626    -0.221196701063    12.000000000000
         C            0.262342010171    -0.000874057626     0.374279298937    12.000000000000
         H           -0.658817989829     0.004654942374    -1.559090701063     1.007825032230
         H           -2.687562989829     1.284233942374    -0.823960701063     1.007825032230
         H           -1.200993989829     2.168991942374    -0.434239701063     1.007825032230
         H           -2.063218989829     1.286599942374     0.841154298937     1.007825032230
         H           -2.687868989829    -1.278559057626    -0.831157701063     1.007825032230
         H           -1.215726489829    -2.195157157626    -0.336667201063     1.007825032230
         H           -2.063509989829    -1.290445057626     0.833912298937     1.007825032230
         H            2.567357010171    -0.001405057626     0.581244298937     1.007825032230

  Basis Set: AUG-CC-PVTZ
    Blend: AUG-CC-PVTZ
  Basis Set: (AUG-CC-PVTZ AUX)
    Blend: AUG-CC-PVTZ-JKFIT
	 Reference Energy          =    -628.6301767314746485 [Eh]
	 Singles Energy            =      -0.0000000000000000 [Eh]
	 Same-Spin Energy          =      -0.2912786472291101 [Eh]
	 Opposite-Spin Energy      =      -0.9555876949771763 [Eh]
	 Correlation Energy        =      -1.2468663422062864 [Eh]
	 Total Energy              =    -629.8770430736809658 [Eh]

	 ================> DF-SCS-MP2 Energies <==================
	-----------------------------------------------------------
	 SCS Same-Spin Scale       =       0.3333333333333333 [-]
	 SCS Opposite-Spin Scale   =       1.2000000000000000 [-]
	 SCS Same-Spin Energy      =      -0.0970928824097034 [Eh]
	 SCS Opposite-Spin Energy  =      -1.1467052339726116 [Eh]
	 SCS Correlation Energy    =      -1.2437981163823149 [Eh]
	 SCS Total Energy          =    -629.8739748478569709 [Eh]
	-----------------------------------------------------------

  Dipole Moment: [D]
     X:    -0.6350      Y:     0.0012      Z:    -1.5613     Total:     1.6855

*** Psi4 exiting successfully. Buy a developer a beer!
