                               Psi4 1.4a3.dev225

  ==> Input File <==

--------------------------------------------------------------------------
#psi4
#
memory 32 gb

molecule  {
0 1
  S        1.9015010     0.0014740    -0.5114990
  O        0.2966630    -0.0047940     1.6103990
  C       -0.8837990     0.0013960    -0.4908930
  C       -1.6918460     1.2669440    -0.1967440
  C       -1.6921440    -1.2655900    -0.2038620
  C        0.3503050    -0.0012110     0.3916140
  H       -0.5708550     0.0043180    -1.5417560
  H       -2.5758189     1.3504927    -0.8353928
  H       -1.1130310     2.1686550    -0.4169050
  H       -1.9752560     1.2862630     0.8584890
  H       -2.5999060    -1.2788960    -0.8138230
  H       -1.1135430    -2.1661840    -0.4290990
  H       -1.9755470    -1.2907820     0.8512470
  H        2.6553200    -0.0017420     0.5985790
units angstrom
no_reorient  #important for SAPT in psi4, default
symmetry c1  #important for SAPT in psi4, default
}

set PROPERTIES_ORIGIN ["COM"]
properties('MP2/aug-cc-pvtz', properties = ['dipole'])
--------------------------------------------------------------------------

    Molecular point group: c1
  Charge       = 0
  Multiplicity = 1
  Basis Set: AUG-CC-PVTZ
    Blend: AUG-CC-PVTZ
  Basis Set: (AUG-CC-PVTZ AUX)
    Blend: AUG-CC-PVTZ-JKFIT

    Orbital Energies [Eh]
    ---------------------

    Doubly Occupied:

       1A    -91.982602     2A    -20.560665     3A    -11.369832
       4A    -11.258307     5A    -11.230203     6A    -11.230150
       7A     -8.984588     8A     -6.665758     9A     -6.664669
      10A     -6.663876    11A     -1.398445    12A     -1.103221
      13A     -1.019761    14A     -0.947209    15A     -0.866513
      16A     -0.734144    17A     -0.671053    18A     -0.645284
      19A     -0.601385    20A     -0.596830    21A     -0.559050
      22A     -0.556213    23A     -0.527389    24A     -0.517487
      25A     -0.492678    26A     -0.490852    27A     -0.409391
      28A     -0.394253

  @DF-RHF Final Energy:  -628.63084669071463

   => Energetics <=

    Nuclear Repulsion Energy =            294.9224118634433012
    One-Electron Energy =               -1448.8229036297793755
    Two-Electron Energy =                 525.2696450756213835
    Total Energy =                       -628.6308466907146340
  Basis Set: (AUG-CC-PVTZ AUX)
    Blend: AUG-CC-PVTZ-RI
    Molecular point group: c1

    Geometry (in Angstrom), charge = 0, multiplicity = 1:

       Center              X                  Y                   Z               Mass
    ------------   -----------------  -----------------  -----------------  -----------------
         S            1.813169855638     0.000881819519    -0.527491608559    31.972071174400
         O            0.208331855638    -0.005386180481     1.594406391441    15.994914619570
         C           -0.972130144362     0.000803819519    -0.506885608559    12.000000000000
         C           -1.780177144362     1.266351819519    -0.212736608559    12.000000000000
         C           -1.780475144362    -1.266182180481    -0.219854608559    12.000000000000
         C            0.261973855638    -0.001803180481     0.375621391441    12.000000000000
         H           -0.659186144362     0.003725819519    -1.557748608559     1.007825032230
         H           -2.664150044362     1.349900519519    -0.851385408559     1.007825032230
         H           -1.201362144362     2.168062819519    -0.432897608559     1.007825032230
         H           -2.063587144362     1.285670819519     0.842496391441     1.007825032230
         H           -2.688237144362    -1.279488180481    -0.829815608559     1.007825032230
         H           -1.201874144362    -2.166776180481    -0.445091608559     1.007825032230
         H           -2.063878144362    -1.291374180481     0.835254391441     1.007825032230
         H            2.566988855638    -0.002334180481     0.582586391441     1.007825032230

  Basis Set: AUG-CC-PVTZ
    Blend: AUG-CC-PVTZ
  Basis Set: (AUG-CC-PVTZ AUX)
    Blend: AUG-CC-PVTZ-JKFIT
	 Reference Energy          =    -628.6308466907146340 [Eh]
	 Singles Energy            =      -0.0000000000000000 [Eh]
	 Same-Spin Energy          =      -0.2912093637049614 [Eh]
	 Opposite-Spin Energy      =      -0.9555200601388310 [Eh]
	 Correlation Energy        =      -1.2467294238437923 [Eh]
	 Total Energy              =    -629.8775761145584511 [Eh]

	 ================> DF-SCS-MP2 Energies <==================
	-----------------------------------------------------------
	 SCS Same-Spin Scale       =       0.3333333333333333 [-]
	 SCS Opposite-Spin Scale   =       1.2000000000000000 [-]
	 SCS Same-Spin Energy      =      -0.0970697879016538 [Eh]
	 SCS Opposite-Spin Energy  =      -1.1466240721665970 [Eh]
	 SCS Correlation Energy    =      -1.2436938600682508 [Eh]
	 SCS Total Energy          =    -629.8745405507828536 [Eh]
	-----------------------------------------------------------

  Dipole Moment: [D]
     X:    -0.6274      Y:     0.0249      Z:    -1.6131     Total:     1.7310

*** Psi4 exiting successfully. Buy a developer a beer!
