                               Psi4 1.4a3.dev225

  ==> Input File <==

--------------------------------------------------------------------------
#psi4
#
memory 32 gb

molecule  {
0 1
  S        1.9015010     0.0014740    -0.5114990
  O        0.2966630    -0.0047940     1.6103990
  C       -0.8837990     0.0013960    -0.4908930
  C       -1.6918460     1.2669440    -0.1967440
  C       -1.7449752    -1.3483967    -0.1851025
  C        0.3503050    -0.0012110     0.3916140
  H       -0.5708550     0.0043180    -1.5417560
  H       -2.5996000     1.2838970    -0.8066260
  H       -1.1130310     2.1686550    -0.4169050
  H       -1.9752560     1.2862630     0.8584890
  H       -2.5999060    -1.2788960    -0.8138230
  H       -1.1135430    -2.1661840    -0.4290990
  H       -1.9755470    -1.2907820     0.8512470
  H        2.6553200    -0.0017420     0.5985790
units angstrom
no_reorient  #important for SAPT in psi4, default
symmetry c1  #important for SAPT in psi4, default
}

set PROPERTIES_ORIGIN ["COM"]
properties('MP2/aug-cc-pvtz', properties = ['dipole'])
--------------------------------------------------------------------------

    Molecular point group: c1
  Charge       = 0
  Multiplicity = 1
  Basis Set: AUG-CC-PVTZ
    Blend: AUG-CC-PVTZ
  Basis Set: (AUG-CC-PVTZ AUX)
    Blend: AUG-CC-PVTZ-JKFIT

    Orbital Energies [Eh]
    ---------------------

    Doubly Occupied:

       1A    -91.981815     2A    -20.559273     3A    -11.368715
       4A    -11.260646     5A    -11.230254     6A    -11.229492
       7A     -8.983819     8A     -6.664991     9A     -6.663899
      10A     -6.663109    11A     -1.397070    12A     -1.092586
      13A     -1.017844    14A     -0.948757    15A     -0.868659
      16A     -0.730733    17A     -0.667623    18A     -0.641850
      19A     -0.604280    20A     -0.594452    21A     -0.568025
      22A     -0.559238    23A     -0.536411    24A     -0.518857
      25A     -0.499054    26A     -0.468342    27A     -0.407840
      28A     -0.393634

  @DF-RHF Final Energy:  -628.62455079943174

   => Energetics <=

    Nuclear Repulsion Energy =            293.3990847110428604
    One-Electron Energy =               -1445.8047389495982316
    Two-Electron Energy =                 523.7811034391236262
    Total Energy =                       -628.6245507994317450
  Basis Set: (AUG-CC-PVTZ AUX)
    Blend: AUG-CC-PVTZ-RI
    Molecular point group: c1

    Geometry (in Angstrom), charge = 0, multiplicity = 1:

       Center              X                  Y                   Z               Mass
    ------------   -----------------  -----------------  -----------------  -----------------
         S            1.819494417840     0.011078891849    -0.529934239649    31.972071174400
         O            0.214656417840     0.004810891849     1.591963760351    15.994914619570
         C           -0.965805582160     0.011000891849    -0.509328239649    12.000000000000
         C           -1.773852582160     1.276548891849    -0.215179239649    12.000000000000
         C           -1.826981782160    -1.338791808151    -0.203537739649    12.000000000000
         C            0.268298417840     0.008393891849     0.373178760351    12.000000000000
         H           -0.652861582160     0.013922891849    -1.560191239649     1.007825032230
         H           -2.681606582160     1.293501891849    -0.825061239649     1.007825032230
         H           -1.195037582160     2.178259891849    -0.435340239649     1.007825032230
         H           -2.057262582160     1.295867891849     0.840053760351     1.007825032230
         H           -2.681912582160    -1.269291108151    -0.832258239649     1.007825032230
         H           -1.195549582160    -2.156579108151    -0.447534239649     1.007825032230
         H           -2.057553582160    -1.281177108151     0.832811760351     1.007825032230
         H            2.573313417840     0.007862891849     0.580143760351     1.007825032230

  Basis Set: AUG-CC-PVTZ
    Blend: AUG-CC-PVTZ
  Basis Set: (AUG-CC-PVTZ AUX)
    Blend: AUG-CC-PVTZ-JKFIT
	 Reference Energy          =    -628.6245507994317450 [Eh]
	 Singles Energy            =      -0.0000000000000000 [Eh]
	 Same-Spin Energy          =      -0.2908874320285434 [Eh]
	 Opposite-Spin Energy      =      -0.9554750378957708 [Eh]
	 Correlation Energy        =      -1.2463624699243141 [Eh]
	 Total Energy              =    -629.8709132693560377 [Eh]

	 ================> DF-SCS-MP2 Energies <==================
	-----------------------------------------------------------
	 SCS Same-Spin Scale       =       0.3333333333333333 [-]
	 SCS Opposite-Spin Scale   =       1.2000000000000000 [-]
	 SCS Same-Spin Energy      =      -0.0969624773428478 [Eh]
	 SCS Opposite-Spin Energy  =      -1.1465700454749250 [Eh]
	 SCS Correlation Energy    =      -1.2435325228177727 [Eh]
	 SCS Total Energy          =    -629.8680833222495039 [Eh]
	-----------------------------------------------------------

  Dipole Moment: [D]
     X:    -0.6760      Y:    -0.0026      Z:    -1.6176     Total:     1.7532

*** Psi4 exiting successfully. Buy a developer a beer!
