                               Psi4 1.4a3.dev225

  ==> Input File <==

--------------------------------------------------------------------------
#psi4
#
memory 32 gb

molecule  {
0 1
  S        1.9015010     0.0014740    -0.5114990
  O        0.2966630    -0.0047940     1.6103990
  C       -0.8837990     0.0013960    -0.4908930
  C       -1.7974691     1.4323689    -0.1582946
  C       -1.6921440    -1.2655900    -0.2038620
  C        0.3503050    -0.0012110     0.3916140
  H       -0.5708550     0.0043180    -1.5417560
  H       -2.5996000     1.2838970    -0.8066260
  H       -1.1130310     2.1686550    -0.4169050
  H       -1.9752560     1.2862630     0.8584890
  H       -2.5999060    -1.2788960    -0.8138230
  H       -1.1135430    -2.1661840    -0.4290990
  H       -1.9755470    -1.2907820     0.8512470
  H        2.6553200    -0.0017420     0.5985790
units angstrom
no_reorient  #important for SAPT in psi4, default
symmetry c1  #important for SAPT in psi4, default
}

set PROPERTIES_ORIGIN ["COM"]
properties('MP2/aug-cc-pvtz', properties = ['dipole'])
--------------------------------------------------------------------------

    Molecular point group: c1
  Charge       = 0
  Multiplicity = 1
  Basis Set: AUG-CC-PVTZ
    Blend: AUG-CC-PVTZ
  Basis Set: (AUG-CC-PVTZ AUX)
    Blend: AUG-CC-PVTZ-JKFIT

    Orbital Energies [Eh]
    ---------------------

    Doubly Occupied:

       1A    -91.981212     2A    -20.558070     3A    -11.368015
       4A    -11.262605     5A    -11.232061     6A    -11.230380
       7A     -8.983223     8A     -6.664396     9A     -6.663303
      10A     -6.662512    11A     -1.395956    12A     -1.084934
      13A     -1.016148    14A     -0.951540    15A     -0.869926
      16A     -0.728244    17A     -0.665932    18A     -0.639985
      19A     -0.610466    20A     -0.594019    21A     -0.578341
      22A     -0.561904    23A     -0.539513    24A     -0.519105
      25A     -0.502077    26A     -0.444108    27A     -0.404780
      28A     -0.393071

  @DF-RHF Final Energy:  -628.60575977912447

   => Energetics <=

    Nuclear Repulsion Energy =            291.8823376000958092
    One-Electron Energy =               -1442.7645438028328044
    Two-Electron Energy =                 522.2764464236125832
    Total Energy =                       -628.6057597791244689
  Basis Set: (AUG-CC-PVTZ AUX)
    Blend: AUG-CC-PVTZ-RI
    Molecular point group: c1

    Geometry (in Angstrom), charge = 0, multiplicity = 1:

       Center              X                  Y                   Z               Mass
    ------------   -----------------  -----------------  -----------------  -----------------
         S            1.825584058528    -0.017555070017    -0.532205505055    31.972071174400
         O            0.220746058528    -0.023823070017     1.589692494945    15.994914619570
         C           -0.959715941472    -0.017633070017    -0.511599505055    12.000000000000
         C           -1.873386041472     1.413339829983    -0.179001105055    12.000000000000
         C           -1.768060941472    -1.284619070017    -0.224568505055    12.000000000000
         C            0.274388058528    -0.020240070017     0.370907494945    12.000000000000
         H           -0.646771941472    -0.014711070017    -1.562462505055     1.007825032230
         H           -2.675516941472     1.264867929983    -0.827332505055     1.007825032230
         H           -1.188947941472     2.149625929983    -0.437611505055     1.007825032230
         H           -2.051172941472     1.267233929983     0.837782494945     1.007825032230
         H           -2.675822941472    -1.297925070017    -0.834529505055     1.007825032230
         H           -1.189459941472    -2.185213070017    -0.449805505055     1.007825032230
         H           -2.051463941472    -1.309811070017     0.830540494945     1.007825032230
         H            2.579403058528    -0.020771070017     0.577872494945     1.007825032230

  Basis Set: AUG-CC-PVTZ
    Blend: AUG-CC-PVTZ
  Basis Set: (AUG-CC-PVTZ AUX)
    Blend: AUG-CC-PVTZ-JKFIT
	 Reference Energy          =    -628.6057597791244689 [Eh]
	 Singles Energy            =      -0.0000000000000000 [Eh]
	 Same-Spin Energy          =      -0.2911701740768221 [Eh]
	 Opposite-Spin Energy      =      -0.9565232505600808 [Eh]
	 Correlation Energy        =      -1.2476934246369029 [Eh]
	 Total Energy              =    -629.8534532037613189 [Eh]

	 ================> DF-SCS-MP2 Energies <==================
	-----------------------------------------------------------
	 SCS Same-Spin Scale       =       0.3333333333333333 [-]
	 SCS Opposite-Spin Scale   =       1.2000000000000000 [-]
	 SCS Same-Spin Energy      =      -0.0970567246922740 [Eh]
	 SCS Opposite-Spin Energy  =      -1.1478279006720968 [Eh]
	 SCS Correlation Energy    =      -1.2448846253643708 [Eh]
	 SCS Total Energy          =    -629.8506444044888894 [Eh]
	-----------------------------------------------------------

  Dipole Moment: [D]
     X:    -0.7012      Y:    -0.0018      Z:    -1.6391     Total:     1.7828

*** Psi4 exiting successfully. Buy a developer a beer!
