                               Psi4 1.4a3.dev225

  ==> Input File <==

--------------------------------------------------------------------------
#psi4
#
memory 32 gb

molecule  {
0 1
  S        1.9015010     0.0014740    -0.5114990
  O        0.2966630    -0.0047940     1.6103990
  C       -0.8837990     0.0013960    -0.4908930
  C       -1.6918460     1.2669440    -0.1967440
  C       -1.6921440    -1.2655900    -0.2038620
  C        0.3503050    -0.0012110     0.3916140
  H       -0.5708550     0.0043180    -1.5417560
  H       -2.5996000     1.2838970    -0.8066260
  H       -1.1130310     2.1686550    -0.4169050
  H       -1.9752560     1.2862630     0.8584890
  H       -2.5999060    -1.2788960    -0.8138230
  H       -1.2193314    -2.0015240    -0.3879178
  H       -1.9755470    -1.2907820     0.8512470
  H        2.6553200    -0.0017420     0.5985790
units angstrom
no_reorient  #important for SAPT in psi4, default
symmetry c1  #important for SAPT in psi4, default
}

set PROPERTIES_ORIGIN ["COM"]
properties('MP2/aug-cc-pvtz', properties = ['dipole'])
--------------------------------------------------------------------------

    Molecular point group: c1
  Charge       = 0
  Multiplicity = 1
  Basis Set: AUG-CC-PVTZ
    Blend: AUG-CC-PVTZ
  Basis Set: (AUG-CC-PVTZ AUX)
    Blend: AUG-CC-PVTZ-JKFIT

    Orbital Energies [Eh]
    ---------------------

    Doubly Occupied:

       1A    -91.982476     2A    -20.560330     3A    -11.369301
       4A    -11.256456     5A    -11.229097     6A    -11.205572
       7A     -8.984474     8A     -6.665644     9A     -6.664552
      10A     -6.663763    11A     -1.398141    12A     -1.106882
      13A     -1.021214    14A     -0.965023    15A     -0.871080
      16A     -0.735956    17A     -0.672569    18A     -0.654608
      19A     -0.615015    20A     -0.597616    21A     -0.561112
      22A     -0.556187    23A     -0.534450    24A     -0.516466
      25A     -0.497464    26A     -0.490784    27A     -0.408962
      28A     -0.394222

  @DF-RHF Final Energy:  -628.59728956719096

   => Energetics <=

    Nuclear Repulsion Energy =            295.9414189458382793
    One-Electron Energy =               -1450.7185900607730673
    Two-Electron Energy =                 526.1798815477438893
    Total Energy =                       -628.5972895671909555
  Basis Set: (AUG-CC-PVTZ AUX)
    Blend: AUG-CC-PVTZ-RI
    Molecular point group: c1

    Geometry (in Angstrom), charge = 0, multiplicity = 1:

       Center              X                  Y                   Z               Mass
    ------------   -----------------  -----------------  -----------------  -----------------
         S            1.814425108018    -0.000068214602    -0.528169255641    31.972071174400
         O            0.209587108018    -0.006336214602     1.593728744359    15.994914619570
         C           -0.970874891982    -0.000146214602    -0.507563255641    12.000000000000
         C           -1.778921891982     1.265401785398    -0.213414255641    12.000000000000
         C           -1.779219891982    -1.267132214602    -0.220532255641    12.000000000000
         C            0.263229108018    -0.002753214602     0.374943744359    12.000000000000
         H           -0.657930891982     0.002775785398    -1.558426255641     1.007825032230
         H           -2.686675891982     1.282354785398    -0.823296255641     1.007825032230
         H           -1.200106891982     2.167112785398    -0.433575255641     1.007825032230
         H           -2.062331891982     1.284720785398     0.841818744359     1.007825032230
         H           -2.686981891982    -1.280438214602    -0.830493255641     1.007825032230
         H           -1.306407291982    -2.003066214602    -0.404588055641     1.007825032230
         H           -2.062622891982    -1.292324214602     0.834576744359     1.007825032230
         H            2.568244108018    -0.003284214602     0.581908744359     1.007825032230

  Basis Set: AUG-CC-PVTZ
    Blend: AUG-CC-PVTZ
  Basis Set: (AUG-CC-PVTZ AUX)
    Blend: AUG-CC-PVTZ-JKFIT
	 Reference Energy          =    -628.5972895671909555 [Eh]
	 Singles Energy            =      -0.0000000000000000 [Eh]
	 Same-Spin Energy          =      -0.2913694855976472 [Eh]
	 Opposite-Spin Energy      =      -0.9549826583932941 [Eh]
	 Correlation Energy        =      -1.2463521439909413 [Eh]
	 Total Energy              =    -629.8436417111819310 [Eh]

	 ================> DF-SCS-MP2 Energies <==================
	-----------------------------------------------------------
	 SCS Same-Spin Scale       =       0.3333333333333333 [-]
	 SCS Opposite-Spin Scale   =       1.2000000000000000 [-]
	 SCS Same-Spin Energy      =      -0.0971231618658824 [Eh]
	 SCS Opposite-Spin Energy  =      -1.1459791900719529 [Eh]
	 SCS Correlation Energy    =      -1.2431023519378352 [Eh]
	 SCS Total Energy          =    -629.8403919191288196 [Eh]
	-----------------------------------------------------------

  Dipole Moment: [D]
     X:    -0.6192      Y:    -0.0776      Z:    -1.6090     Total:     1.7258

*** Psi4 exiting successfully. Buy a developer a beer!
