                               Psi4 1.4a3.dev225

  ==> Input File <==

--------------------------------------------------------------------------
#psi4
#
memory 32 gb

molecule  {
0 1
  S        1.9015010     0.0014740    -0.5114990
  O        0.2966630    -0.0047940     1.6103990
  C       -0.8837990     0.0013960    -0.4908930
  C       -1.6918460     1.2669440    -0.1967440
  C       -1.6553208    -1.2798080    -0.1678880
  C        0.3503050    -0.0012110     0.3916140
  H       -0.5708550     0.0043180    -1.5417560
  H       -2.5996000     1.2838970    -0.8066260
  H       -1.1130310     2.1686550    -0.4169050
  H       -1.9752560     1.2862630     0.8584890
  H       -2.5999060    -1.2788960    -0.8138230
  H       -1.1135430    -2.1661840    -0.4290990
  H       -1.9755470    -1.2907820     0.8512470
  H        2.6553200    -0.0017420     0.5985790
units angstrom
no_reorient  #important for SAPT in psi4, default
symmetry c1  #important for SAPT in psi4, default
}

set PROPERTIES_ORIGIN ["COM"]
properties('MP2/aug-cc-pvtz', properties = ['dipole'])
--------------------------------------------------------------------------

    Molecular point group: c1
  Charge       = 0
  Multiplicity = 1
  Basis Set: AUG-CC-PVTZ
    Blend: AUG-CC-PVTZ
  Basis Set: (AUG-CC-PVTZ AUX)
    Blend: AUG-CC-PVTZ-JKFIT

    Orbital Energies [Eh]
    ---------------------

    Doubly Occupied:

       1A    -91.982032     2A    -20.559791     3A    -11.368846
       4A    -11.258472     5A    -11.231149     6A    -11.230922
       7A     -8.984051     8A     -6.665225     9A     -6.664129
      10A     -6.663341    11A     -1.397938    12A     -1.103881
      13A     -1.019331    14A     -0.948303    15A     -0.865683
      16A     -0.734445    17A     -0.670317    18A     -0.645905
      19A     -0.604250    20A     -0.596734    21A     -0.561624
      22A     -0.554251    23A     -0.525829    24A     -0.512179
      25A     -0.496552    26A     -0.493199    27A     -0.407430
      28A     -0.393980

  @DF-RHF Final Energy:  -628.62838324937104

   => Energetics <=

    Nuclear Repulsion Energy =            295.2263408783793466
    One-Electron Energy =               -1449.4298694156173042
    Two-Electron Energy =                 525.5751452878670307
    Total Energy =                       -628.6283832493710406
  Basis Set: (AUG-CC-PVTZ AUX)
    Blend: AUG-CC-PVTZ-RI
    Molecular point group: c1

    Geometry (in Angstrom), charge = 0, multiplicity = 1:

       Center              X                  Y                   Z               Mass
    ------------   -----------------  -----------------  -----------------  -----------------
         S            1.809152621426     0.003167061848    -0.531919963210    31.972071174400
         O            0.204314621426    -0.003100938152     1.589978036790    15.994914619570
         C           -0.976147378574     0.003089061848    -0.511313963210    12.000000000000
         C           -1.784194378574     1.268637061848    -0.217164963210    12.000000000000
         C           -1.747669178574    -1.278114938152    -0.188308963210    12.000000000000
         C            0.257956621426     0.000482061848     0.371193036790    12.000000000000
         H           -0.663203378574     0.006011061848    -1.562176963210     1.007825032230
         H           -2.691948378574     1.285590061848    -0.827046963210     1.007825032230
         H           -1.205379378574     2.170348061848    -0.437325963210     1.007825032230
         H           -2.067604378574     1.287956061848     0.838068036790     1.007825032230
         H           -2.692254378574    -1.277202938152    -0.834243963210     1.007825032230
         H           -1.205891378574    -2.164490938152    -0.449519963210     1.007825032230
         H           -2.067895378574    -1.289088938152     0.830826036790     1.007825032230
         H            2.562971621426    -0.000048938152     0.578158036790     1.007825032230

  Basis Set: AUG-CC-PVTZ
    Blend: AUG-CC-PVTZ
  Basis Set: (AUG-CC-PVTZ AUX)
    Blend: AUG-CC-PVTZ-JKFIT
	 Reference Energy          =    -628.6283832493710406 [Eh]
	 Singles Energy            =      -0.0000000000000000 [Eh]
	 Same-Spin Energy          =      -0.2913345401526061 [Eh]
	 Opposite-Spin Energy      =      -0.9557020703555176 [Eh]
	 Correlation Energy        =      -1.2470366105081236 [Eh]
	 Total Energy              =    -629.8754198598791163 [Eh]

	 ================> DF-SCS-MP2 Energies <==================
	-----------------------------------------------------------
	 SCS Same-Spin Scale       =       0.3333333333333333 [-]
	 SCS Opposite-Spin Scale   =       1.2000000000000000 [-]
	 SCS Same-Spin Energy      =      -0.0971115133842020 [Eh]
	 SCS Opposite-Spin Energy  =      -1.1468424844266210 [Eh]
	 SCS Correlation Energy    =      -1.2439539978108229 [Eh]
	 SCS Total Energy          =    -629.8723372471819175 [Eh]
	-----------------------------------------------------------

  Dipole Moment: [D]
     X:    -0.6419      Y:     0.0059      Z:    -1.5884     Total:     1.7132

*** Psi4 exiting successfully. Buy a developer a beer!
