                               Psi4 1.4a3.dev225

  ==> Input File <==

--------------------------------------------------------------------------
#psi4
#
memory 32 gb

molecule  {
0 1
  S        1.9015010     0.0014740    -0.5114990
  O        0.2966630    -0.0047940     1.6103990
  C       -0.8837990     0.0013960    -0.4908930
  C       -1.6918460     1.2669440    -0.1967440
  C       -1.6921440    -1.2655900    -0.2038620
  C        0.3503050    -0.0012110     0.3916140
  H       -0.5708550     0.0043180    -1.5417560
  H       -2.5996000     1.2838970    -0.8066260
  H       -1.1130310     2.1686550    -0.4169050
  H       -1.9752560     1.2862630     0.8584890
  H       -2.5999060    -1.2788960    -0.8138230
  H       -1.1135430    -2.1661840    -0.4290990
  H       -1.9755470    -1.2907820     0.8512470
  H        2.6665556    -0.0017899     0.6151246
units angstrom
no_reorient  #important for SAPT in psi4, default
symmetry c1  #important for SAPT in psi4, default
}

set PROPERTIES_ORIGIN ["COM"]
properties('MP2/aug-cc-pvtz', properties = ['dipole'])
--------------------------------------------------------------------------

    Molecular point group: c1
  Charge       = 0
  Multiplicity = 1
  Basis Set: AUG-CC-PVTZ
    Blend: AUG-CC-PVTZ
  Basis Set: (AUG-CC-PVTZ AUX)
    Blend: AUG-CC-PVTZ-JKFIT

    Orbital Energies [Eh]
    ---------------------

    Doubly Occupied:

       1A    -91.983803     2A    -20.560343     3A    -11.369507
       4A    -11.257933     5A    -11.230367     6A    -11.230351
       7A     -8.985306     8A     -6.666444     9A     -6.665371
      10A     -6.664609    11A     -1.398145    12A     -1.103396
      13A     -1.017891    14A     -0.946918    15A     -0.865697
      16A     -0.733681    17A     -0.669492    18A     -0.644898
      19A     -0.600225    20A     -0.598313    21A     -0.558255
      22A     -0.555679    23A     -0.529268    24A     -0.515946
      25A     -0.492491    26A     -0.490720    27A     -0.409093
      28A     -0.394003

  @DF-RHF Final Energy:  -628.63091909362583

   => Energetics <=

    Nuclear Repulsion Energy =            294.8674558935330765
    One-Electron Energy =               -1448.7204621133910223
    Two-Electron Energy =                 525.2220871262320543
    Total Energy =                       -628.6309190936258346
  Basis Set: (AUG-CC-PVTZ AUX)
    Blend: AUG-CC-PVTZ-RI
    Molecular point group: c1

    Geometry (in Angstrom), charge = 0, multiplicity = 1:

       Center              X                  Y                   Z               Mass
    ------------   -----------------  -----------------  -----------------  -----------------
         S            1.813291394802     0.001527454005    -0.527930589168    31.972071174400
         O            0.208453394802    -0.004740545995     1.593967410832    15.994914619570
         C           -0.972008605198     0.001449454005    -0.507324589168    12.000000000000
         C           -1.780055605198     1.266997454005    -0.213175589168    12.000000000000
         C           -1.780353605198    -1.265536545995    -0.220293589168    12.000000000000
         C            0.262095394802    -0.001157545995     0.375182410832    12.000000000000
         H           -0.659064605198     0.004371454005    -1.558187589168     1.007825032230
         H           -2.687809605198     1.283950454005    -0.823057589168     1.007825032230
         H           -1.201240605198     2.168708454005    -0.433336589168     1.007825032230
         H           -2.063465605198     1.286316454005     0.842057410832     1.007825032230
         H           -2.688115605198    -1.278842545995    -0.830254589168     1.007825032230
         H           -1.201752605198    -2.166130545995    -0.445530589168     1.007825032230
         H           -2.063756605198    -1.290728545995     0.834815410832     1.007825032230
         H            2.578345994802    -0.001736445995     0.598693010832     1.007825032230

  Basis Set: AUG-CC-PVTZ
    Blend: AUG-CC-PVTZ
  Basis Set: (AUG-CC-PVTZ AUX)
    Blend: AUG-CC-PVTZ-JKFIT
	 Reference Energy          =    -628.6309190936258346 [Eh]
	 Singles Energy            =      -0.0000000000000000 [Eh]
	 Same-Spin Energy          =      -0.2912503711785273 [Eh]
	 Opposite-Spin Energy      =      -0.9556827380389330 [Eh]
	 Correlation Energy        =      -1.2469331092174603 [Eh]
	 Total Energy              =    -629.8778522028433144 [Eh]

	 ================> DF-SCS-MP2 Energies <==================
	-----------------------------------------------------------
	 SCS Same-Spin Scale       =       0.3333333333333333 [-]
	 SCS Opposite-Spin Scale   =       1.2000000000000000 [-]
	 SCS Same-Spin Energy      =      -0.0970834570595091 [Eh]
	 SCS Opposite-Spin Energy  =      -1.1468192856467196 [Eh]
	 SCS Correlation Energy    =      -1.2439027427062288 [Eh]
	 SCS Total Energy          =    -629.8748218363321030 [Eh]
	-----------------------------------------------------------

  Dipole Moment: [D]
     X:    -0.6347      Y:     0.0048      Z:    -1.5928     Total:     1.7147

*** Psi4 exiting successfully. Buy a developer a beer!
