                               Psi4 1.4a3.dev225

  ==> Input File <==

--------------------------------------------------------------------------
#psi4
#
memory 32 gb

molecule  {
0 1
  S        1.9015010     0.0014740    -0.5114990
  O        0.2966630    -0.0047940     1.6103990
  C       -0.8837990     0.0013960    -0.4908930
  C       -1.6918460     1.2669440    -0.1967440
  C       -1.6921440    -1.2655900    -0.2038620
  C        0.3503050    -0.0012110     0.3916140
  H       -0.5765632     0.0042647    -1.5225880
  H       -2.5996000     1.2838970    -0.8066260
  H       -1.1130310     2.1686550    -0.4169050
  H       -1.9752560     1.2862630     0.8584890
  H       -2.5999060    -1.2788960    -0.8138230
  H       -1.1135430    -2.1661840    -0.4290990
  H       -1.9755470    -1.2907820     0.8512470
  H        2.6553200    -0.0017420     0.5985790
units angstrom
no_reorient  #important for SAPT in psi4, default
symmetry c1  #important for SAPT in psi4, default
}

set PROPERTIES_ORIGIN ["COM"]
properties('MP2/aug-cc-pvtz', properties = ['dipole'])
--------------------------------------------------------------------------

    Molecular point group: c1
  Charge       = 0
  Multiplicity = 1
  Basis Set: AUG-CC-PVTZ
    Blend: AUG-CC-PVTZ
  Basis Set: (AUG-CC-PVTZ AUX)
    Blend: AUG-CC-PVTZ-JKFIT

    Orbital Energies [Eh]
    ---------------------

    Doubly Occupied:

       1A    -91.982497     2A    -20.560305     3A    -11.369360
       4A    -11.255430     5A    -11.230178     6A    -11.230161
       7A     -8.984499     8A     -6.665672     9A     -6.664582
      10A     -6.663791    11A     -1.398101    12A     -1.104313
      13A     -1.019794    14A     -0.946763    15A     -0.867063
      16A     -0.736189    17A     -0.670923    18A     -0.645432
      19A     -0.601070    20A     -0.598190    21A     -0.558649
      22A     -0.555576    23A     -0.529196    24A     -0.517231
      25A     -0.494625    26A     -0.490508    27A     -0.409071
      28A     -0.394207

  @DF-RHF Final Energy:  -628.63145154365043

   => Energetics <=

    Nuclear Repulsion Energy =            295.0792702934304543
    One-Electron Energy =               -1449.1346914799842125
    Two-Electron Energy =                 525.4239696429033302
    Total Energy =                       -628.6314515436504280
  Basis Set: (AUG-CC-PVTZ AUX)
    Blend: AUG-CC-PVTZ-RI
    Molecular point group: c1

    Geometry (in Angstrom), charge = 0, multiplicity = 1:

       Center              X                  Y                   Z               Mass
    ------------   -----------------  -----------------  -----------------  -----------------
         S            1.813455544121     0.001527506319    -0.527955994636    31.972071174400
         O            0.208617544121    -0.004740493681     1.593942005364    15.994914619570
         C           -0.971844455879     0.001449506319    -0.507349994636    12.000000000000
         C           -1.779891455879     1.266997506319    -0.213200994636    12.000000000000
         C           -1.780189455879    -1.265536493681    -0.220318994636    12.000000000000
         C            0.262259544121    -0.001157493681     0.375157005364    12.000000000000
         H           -0.664608655879     0.004318206319    -1.539044994636     1.007825032230
         H           -2.687645455879     1.283950506319    -0.823082994636     1.007825032230
         H           -1.201076455879     2.168708506319    -0.433361994636     1.007825032230
         H           -2.063301455879     1.286316506319     0.842032005364     1.007825032230
         H           -2.687951455879    -1.278842493681    -0.830279994636     1.007825032230
         H           -1.201588455879    -2.166130493681    -0.445555994636     1.007825032230
         H           -2.063592455879    -1.290728493681     0.834790005364     1.007825032230
         H            2.567274544121    -0.001688493681     0.582122005364     1.007825032230

  Basis Set: AUG-CC-PVTZ
    Blend: AUG-CC-PVTZ
  Basis Set: (AUG-CC-PVTZ AUX)
    Blend: AUG-CC-PVTZ-JKFIT
	 Reference Energy          =    -628.6314515436504280 [Eh]
	 Singles Energy            =      -0.0000000000000000 [Eh]
	 Same-Spin Energy          =      -0.2912106771804636 [Eh]
	 Opposite-Spin Energy      =      -0.9554167171989615 [Eh]
	 Correlation Energy        =      -1.2466273943794250 [Eh]
	 Total Energy              =    -629.8780789380298302 [Eh]

	 ================> DF-SCS-MP2 Energies <==================
	-----------------------------------------------------------
	 SCS Same-Spin Scale       =       0.3333333333333333 [-]
	 SCS Opposite-Spin Scale   =       1.2000000000000000 [-]
	 SCS Same-Spin Energy      =      -0.0970702257268212 [Eh]
	 SCS Opposite-Spin Energy  =      -1.1465000606387536 [Eh]
	 SCS Correlation Energy    =      -1.2435702863655749 [Eh]
	 SCS Total Energy          =    -629.8750218300159531 [Eh]
	-----------------------------------------------------------

  Dipole Moment: [D]
     X:    -0.6323      Y:     0.0048      Z:    -1.6060     Total:     1.7260

*** Psi4 exiting successfully. Buy a developer a beer!
