                               Psi4 1.4a3.dev225

  ==> Input File <==

--------------------------------------------------------------------------
#psi4
#
memory 32 gb

molecule  {
0 1
  S        1.9015010     0.0014740    -0.5114990
  O        0.2966630    -0.0047940     1.6103990
  C       -0.8837990     0.0013960    -0.4908930
  C       -1.6918460     1.2669440    -0.1967440
  C       -1.6921440    -1.2655900    -0.2038620
  C        0.3503050    -0.0012110     0.3916140
  H       -0.5851255     0.0041848    -1.4938359
  H       -2.5996000     1.2838970    -0.8066260
  H       -1.1130310     2.1686550    -0.4169050
  H       -1.9752560     1.2862630     0.8584890
  H       -2.5999060    -1.2788960    -0.8138230
  H       -1.1135430    -2.1661840    -0.4290990
  H       -1.9755470    -1.2907820     0.8512470
  H        2.6553200    -0.0017420     0.5985790
units angstrom
no_reorient  #important for SAPT in psi4, default
symmetry c1  #important for SAPT in psi4, default
}

set PROPERTIES_ORIGIN ["COM"]
properties('MP2/aug-cc-pvtz', properties = ['dipole'])
--------------------------------------------------------------------------

    Molecular point group: c1
  Charge       = 0
  Multiplicity = 1
  Basis Set: AUG-CC-PVTZ
    Blend: AUG-CC-PVTZ
  Basis Set: (AUG-CC-PVTZ AUX)
    Blend: AUG-CC-PVTZ-JKFIT

    Orbital Energies [Eh]
    ---------------------

    Doubly Occupied:

       1A    -91.982552     2A    -20.560101     3A    -11.369105
       4A    -11.251715     5A    -11.229928     6A    -11.229911
       7A     -8.984566     8A     -6.665742     9A     -6.664654
      10A     -6.663862    11A     -1.397900    12A     -1.105765
      13A     -1.019850    14A     -0.946560    15A     -0.868108
      16A     -0.739721    17A     -0.672027    18A     -0.645307
      19A     -0.601396    20A     -0.597995    21A     -0.558542
      22A     -0.555434    23A     -0.529054    24A     -0.517654
      25A     -0.497156    26A     -0.490205    27A     -0.408934
      28A     -0.394273

  @DF-RHF Final Energy:  -628.63055447840213

   => Energetics <=

    Nuclear Repulsion Energy =            295.2321810028544746
    One-Electron Energy =               -1449.4294330206396353
    Two-Electron Energy =                 525.5666975393829716
    Total Energy =                       -628.6305544784021322
  Basis Set: (AUG-CC-PVTZ AUX)
    Blend: AUG-CC-PVTZ-RI
    Molecular point group: c1

    Geometry (in Angstrom), charge = 0, multiplicity = 1:

       Center              X                  Y                   Z               Mass
    ------------   -----------------  -----------------  -----------------  -----------------
         S            1.813538494565     0.001528280380    -0.528234541223    31.972071174400
         O            0.208700494565    -0.004739719620     1.593663458777    15.994914619570
         C           -0.971761505435     0.001450280380    -0.507628541223    12.000000000000
         C           -1.779808505435     1.266998280380    -0.213479541223    12.000000000000
         C           -1.780106505435    -1.265535719620    -0.220597541223    12.000000000000
         C            0.262342494565    -0.001156719620     0.374878458777    12.000000000000
         H           -0.673088005435     0.004239080380    -1.510571441223     1.007825032230
         H           -2.687562505435     1.283951280380    -0.823361541223     1.007825032230
         H           -1.200993505435     2.168709280380    -0.433640541223     1.007825032230
         H           -2.063218505435     1.286317280380     0.841753458777     1.007825032230
         H           -2.687868505435    -1.278841719620    -0.830558541223     1.007825032230
         H           -1.201505505435    -2.166129719620    -0.445834541223     1.007825032230
         H           -2.063509505435    -1.290727719620     0.834511458777     1.007825032230
         H            2.567357494565    -0.001687719620     0.581843458777     1.007825032230

  Basis Set: AUG-CC-PVTZ
    Blend: AUG-CC-PVTZ
  Basis Set: (AUG-CC-PVTZ AUX)
    Blend: AUG-CC-PVTZ-JKFIT
	 Reference Energy          =    -628.6305544784021322 [Eh]
	 Singles Energy            =      -0.0000000000000000 [Eh]
	 Same-Spin Energy          =      -0.2911820237221568 [Eh]
	 Opposite-Spin Energy      =      -0.9552244387120276 [Eh]
	 Correlation Energy        =      -1.2464064624341844 [Eh]
	 Total Energy              =    -629.8769609408362840 [Eh]

	 ================> DF-SCS-MP2 Energies <==================
	-----------------------------------------------------------
	 SCS Same-Spin Scale       =       0.3333333333333333 [-]
	 SCS Opposite-Spin Scale   =       1.2000000000000000 [-]
	 SCS Same-Spin Energy      =      -0.0970606745740523 [Eh]
	 SCS Opposite-Spin Energy  =      -1.1462693264544330 [Eh]
	 SCS Correlation Energy    =      -1.2433300010284853 [Eh]
	 SCS Total Energy          =    -629.8738844794306715 [Eh]
	-----------------------------------------------------------

  Dipole Moment: [D]
     X:    -0.6246      Y:     0.0049      Z:    -1.6175     Total:     1.7339

*** Psi4 exiting successfully. Buy a developer a beer!
