                               Psi4 1.4a3.dev225

  ==> Input File <==

--------------------------------------------------------------------------
#psi4
#
memory 32 gb

molecule  {
0 1
  S        1.9320744     0.0013139    -0.4568131
  O        0.2966630    -0.0047940     1.6103990
  C       -0.8837990     0.0013960    -0.4908930
  C       -1.6918460     1.2669440    -0.1967440
  C       -1.6921440    -1.2655900    -0.2038620
  C        0.3503050    -0.0012110     0.3916140
  H       -0.5708550     0.0043180    -1.5417560
  H       -2.5996000     1.2838970    -0.8066260
  H       -1.1130310     2.1686550    -0.4169050
  H       -1.9752560     1.2862630     0.8584890
  H       -2.5999060    -1.2788960    -0.8138230
  H       -1.1135430    -2.1661840    -0.4290990
  H       -1.9755470    -1.2907820     0.8512470
  H        2.6553200    -0.0017420     0.5985790
units angstrom
no_reorient  #important for SAPT in psi4, default
symmetry c1  #important for SAPT in psi4, default
}

set PROPERTIES_ORIGIN ["COM"]
properties('MP2/aug-cc-pvtz', properties = ['dipole'])
--------------------------------------------------------------------------

    Molecular point group: c1
  Charge       = 0
  Multiplicity = 1
  Basis Set: AUG-CC-PVTZ
    Blend: AUG-CC-PVTZ
  Basis Set: (AUG-CC-PVTZ AUX)
    Blend: AUG-CC-PVTZ-JKFIT

    Orbital Energies [Eh]
    ---------------------

    Doubly Occupied:

       1A    -91.976564     2A    -20.559499     3A    -11.369764
       4A    -11.259284     5A    -11.230971     6A    -11.230955
       7A     -8.980329     8A     -6.661674     9A     -6.660475
      10A     -6.659595    11A     -1.398462    12A     -1.103396
      13A     -1.024736    14A     -0.947473    15A     -0.869847
      16A     -0.735866    17A     -0.674504    18A     -0.646730
      19A     -0.604337    20A     -0.598634    21A     -0.558858
      22A     -0.556155    23A     -0.529663    24A     -0.518190
      25A     -0.494704    26A     -0.491310    27A     -0.408816
      28A     -0.393026

  @DF-RHF Final Energy:  -628.63018144548471

   => Energetics <=

    Nuclear Repulsion Energy =            295.0337157384731199
    One-Electron Energy =               -1449.0401617834709214
    Two-Electron Energy =                 525.3762645995130924
    Total Energy =                       -628.6301814454847090
  Basis Set: (AUG-CC-PVTZ AUX)
    Blend: AUG-CC-PVTZ-RI
    Molecular point group: c1

    Geometry (in Angstrom), charge = 0, multiplicity = 1:

       Center              X                  Y                   Z               Mass
    ------------   -----------------  -----------------  -----------------  -----------------
         S            1.834577327279     0.001416094502    -0.489891361359    31.972071174400
         O            0.199165927279    -0.004691805498     1.577320738641    15.994914619570
         C           -0.981296072721     0.001498194502    -0.523971261359    12.000000000000
         C           -1.789343072721     1.267046194502    -0.229822261359    12.000000000000
         C           -1.789641072721    -1.265487805498    -0.236940261359    12.000000000000
         C            0.252807927279    -0.001108805498     0.358535738641    12.000000000000
         H           -0.668352072721     0.004420194502    -1.574834261359     1.007825032230
         H           -2.697097072721     1.283999194502    -0.839704261359     1.007825032230
         H           -1.210528072721     2.168757194502    -0.449983261359     1.007825032230
         H           -2.072753072721     1.286365194502     0.825410738641     1.007825032230
         H           -2.697403072721    -1.278793805498    -0.846901261359     1.007825032230
         H           -1.211040072721    -2.166081805498    -0.462177261359     1.007825032230
         H           -2.073044072721    -1.290679805498     0.818168738641     1.007825032230
         H            2.557822927279    -0.001639805498     0.565500738641     1.007825032230

  Basis Set: AUG-CC-PVTZ
    Blend: AUG-CC-PVTZ
  Basis Set: (AUG-CC-PVTZ AUX)
    Blend: AUG-CC-PVTZ-JKFIT
	 Reference Energy          =    -628.6301814454847090 [Eh]
	 Singles Energy            =      -0.0000000000000000 [Eh]
	 Same-Spin Energy          =      -0.2908418287410752 [Eh]
	 Opposite-Spin Energy      =      -0.9547582477561957 [Eh]
	 Correlation Energy        =      -1.2456000764972708 [Eh]
	 Total Energy              =    -629.8757815219819349 [Eh]

	 ================> DF-SCS-MP2 Energies <==================
	-----------------------------------------------------------
	 SCS Same-Spin Scale       =       0.3333333333333333 [-]
	 SCS Opposite-Spin Scale   =       1.2000000000000000 [-]
	 SCS Same-Spin Energy      =      -0.0969472762470251 [Eh]
	 SCS Opposite-Spin Energy  =      -1.1457098973074347 [Eh]
	 SCS Correlation Energy    =      -1.2426571735544598 [Eh]
	 SCS Total Energy          =    -629.8728386190391575 [Eh]
	-----------------------------------------------------------

  Dipole Moment: [D]
     X:    -0.6953      Y:     0.0047      Z:    -1.5766     Total:     1.7231

*** Psi4 exiting successfully. Buy a developer a beer!
