                               Psi4 1.4a3.dev225

  ==> Input File <==

--------------------------------------------------------------------------
#psi4
#
memory 32 gb

molecule  {
0 1
  S        1.9015010     0.0014740    -0.5114990
  O        0.2966630    -0.0047940     1.6103990
  C       -0.8837990     0.0013960    -0.4908930
  C       -1.6918460     1.2669440    -0.1967440
  C       -1.6921440    -1.2655900    -0.2038620
  C        0.1876212    -0.0008673     0.2752789
  H       -0.5708550     0.0043180    -1.5417560
  H       -2.5996000     1.2838970    -0.8066260
  H       -1.1130310     2.1686550    -0.4169050
  H       -1.9752560     1.2862630     0.8584890
  H       -2.5999060    -1.2788960    -0.8138230
  H       -1.1135430    -2.1661840    -0.4290990
  H       -1.9755470    -1.2907820     0.8512470
  H        2.6553200    -0.0017420     0.5985790
units angstrom
no_reorient  #important for SAPT in psi4, default
symmetry c1  #important for SAPT in psi4, default
}

set PROPERTIES_ORIGIN ["COM"]
properties('MP2/aug-cc-pvtz', properties = ['dipole'])
--------------------------------------------------------------------------

    Molecular point group: c1
  Charge       = 0
  Multiplicity = 1
  Basis Set: AUG-CC-PVTZ
    Blend: AUG-CC-PVTZ
  Basis Set: (AUG-CC-PVTZ AUX)
    Blend: AUG-CC-PVTZ-JKFIT

    Orbital Energies [Eh]
    ---------------------

    Doubly Occupied:

       1A    -91.978459     2A    -20.549130     3A    -11.383670
       4A    -11.257207     5A    -11.245450     6A    -11.245427
       7A     -8.978652     8A     -6.659781     9A     -6.658880
      10A     -6.658135    11A     -1.327457    12A     -1.150984
      13A     -0.998967    14A     -0.962098    15A     -0.911988
      16A     -0.738794    17A     -0.678235    18A     -0.636152
      19A     -0.613527    20A     -0.586509    21A     -0.565121
      22A     -0.544470    23A     -0.527600    24A     -0.524000
      25A     -0.499223    26A     -0.468667    27A     -0.404054
      28A     -0.381289

  @DF-RHF Final Energy:  -628.56623274845640

   => Energetics <=

    Nuclear Repulsion Energy =            295.0651515855528828
    One-Electron Energy =               -1448.9949185311097608
    Two-Electron Energy =                 525.3635341971004209
    Total Energy =                       -628.5662327484564003
  Basis Set: (AUG-CC-PVTZ AUX)
    Blend: AUG-CC-PVTZ-RI
    Molecular point group: c1

    Geometry (in Angstrom), charge = 0, multiplicity = 1:

       Center              X                  Y                   Z               Mass
    ------------   -----------------  -----------------  -----------------  -----------------
         S            1.832166112980     0.001487343542    -0.514350834375    31.972071174400
         O            0.227328112980    -0.004780656458     1.607547165625    15.994914619570
         C           -0.953133887020     0.001409343542    -0.493744834375    12.000000000000
         C           -1.761180887020     1.266957343542    -0.199595834375    12.000000000000
         C           -1.761478887020    -1.265576656458    -0.206713834375    12.000000000000
         C            0.118286312980    -0.000853956458     0.272427065625    12.000000000000
         H           -0.640189887020     0.004331343542    -1.544607834375     1.007825032230
         H           -2.668934887020     1.283910343542    -0.809477834375     1.007825032230
         H           -1.182365887020     2.168668343542    -0.419756834375     1.007825032230
         H           -2.044590887020     1.286276343542     0.855637165625     1.007825032230
         H           -2.669240887020    -1.278882656458    -0.816674834375     1.007825032230
         H           -1.182877887020    -2.166170656458    -0.431950834375     1.007825032230
         H           -2.044881887020    -1.290768656458     0.848395165625     1.007825032230
         H            2.585985112980    -0.001728656458     0.595727165625     1.007825032230

  Basis Set: AUG-CC-PVTZ
    Blend: AUG-CC-PVTZ
  Basis Set: (AUG-CC-PVTZ AUX)
    Blend: AUG-CC-PVTZ-JKFIT
	 Reference Energy          =    -628.5662327484564003 [Eh]
	 Singles Energy            =      -0.0000000000000000 [Eh]
	 Same-Spin Energy          =      -0.2966276815164885 [Eh]
	 Opposite-Spin Energy      =      -0.9657516404208135 [Eh]
	 Correlation Energy        =      -1.2623793219373021 [Eh]
	 Total Energy              =    -629.8286120703936604 [Eh]

	 ================> DF-SCS-MP2 Energies <==================
	-----------------------------------------------------------
	 SCS Same-Spin Scale       =       0.3333333333333333 [-]
	 SCS Opposite-Spin Scale   =       1.2000000000000000 [-]
	 SCS Same-Spin Energy      =      -0.0988758938388295 [Eh]
	 SCS Opposite-Spin Energy  =      -1.1589019685049762 [Eh]
	 SCS Correlation Energy    =      -1.2577778623438056 [Eh]
	 SCS Total Energy          =    -629.8240106108002010 [Eh]
	-----------------------------------------------------------

  Dipole Moment: [D]
     X:    -1.6482      Y:     0.0057      Z:    -1.8924     Total:     2.5095

*** Psi4 exiting successfully. Buy a developer a beer!
