                               Psi4 1.4a3.dev225

  ==> Input File <==

--------------------------------------------------------------------------
#psi4
#
memory 32 gb

molecule  {
0 1
  S        1.9015010     0.0014740    -0.5114990
  O        0.2966630    -0.0047940     1.6103990
  C       -0.8837990     0.0013960    -0.4908930
  C       -1.6918460     1.2669440    -0.1967440
  C       -1.6921440    -1.2655900    -0.2038620
  C        0.3503050    -0.0012110     0.3916140
  H       -0.5708550     0.0043180    -1.5417560
  H       -2.5996000     1.2838970    -0.8066260
  H       -1.1130310     2.1686550    -0.4169050
  H       -1.9752560     1.2862630     0.8584890
  H       -2.5999060    -1.2788960    -0.8138230
  H       -1.1135430    -2.1661840    -0.4290990
  H       -1.9755470    -1.2907820     0.8512470
  H        2.6834091    -0.0018618     0.6399431
units angstrom
no_reorient  #important for SAPT in psi4, default
symmetry c1  #important for SAPT in psi4, default
}

set PROPERTIES_ORIGIN ["COM"]
properties('MP2/aug-cc-pvtz', properties = ['dipole'])
--------------------------------------------------------------------------

    Molecular point group: c1
  Charge       = 0
  Multiplicity = 1
  Basis Set: AUG-CC-PVTZ
    Blend: AUG-CC-PVTZ
  Basis Set: (AUG-CC-PVTZ AUX)
    Blend: AUG-CC-PVTZ-JKFIT

    Orbital Energies [Eh]
    ---------------------

    Doubly Occupied:

       1A    -91.985728     2A    -20.560189     3A    -11.369459
       4A    -11.258021     5A    -11.230385     6A    -11.230369
       7A     -8.986555     8A     -6.667649     9A     -6.666589
      10A     -6.665867    11A     -1.398000    12A     -1.103338
      13A     -1.015301    14A     -0.946934    15A     -0.864614
      16A     -0.733237    17A     -0.668616    18A     -0.643968
      19A     -0.599293    20A     -0.598289    21A     -0.557541
      22A     -0.555680    23A     -0.529226    24A     -0.514303
      25A     -0.491910    26A     -0.490714    27A     -0.408985
      28A     -0.393778

  @DF-RHF Final Energy:  -628.62956929507664

   => Energetics <=

    Nuclear Repulsion Energy =            294.7034760902607786
    One-Electron Energy =               -1448.3970094230251107
    Two-Electron Energy =                 525.0639640376875832
    Total Energy =                       -628.6295692950766352
  Basis Set: (AUG-CC-PVTZ AUX)
    Blend: AUG-CC-PVTZ-RI
    Molecular point group: c1

    Geometry (in Angstrom), charge = 0, multiplicity = 1:

       Center              X                  Y                   Z               Mass
    ------------   -----------------  -----------------  -----------------  -----------------
         S            1.813128120297     0.001528150563    -0.528171027552    31.972071174400
         O            0.208290120297    -0.004739849437     1.593726972448    15.994914619570
         C           -0.972171879703     0.001450150563    -0.507565027552    12.000000000000
         C           -1.780218879703     1.266998150563    -0.213416027552    12.000000000000
         C           -1.780516879703    -1.265535849437    -0.220534027552    12.000000000000
         C            0.261932120297    -0.001156849437     0.374941972448    12.000000000000
         H           -0.659227879703     0.004372150563    -1.558428027552     1.007825032230
         H           -2.687972879703     1.283951150563    -0.823298027552     1.007825032230
         H           -1.201403879703     2.168709150563    -0.433577027552     1.007825032230
         H           -2.063628879703     1.286317150563     0.841816972448     1.007825032230
         H           -2.688278879703    -1.278841849437    -0.830495027552     1.007825032230
         H           -1.201915879703    -2.166129849437    -0.445771027552     1.007825032230
         H           -2.063919879703    -1.290727849437     0.834574972448     1.007825032230
         H            2.595036220297    -0.001807649437     0.623271072448     1.007825032230

  Basis Set: AUG-CC-PVTZ
    Blend: AUG-CC-PVTZ
  Basis Set: (AUG-CC-PVTZ AUX)
    Blend: AUG-CC-PVTZ-JKFIT
	 Reference Energy          =    -628.6295692950766352 [Eh]
	 Singles Energy            =      -0.0000000000000000 [Eh]
	 Same-Spin Energy          =      -0.2912829571660379 [Eh]
	 Opposite-Spin Energy      =      -0.9558924563104673 [Eh]
	 Correlation Energy        =      -1.2471754134765052 [Eh]
	 Total Energy              =    -629.8767447085531330 [Eh]

	 ================> DF-SCS-MP2 Energies <==================
	-----------------------------------------------------------
	 SCS Same-Spin Scale       =       0.3333333333333333 [-]
	 SCS Opposite-Spin Scale   =       1.2000000000000000 [-]
	 SCS Same-Spin Energy      =      -0.0970943190553460 [Eh]
	 SCS Opposite-Spin Energy  =      -1.1470709475725607 [Eh]
	 SCS Correlation Energy    =      -1.2441652666279066 [Eh]
	 SCS Total Energy          =    -629.8737345617045094 [Eh]
	-----------------------------------------------------------

  Dipole Moment: [D]
     X:    -0.6307      Y:     0.0048      Z:    -1.5856     Total:     1.7065

*** Psi4 exiting successfully. Buy a developer a beer!
