                               Psi4 1.4a3.dev225

  ==> Input File <==

--------------------------------------------------------------------------
#psi4
#
memory 32 gb

molecule  {
0 1
  S        1.9015010     0.0014740    -0.5114990
  O        0.2966630    -0.0047940     1.6103990
  C       -0.8837990     0.0013960    -0.4908930
  C       -1.6918460     1.2669440    -0.1967440
  C       -1.6921440    -1.2655900    -0.2038620
  C        0.3503050    -0.0012110     0.3916140
  H       -0.5423141     0.0045845    -1.6375962
  H       -2.5996000     1.2838970    -0.8066260
  H       -1.1130310     2.1686550    -0.4169050
  H       -1.9752560     1.2862630     0.8584890
  H       -2.5999060    -1.2788960    -0.8138230
  H       -1.1135430    -2.1661840    -0.4290990
  H       -1.9755470    -1.2907820     0.8512470
  H        2.6553200    -0.0017420     0.5985790
units angstrom
no_reorient  #important for SAPT in psi4, default
symmetry c1  #important for SAPT in psi4, default
}

set PROPERTIES_ORIGIN ["COM"]
properties('MP2/aug-cc-pvtz', properties = ['dipole'])
--------------------------------------------------------------------------

    Molecular point group: c1
  Charge       = 0
  Multiplicity = 1
  Basis Set: AUG-CC-PVTZ
    Blend: AUG-CC-PVTZ
  Basis Set: (AUG-CC-PVTZ AUX)
    Blend: AUG-CC-PVTZ-JKFIT

    Orbital Energies [Eh]
    ---------------------

    Doubly Occupied:

       1A    -91.982319     2A    -20.561288     3A    -11.370600
       4A    -11.269664     5A    -11.231397     6A    -11.231383
       7A     -8.984262     8A     -6.665423     9A     -6.664324
      10A     -6.663535    11A     -1.399071    12A     -1.100165
      13A     -1.019651    14A     -0.947771    15A     -0.864316
      16A     -0.725137    17A     -0.665869    18A     -0.646103
      19A     -0.599788    20A     -0.599186    21A     -0.559180
      22A     -0.556311    23A     -0.529912    24A     -0.516300
      25A     -0.491995    26A     -0.482453    27A     -0.409750
      28A     -0.393956

  @DF-RHF Final Energy:  -628.62474019135323

   => Energetics <=

    Nuclear Repulsion Energy =            294.5132225377486179
    One-Electron Energy =               -1448.0137087109626464
    Two-Electron Energy =                 524.8757459818608595
    Total Energy =                       -628.6247401913532258
  Basis Set: (AUG-CC-PVTZ AUX)
    Blend: AUG-CC-PVTZ-RI
    Molecular point group: c1

    Geometry (in Angstrom), charge = 0, multiplicity = 1:

       Center              X                  Y                   Z               Mass
    ------------   -----------------  -----------------  -----------------  -----------------
         S            1.813123743317     0.001524408139    -0.526841810227    31.972071174400
         O            0.208285743317    -0.004743591861     1.595056189773    15.994914619570
         C           -0.972176256683     0.001446408139    -0.506235810227    12.000000000000
         C           -1.780223256683     1.266994408139    -0.212086810227    12.000000000000
         C           -1.780521256683    -1.265539591861    -0.219204810227    12.000000000000
         C            0.261927743317    -0.001160591861     0.376271189773    12.000000000000
         H           -0.630691356683     0.004634908139    -1.652939010227     1.007825032230
         H           -2.687977256683     1.283947408139    -0.821968810227     1.007825032230
         H           -1.201408256683     2.168705408139    -0.432247810227     1.007825032230
         H           -2.063633256683     1.286313408139     0.843146189773     1.007825032230
         H           -2.688283256683    -1.278845591861    -0.829165810227     1.007825032230
         H           -1.201920256683    -2.166133591861    -0.444441810227     1.007825032230
         H           -2.063924256683    -1.290731591861     0.835904189773     1.007825032230
         H            2.566942743317    -0.001691591861     0.583236189773     1.007825032230

  Basis Set: AUG-CC-PVTZ
    Blend: AUG-CC-PVTZ
  Basis Set: (AUG-CC-PVTZ AUX)
    Blend: AUG-CC-PVTZ-JKFIT
	 Reference Energy          =    -628.6247401913532258 [Eh]
	 Singles Energy            =      -0.0000000000000000 [Eh]
	 Same-Spin Energy          =      -0.2913543338476755 [Eh]
	 Opposite-Spin Energy      =      -0.9564072541816998 [Eh]
	 Correlation Energy        =      -1.2477615880293753 [Eh]
	 Total Energy              =    -629.8725017793825600 [Eh]

	 ================> DF-SCS-MP2 Energies <==================
	-----------------------------------------------------------
	 SCS Same-Spin Scale       =       0.3333333333333333 [-]
	 SCS Opposite-Spin Scale   =       1.2000000000000000 [-]
	 SCS Same-Spin Energy      =      -0.0971181112825585 [Eh]
	 SCS Opposite-Spin Energy  =      -1.1476887050180398 [Eh]
	 SCS Correlation Energy    =      -1.2448068163005983 [Eh]
	 SCS Total Energy          =    -629.8695470076538641 [Eh]
	-----------------------------------------------------------

  Dipole Moment: [D]
     X:    -0.6667      Y:     0.0046      Z:    -1.5454     Total:     1.6831

*** Psi4 exiting successfully. Buy a developer a beer!
