                               Psi4 1.4a3.dev225

  ==> Input File <==

--------------------------------------------------------------------------
#psi4
#
memory 32 gb

molecule  {
0 1
  S        1.9015010     0.0014740    -0.5114990
  O        0.2966630    -0.0047940     1.6103990
  C       -0.8949789    -0.0251394    -0.3880515
  C       -1.6918460     1.2669440    -0.1967440
  C       -1.6921440    -1.2655900    -0.2038620
  C        0.3503050    -0.0012110     0.3916140
  H       -0.5708550     0.0043180    -1.5417560
  H       -2.5996000     1.2838970    -0.8066260
  H       -1.1130310     2.1686550    -0.4169050
  H       -1.9752560     1.2862630     0.8584890
  H       -2.5999060    -1.2788960    -0.8138230
  H       -1.1135430    -2.1661840    -0.4290990
  H       -1.9755470    -1.2907820     0.8512470
  H        2.6553200    -0.0017420     0.5985790
units angstrom
no_reorient  #important for SAPT in psi4, default
symmetry c1  #important for SAPT in psi4, default
}

set PROPERTIES_ORIGIN ["COM"]
properties('MP2/aug-cc-pvtz', properties = ['dipole'])
--------------------------------------------------------------------------

    Molecular point group: c1
  Charge       = 0
  Multiplicity = 1
  Basis Set: AUG-CC-PVTZ
    Blend: AUG-CC-PVTZ
  Basis Set: (AUG-CC-PVTZ AUX)
    Blend: AUG-CC-PVTZ-JKFIT

    Orbital Energies [Eh]
    ---------------------

    Doubly Occupied:

       1A    -91.985276     2A    -20.559374     3A    -11.367580
       4A    -11.261050     5A    -11.231745     6A    -11.229359
       7A     -8.986980     8A     -6.668127     9A     -6.667084
      10A     -6.666261    11A     -1.400477    12A     -1.109317
      13A     -1.022228    14A     -0.951847    15A     -0.874045
      16A     -0.722797    17A     -0.671847    18A     -0.648239
      19A     -0.605835    20A     -0.602312    21A     -0.562208
      22A     -0.553490    23A     -0.530133    24A     -0.521610
      25A     -0.499745    26A     -0.460854    27A     -0.415288
      28A     -0.395233

  @DF-RHF Final Energy:  -628.61846014940716

   => Energetics <=

    Nuclear Repulsion Energy =            295.8886406130399109
    One-Electron Energy =               -1450.6735144946117089
    Two-Electron Energy =                 526.1664137321647559
    Total Energy =                       -628.6184601494071558
  Basis Set: (AUG-CC-PVTZ AUX)
    Blend: AUG-CC-PVTZ-RI
    Molecular point group: c1

    Geometry (in Angstrom), charge = 0, multiplicity = 1:

       Center              X                  Y                   Z               Mass
    ------------   -----------------  -----------------  -----------------  -----------------
         S            1.814689865414     0.004587896108    -0.539633249693    31.972071174400
         O            0.209851865414    -0.001680103892     1.582264750307    15.994914619570
         C           -0.981790034586    -0.022025503892    -0.416185749693    12.000000000000
         C           -1.778657134586     1.270057896108    -0.224878249693    12.000000000000
         C           -1.778955134586    -1.262476103892    -0.231996249693    12.000000000000
         C            0.263493865414     0.001902896108     0.363479750307    12.000000000000
         H           -0.657666134586     0.007431896108    -1.569890249693     1.007825032230
         H           -2.686411134586     1.287010896108    -0.834760249693     1.007825032230
         H           -1.199842134586     2.171768896108    -0.445039249693     1.007825032230
         H           -2.062067134586     1.289376896108     0.830354750307     1.007825032230
         H           -2.686717134586    -1.275782103892    -0.841957249693     1.007825032230
         H           -1.200354134586    -2.163070103892    -0.457233249693     1.007825032230
         H           -2.062358134586    -1.287668103892     0.823112750307     1.007825032230
         H            2.568508865414     0.001371896108     0.570444750307     1.007825032230

  Basis Set: AUG-CC-PVTZ
    Blend: AUG-CC-PVTZ
  Basis Set: (AUG-CC-PVTZ AUX)
    Blend: AUG-CC-PVTZ-JKFIT
	 Reference Energy          =    -628.6184601494071558 [Eh]
	 Singles Energy            =      -0.0000000000000000 [Eh]
	 Same-Spin Energy          =      -0.2918065696533764 [Eh]
	 Opposite-Spin Energy      =      -0.9568624067372216 [Eh]
	 Correlation Energy        =      -1.2486689763905980 [Eh]
	 Total Energy              =    -629.8671291257977600 [Eh]

	 ================> DF-SCS-MP2 Energies <==================
	-----------------------------------------------------------
	 SCS Same-Spin Scale       =       0.3333333333333333 [-]
	 SCS Opposite-Spin Scale   =       1.2000000000000000 [-]
	 SCS Same-Spin Energy      =      -0.0972688565511255 [Eh]
	 SCS Opposite-Spin Energy  =      -1.1482348880846658 [Eh]
	 SCS Correlation Energy    =      -1.2455037446357913 [Eh]
	 SCS Total Energy          =    -629.8639638940429677 [Eh]
	-----------------------------------------------------------

  Dipole Moment: [D]
     X:    -0.6213      Y:    -0.0084      Z:    -1.5584     Total:     1.6777

*** Psi4 exiting successfully. Buy a developer a beer!
