                               Psi4 1.4a3.dev225

  ==> Input File <==

--------------------------------------------------------------------------
#psi4
#
memory 32 gb

molecule  {
0 1
  S        1.9015010     0.0014740    -0.5114990
  O        0.2966630    -0.0047940     1.6103990
  C       -0.8837990     0.0013960    -0.4908930
  C       -1.6918460     1.2669440    -0.1967440
  C       -1.6921440    -1.2655900    -0.2038620
  C        0.3503050    -0.0012110     0.3916140
  H       -0.5708550     0.0043180    -1.5417560
  H       -2.5996000     1.2838970    -0.8066260
  H       -1.1130310     2.1686550    -0.4169050
  H       -1.9752560     1.2862630     0.8584890
  H       -2.5999060    -1.2788960    -0.8138230
  H       -1.1102059    -2.1542023    -0.4651982
  H       -1.9755470    -1.2907820     0.8512470
  H        2.6553200    -0.0017420     0.5985790
units angstrom
no_reorient  #important for SAPT in psi4, default
symmetry c1  #important for SAPT in psi4, default
}

set PROPERTIES_ORIGIN ["COM"]
properties('MP2/aug-cc-pvtz', properties = ['dipole'])
--------------------------------------------------------------------------

    Molecular point group: c1
  Charge       = 0
  Multiplicity = 1
  Basis Set: AUG-CC-PVTZ
    Blend: AUG-CC-PVTZ
  Basis Set: (AUG-CC-PVTZ AUX)
    Blend: AUG-CC-PVTZ-JKFIT

    Orbital Energies [Eh]
    ---------------------

    Doubly Occupied:

       1A    -91.982475     2A    -20.560444     3A    -11.369509
       4A    -11.257644     5A    -11.230448     6A    -11.230186
       7A     -8.984468     8A     -6.665639     9A     -6.664549
      10A     -6.663758    11A     -1.398228    12A     -1.103515
      13A     -1.019773    14A     -0.946926    15A     -0.866303
      16A     -0.733673    17A     -0.670459    18A     -0.645046
      19A     -0.601351    20A     -0.598393    21A     -0.558445
      22A     -0.557162    23A     -0.528276    24A     -0.516916
      25A     -0.493551    26A     -0.489777    27A     -0.409166
      28A     -0.394179

  @DF-RHF Final Energy:  -628.63120701158698

   => Energetics <=

    Nuclear Repulsion Energy =            294.9935062192226383
    One-Electron Energy =               -1448.9689105860493328
    Two-Electron Energy =                 525.3441973552397712
    Total Energy =                       -628.6312070115869801
  Basis Set: (AUG-CC-PVTZ AUX)
    Blend: AUG-CC-PVTZ-RI
    Molecular point group: c1

    Geometry (in Angstrom), charge = 0, multiplicity = 1:

       Center              X                  Y                   Z               Mass
    ------------   -----------------  -----------------  -----------------  -----------------
         S            1.813367914437     0.001410912812    -0.527420573227    31.972071174400
         O            0.208529914437    -0.004857087188     1.594477426773    15.994914619570
         C           -0.971932085563     0.001332912812    -0.506814573227    12.000000000000
         C           -1.779979085563     1.266880912812    -0.212665573227    12.000000000000
         C           -1.780277085563    -1.265653087188    -0.219783573227    12.000000000000
         C            0.262171914437    -0.001274087188     0.375692426773    12.000000000000
         H           -0.658988085563     0.004254912812    -1.557677573227     1.007825032230
         H           -2.687733085563     1.283833912812    -0.822547573227     1.007825032230
         H           -1.201164085563     2.168591912812    -0.432826573227     1.007825032230
         H           -2.063389085563     1.286199912812     0.842567426773     1.007825032230
         H           -2.688039085563    -1.278959087188    -0.829744573227     1.007825032230
         H           -1.198338985563    -2.154265387188    -0.481119773227     1.007825032230
         H           -2.063680085563    -1.290845087188     0.835325426773     1.007825032230
         H            2.567186914437    -0.001805087188     0.582657426773     1.007825032230

  Basis Set: AUG-CC-PVTZ
    Blend: AUG-CC-PVTZ
  Basis Set: (AUG-CC-PVTZ AUX)
    Blend: AUG-CC-PVTZ-JKFIT
	 Reference Energy          =    -628.6312070115869801 [Eh]
	 Singles Energy            =      -0.0000000000000000 [Eh]
	 Same-Spin Energy          =      -0.2912423882145811 [Eh]
	 Opposite-Spin Energy      =      -0.9555895214544148 [Eh]
	 Correlation Energy        =      -1.2468319096689959 [Eh]
	 Total Energy              =    -629.8780389212560067 [Eh]

	 ================> DF-SCS-MP2 Energies <==================
	-----------------------------------------------------------
	 SCS Same-Spin Scale       =       0.3333333333333333 [-]
	 SCS Opposite-Spin Scale   =       1.2000000000000000 [-]
	 SCS Same-Spin Energy      =      -0.0970807960715270 [Eh]
	 SCS Opposite-Spin Energy  =      -1.1467074257452976 [Eh]
	 SCS Correlation Energy    =      -1.2437882218168246 [Eh]
	 SCS Total Energy          =    -629.8749952334037516 [Eh]
	-----------------------------------------------------------

  Dipole Moment: [D]
     X:    -0.6391      Y:     0.0065      Z:    -1.6083     Total:     1.7307

*** Psi4 exiting successfully. Buy a developer a beer!
