                               Psi4 1.4a3.dev225

  ==> Input File <==

--------------------------------------------------------------------------
#psi4
#
memory 32 gb

molecule  {
0 1
  S        1.9607206     0.0011507    -0.4010936
  O        0.2966630    -0.0047940     1.6103990
  C       -0.8837990     0.0013960    -0.4908930
  C       -1.6918460     1.2669440    -0.1967440
  C       -1.6921440    -1.2655900    -0.2038620
  C        0.3503050    -0.0012110     0.3916140
  H       -0.5708550     0.0043180    -1.5417560
  H       -2.5996000     1.2838970    -0.8066260
  H       -1.1130310     2.1686550    -0.4169050
  H       -1.9752560     1.2862630     0.8584890
  H       -2.5999060    -1.2788960    -0.8138230
  H       -1.1135430    -2.1661840    -0.4290990
  H       -1.9755470    -1.2907820     0.8512470
  H        2.6553200    -0.0017420     0.5985790
units angstrom
no_reorient  #important for SAPT in psi4, default
symmetry c1  #important for SAPT in psi4, default
}

set PROPERTIES_ORIGIN ["COM"]
properties('MP2/aug-cc-pvtz', properties = ['dipole'])
--------------------------------------------------------------------------

    Molecular point group: c1
  Charge       = 0
  Multiplicity = 1
  Basis Set: AUG-CC-PVTZ
    Blend: AUG-CC-PVTZ
  Basis Set: (AUG-CC-PVTZ AUX)
    Blend: AUG-CC-PVTZ-JKFIT

    Orbital Energies [Eh]
    ---------------------

    Doubly Occupied:

       1A    -91.970149     2A    -20.558654     3A    -11.370202
       4A    -11.260825     5A    -11.231665     6A    -11.231649
       7A     -8.976103     8A     -6.657740     9A     -6.656196
      10A     -6.655260    11A     -1.398873    12A     -1.103555
      13A     -1.031016    14A     -0.948121    15A     -0.873410
      16A     -0.738585    17A     -0.679886    18A     -0.647569
      19A     -0.607832    20A     -0.599062    21A     -0.558634
      22A     -0.556714    23A     -0.530129    24A     -0.518921
      25A     -0.496183    26A     -0.491992    27A     -0.408109
      28A     -0.391915

  @DF-RHF Final Energy:  -628.62262254029406

   => Energetics <=

    Nuclear Repulsion Energy =            295.1544066396622270
    One-Electron Energy =               -1449.2561616169705303
    Two-Electron Energy =                 525.4791324370141865
    Total Energy =                       -628.6226225402940599
  Basis Set: (AUG-CC-PVTZ AUX)
    Blend: AUG-CC-PVTZ-RI
    Molecular point group: c1

    Geometry (in Angstrom), charge = 0, multiplicity = 1:

       Center              X                  Y                   Z               Mass
    ------------   -----------------  -----------------  -----------------  -----------------
         S            1.854419509306     0.001303051791    -0.451296487991    31.972071174400
         O            0.190361909306    -0.004641648209     1.560196112009    15.994914619570
         C           -0.990100090694     0.001548351791    -0.541095887991    12.000000000000
         C           -1.798147090694     1.267096351791    -0.246946887991    12.000000000000
         C           -1.798445090694    -1.265437648209    -0.254064887991    12.000000000000
         C            0.244003909306    -0.001058648209     0.341411112009    12.000000000000
         H           -0.677156090694     0.004470351791    -1.591958887991     1.007825032230
         H           -2.705901090694     1.284049351791    -0.856828887991     1.007825032230
         H           -1.219332090694     2.168807351791    -0.467107887991     1.007825032230
         H           -2.081557090694     1.286415351791     0.808286112009     1.007825032230
         H           -2.706207090694    -1.278743648209    -0.864025887991     1.007825032230
         H           -1.219844090694    -2.166031648209    -0.479301887991     1.007825032230
         H           -2.081848090694    -1.290629648209     0.801044112009     1.007825032230
         H            2.549018909306    -0.001589648209     0.548376112009     1.007825032230

  Basis Set: AUG-CC-PVTZ
    Blend: AUG-CC-PVTZ
  Basis Set: (AUG-CC-PVTZ AUX)
    Blend: AUG-CC-PVTZ-JKFIT
	 Reference Energy          =    -628.6226225402940599 [Eh]
	 Singles Energy            =      -0.0000000000000000 [Eh]
	 Same-Spin Energy          =      -0.2905279225310087 [Eh]
	 Opposite-Spin Energy      =      -0.9541846514092782 [Eh]
	 Correlation Energy        =      -1.2447125739402869 [Eh]
	 Total Energy              =    -629.8673351142343790 [Eh]

	 ================> DF-SCS-MP2 Energies <==================
	-----------------------------------------------------------
	 SCS Same-Spin Scale       =       0.3333333333333333 [-]
	 SCS Opposite-Spin Scale   =       1.2000000000000000 [-]
	 SCS Same-Spin Energy      =      -0.0968426408436696 [Eh]
	 SCS Opposite-Spin Energy  =      -1.1450215816911338 [Eh]
	 SCS Correlation Energy    =      -1.2418642225348033 [Eh]
	 SCS Total Energy          =    -629.8644867628288466 [Eh]
	-----------------------------------------------------------

  Dipole Moment: [D]
     X:    -0.7670      Y:     0.0047      Z:    -1.5527     Total:     1.7318

*** Psi4 exiting successfully. Buy a developer a beer!
