                               Psi4 1.4a3.dev225

  ==> Input File <==

--------------------------------------------------------------------------
#psi4
#
memory 32 gb

molecule  {
0 1
  S        1.9015010     0.0014740    -0.5114990
  O        0.2966630    -0.0047940     1.6103990
  C       -0.8837990     0.0013960    -0.4908930
  C       -1.6918460     1.2669440    -0.1967440
  C       -1.6921440    -1.2655900    -0.2038620
  C        0.3415110    -0.0017984     0.5914197
  H       -0.5708550     0.0043180    -1.5417560
  H       -2.5996000     1.2838970    -0.8066260
  H       -1.1130310     2.1686550    -0.4169050
  H       -1.9752560     1.2862630     0.8584890
  H       -2.5999060    -1.2788960    -0.8138230
  H       -1.1135430    -2.1661840    -0.4290990
  H       -1.9755470    -1.2907820     0.8512470
  H        2.6553200    -0.0017420     0.5985790
units angstrom
no_reorient  #important for SAPT in psi4, default
symmetry c1  #important for SAPT in psi4, default
}

set PROPERTIES_ORIGIN ["COM"]
properties('MP2/aug-cc-pvtz', properties = ['dipole'])
--------------------------------------------------------------------------

    Molecular point group: c1
  Charge       = 0
  Multiplicity = 1
  Basis Set: AUG-CC-PVTZ
    Blend: AUG-CC-PVTZ
  Basis Set: (AUG-CC-PVTZ AUX)
    Blend: AUG-CC-PVTZ-JKFIT

    Orbital Energies [Eh]
    ---------------------

    Doubly Occupied:

       1A    -91.950708     2A    -20.594872     3A    -11.357666
       4A    -11.258150     5A    -11.229347     6A    -11.229331
       7A     -8.952940     8A     -6.634001     9A     -6.632809
      10A     -6.631983    11A     -1.572846    12A     -1.089460
      13A     -0.982819    14A     -0.946525    15A     -0.842026
      16A     -0.765405    17A     -0.720116    18A     -0.675291
      19A     -0.662656    20A     -0.620608    21A     -0.567505
      22A     -0.566457    23A     -0.549120    24A     -0.517381
      25A     -0.496255    26A     -0.486250    27A     -0.376391
      28A     -0.361019

  @DF-RHF Final Energy:  -628.56248747218865

   => Energetics <=

    Nuclear Repulsion Energy =            295.9835641630758118
    One-Electron Energy =               -1450.5522340035336128
    Two-Electron Energy =                 526.0061823682692648
    Total Energy =                       -628.5624874721886499
  Basis Set: (AUG-CC-PVTZ AUX)
    Blend: AUG-CC-PVTZ-RI
    Molecular point group: c1

    Geometry (in Angstrom), charge = 0, multiplicity = 1:

       Center              X                  Y                   Z               Mass
    ------------   -----------------  -----------------  -----------------  -----------------
         S            1.814414647555     0.001594747603    -0.550818244695    31.972071174400
         O            0.209576647555    -0.004673252397     1.571079755305    15.994914619570
         C           -0.970885352445     0.001516747603    -0.530212244695    12.000000000000
         C           -1.778932352445     1.267064747603    -0.236063244695    12.000000000000
         C           -1.779230352445    -1.265469252397    -0.243181244695    12.000000000000
         C            0.254424647555    -0.001677652397     0.552100455305    12.000000000000
         H           -0.657941352445     0.004438747603    -1.581075244695     1.007825032230
         H           -2.686686352445     1.284017747603    -0.845945244695     1.007825032230
         H           -1.200117352445     2.168775747603    -0.456224244695     1.007825032230
         H           -2.062342352445     1.286383747603     0.819169755305     1.007825032230
         H           -2.686992352445    -1.278775252397    -0.853142244695     1.007825032230
         H           -1.200629352445    -2.166063252397    -0.468418244695     1.007825032230
         H           -2.062633352445    -1.290661252397     0.811927755305     1.007825032230
         H            2.568233647555    -0.001621252397     0.559259755305     1.007825032230

  Basis Set: AUG-CC-PVTZ
    Blend: AUG-CC-PVTZ
  Basis Set: (AUG-CC-PVTZ AUX)
    Blend: AUG-CC-PVTZ-JKFIT
	 Reference Energy          =    -628.5624874721886499 [Eh]
	 Singles Energy            =      -0.0000000000000000 [Eh]
	 Same-Spin Energy          =      -0.2869913349832066 [Eh]
	 Opposite-Spin Energy      =      -0.9462440772152547 [Eh]
	 Correlation Energy        =      -1.2332354121984612 [Eh]
	 Total Energy              =    -629.7957228843871462 [Eh]

	 ================> DF-SCS-MP2 Energies <==================
	-----------------------------------------------------------
	 SCS Same-Spin Scale       =       0.3333333333333333 [-]
	 SCS Opposite-Spin Scale   =       1.2000000000000000 [-]
	 SCS Same-Spin Energy      =      -0.0956637783277355 [Eh]
	 SCS Opposite-Spin Energy  =      -1.1354928926583057 [Eh]
	 SCS Correlation Energy    =      -1.2311566709860411 [Eh]
	 SCS Total Energy          =    -629.7936441431746744 [Eh]
	-----------------------------------------------------------

  Dipole Moment: [D]
     X:    -1.5407      Y:     0.0008      Z:    -0.2675     Total:     1.5638

*** Psi4 exiting successfully. Buy a developer a beer!
