                               Psi4 1.4a3.dev225

  ==> Input File <==

--------------------------------------------------------------------------
#psi4
#
memory 32 gb

molecule  {
0 1
  S        1.9015010     0.0014740    -0.5114990
  O        0.2966630    -0.0047940     1.6103990
  C       -0.8837990     0.0013960    -0.4908930
  C       -1.6918460     1.2669440    -0.1967440
  C       -1.6175577    -1.2924651    -0.1323076
  C        0.3503050    -0.0012110     0.3916140
  H       -0.5708550     0.0043180    -1.5417560
  H       -2.5996000     1.2838970    -0.8066260
  H       -1.1130310     2.1686550    -0.4169050
  H       -1.9752560     1.2862630     0.8584890
  H       -2.5999060    -1.2788960    -0.8138230
  H       -1.1135430    -2.1661840    -0.4290990
  H       -1.9755470    -1.2907820     0.8512470
  H        2.6553200    -0.0017420     0.5985790
units angstrom
no_reorient  #important for SAPT in psi4, default
symmetry c1  #important for SAPT in psi4, default
}

set PROPERTIES_ORIGIN ["COM"]
properties('MP2/aug-cc-pvtz', properties = ['dipole'])
--------------------------------------------------------------------------

    Molecular point group: c1
  Charge       = 0
  Multiplicity = 1
  Basis Set: AUG-CC-PVTZ
    Blend: AUG-CC-PVTZ
  Basis Set: (AUG-CC-PVTZ AUX)
    Blend: AUG-CC-PVTZ-JKFIT

    Orbital Energies [Eh]
    ---------------------

    Doubly Occupied:

       1A    -91.981729     2A    -20.559255     3A    -11.368360
       4A    -11.259489     5A    -11.232918     6A    -11.231582
       7A     -8.983773     8A     -6.664950     9A     -6.663850
      10A     -6.663064    11A     -1.397807    12A     -1.104638
      13A     -1.019066    14A     -0.950088    15A     -0.865483
      16A     -0.734975    17A     -0.671485    18A     -0.646167
      19A     -0.608657    20A     -0.597313    21A     -0.566401
      22A     -0.551812    23A     -0.524243    24A     -0.506475
      25A     -0.499851    26A     -0.490551    27A     -0.405522
      28A     -0.393911

  @DF-RHF Final Energy:  -628.62012655742490

   => Energetics <=

    Nuclear Repulsion Energy =            295.4889882779433492
    One-Electron Energy =               -1449.9313974210526794
    Two-Electron Energy =                 525.8222825856843201
    Total Energy =                       -628.6201265574248964
  Basis Set: (AUG-CC-PVTZ AUX)
    Blend: AUG-CC-PVTZ-RI
    Molecular point group: c1

    Geometry (in Angstrom), charge = 0, multiplicity = 1:

       Center              X                  Y                   Z               Mass
    ------------   -----------------  -----------------  -----------------  -----------------
         S            1.804796579869     0.004627081115    -0.536024226393    31.972071174400
         O            0.199958579869    -0.001640918885     1.585873773607    15.994914619570
         C           -0.980503420131     0.004549081115    -0.515418226393    12.000000000000
         C           -1.788550420131     1.270097081115    -0.221269226393    12.000000000000
         C           -1.714262120131    -1.289312018885    -0.156832826393    12.000000000000
         C            0.253600579869     0.001942081115     0.367088773607    12.000000000000
         H           -0.667559420131     0.007471081115    -1.566281226393     1.007825032230
         H           -2.696304420131     1.287050081115    -0.831151226393     1.007825032230
         H           -1.209735420131     2.171808081115    -0.441430226393     1.007825032230
         H           -2.071960420131     1.289416081115     0.833963773607     1.007825032230
         H           -2.696610420131    -1.275742918885    -0.838348226393     1.007825032230
         H           -1.210247420131    -2.163030918885    -0.453624226393     1.007825032230
         H           -2.072251420131    -1.287628918885     0.826721773607     1.007825032230
         H            2.558615579869     0.001411081115     0.574053773607     1.007825032230

  Basis Set: AUG-CC-PVTZ
    Blend: AUG-CC-PVTZ
  Basis Set: (AUG-CC-PVTZ AUX)
    Blend: AUG-CC-PVTZ-JKFIT
	 Reference Energy          =    -628.6201265574248964 [Eh]
	 Singles Energy            =      -0.0000000000000000 [Eh]
	 Same-Spin Energy          =      -0.2915410801944027 [Eh]
	 Opposite-Spin Energy      =      -0.9561282205283667 [Eh]
	 Correlation Energy        =      -1.2476693007227693 [Eh]
	 Total Energy              =    -629.8677958581477014 [Eh]

	 ================> DF-SCS-MP2 Energies <==================
	-----------------------------------------------------------
	 SCS Same-Spin Scale       =       0.3333333333333333 [-]
	 SCS Opposite-Spin Scale   =       1.2000000000000000 [-]
	 SCS Same-Spin Energy      =      -0.0971803600648009 [Eh]
	 SCS Opposite-Spin Energy  =      -1.1473538646340400 [Eh]
	 SCS Correlation Energy    =      -1.2445342246988409 [Eh]
	 SCS Total Energy          =    -629.8646607821237922 [Eh]
	-----------------------------------------------------------

  Dipole Moment: [D]
     X:    -0.6364      Y:     0.0129      Z:    -1.5769     Total:     1.7005

*** Psi4 exiting successfully. Buy a developer a beer!
