                               Psi4 1.4a3.dev225

  ==> Input File <==

--------------------------------------------------------------------------
#psi4
#
memory 32 gb

molecule  {
0 1
  S        1.9015010     0.0014740    -0.5114990
  O        0.2966630    -0.0047940     1.6103990
  C       -0.8837990     0.0013960    -0.4908930
  C       -1.6918460     1.2669440    -0.1967440
  C       -1.7978064    -1.4312034    -0.1663429
  C        0.3503050    -0.0012110     0.3916140
  H       -0.5708550     0.0043180    -1.5417560
  H       -2.5996000     1.2838970    -0.8066260
  H       -1.1130310     2.1686550    -0.4169050
  H       -1.9752560     1.2862630     0.8584890
  H       -2.5999060    -1.2788960    -0.8138230
  H       -1.1135430    -2.1661840    -0.4290990
  H       -1.9755470    -1.2907820     0.8512470
  H        2.6553200    -0.0017420     0.5985790
units angstrom
no_reorient  #important for SAPT in psi4, default
symmetry c1  #important for SAPT in psi4, default
}

set PROPERTIES_ORIGIN ["COM"]
properties('MP2/aug-cc-pvtz', properties = ['dipole'])
--------------------------------------------------------------------------

    Molecular point group: c1
  Charge       = 0
  Multiplicity = 1
  Basis Set: AUG-CC-PVTZ
    Blend: AUG-CC-PVTZ
  Basis Set: (AUG-CC-PVTZ AUX)
    Blend: AUG-CC-PVTZ-JKFIT

    Orbital Energies [Eh]
    ---------------------

    Doubly Occupied:

       1A    -91.981212     2A    -20.558070     3A    -11.368016
       4A    -11.262605     5A    -11.232056     6A    -11.230384
       7A     -8.983223     8A     -6.664396     9A     -6.663303
      10A     -6.662512    11A     -1.395957    12A     -1.084935
      13A     -1.016148    14A     -0.951539    15A     -0.869927
      16A     -0.728244    17A     -0.665932    18A     -0.639983
      19A     -0.610468    20A     -0.594014    21A     -0.578338
      22A     -0.561911    23A     -0.539512    24A     -0.519107
      25A     -0.502075    26A     -0.444108    27A     -0.404780
      28A     -0.393072

  @DF-RHF Final Energy:  -628.60575927736670

   => Energetics <=

    Nuclear Repulsion Energy =            291.8823310407098575
    One-Electron Energy =               -1442.7645283191211547
    Two-Electron Energy =                 522.2764380010445393
    Total Energy =                       -628.6057592773667011
  Basis Set: (AUG-CC-PVTZ AUX)
    Blend: AUG-CC-PVTZ-RI
    Molecular point group: c1

    Geometry (in Angstrom), charge = 0, multiplicity = 1:

       Center              X                  Y                   Z               Mass
    ------------   -----------------  -----------------  -----------------  -----------------
         S            1.825588591854     0.020630793743    -0.532098193276    31.972071174400
         O            0.220750591854     0.014362793743     1.589799806724    15.994914619570
         C           -0.959711408146     0.020552793743    -0.511492193276    12.000000000000
         C           -1.767758408146     1.286100793743    -0.217343193276    12.000000000000
         C           -1.873718808146    -1.412046606257    -0.186942093276    12.000000000000
         C            0.274392591854     0.017945793743     0.371014806724    12.000000000000
         H           -0.646767408146     0.023474793743    -1.562355193276     1.007825032230
         H           -2.675512408146     1.303053793743    -0.827225193276     1.007825032230
         H           -1.188943408146     2.187811793743    -0.437504193276     1.007825032230
         H           -2.051168408146     1.305419793743     0.837889806724     1.007825032230
         H           -2.675818408146    -1.259739206257    -0.834422193276     1.007825032230
         H           -1.189455408146    -2.147027206257    -0.449698193276     1.007825032230
         H           -2.051459408146    -1.271625206257     0.830647806724     1.007825032230
         H            2.579407591854     0.017414793743     0.577979806724     1.007825032230

  Basis Set: AUG-CC-PVTZ
    Blend: AUG-CC-PVTZ
  Basis Set: (AUG-CC-PVTZ AUX)
    Blend: AUG-CC-PVTZ-JKFIT
	 Reference Energy          =    -628.6057592773667011 [Eh]
	 Singles Energy            =      -0.0000000000000000 [Eh]
	 Same-Spin Energy          =      -0.2911701440200522 [Eh]
	 Opposite-Spin Energy      =      -0.9565233212233832 [Eh]
	 Correlation Energy        =      -1.2476934652434355 [Eh]
	 Total Energy              =    -629.8534527426101022 [Eh]

	 ================> DF-SCS-MP2 Energies <==================
	-----------------------------------------------------------
	 SCS Same-Spin Scale       =       0.3333333333333333 [-]
	 SCS Opposite-Spin Scale   =       1.2000000000000000 [-]
	 SCS Same-Spin Energy      =      -0.0970567146733507 [Eh]
	 SCS Opposite-Spin Energy  =      -1.1478279854680598 [Eh]
	 SCS Correlation Energy    =      -1.2448847001414105 [Eh]
	 SCS Total Energy          =    -629.8506439775080707 [Eh]
	-----------------------------------------------------------

  Dipole Moment: [D]
     X:    -0.7012      Y:     0.0116      Z:    -1.6391     Total:     1.7828

*** Psi4 exiting successfully. Buy a developer a beer!
