                               Psi4 1.4a3.dev225

  ==> Input File <==

--------------------------------------------------------------------------
#psi4
#
memory 32 gb

molecule  {
0 1
  S        1.9015010     0.0014740    -0.5114990
  O        0.2966630    -0.0047940     1.6103990
  C       -0.8837990     0.0013960    -0.4908930
  C       -1.7182518     1.3083002    -0.1871316
  C       -1.6921440    -1.2655900    -0.2038620
  C        0.3503050    -0.0012110     0.3916140
  H       -0.5708550     0.0043180    -1.5417560
  H       -2.5996000     1.2838970    -0.8066260
  H       -1.1130310     2.1686550    -0.4169050
  H       -1.9752560     1.2862630     0.8584890
  H       -2.5999060    -1.2788960    -0.8138230
  H       -1.1135430    -2.1661840    -0.4290990
  H       -1.9755470    -1.2907820     0.8512470
  H        2.6553200    -0.0017420     0.5985790
units angstrom
no_reorient  #important for SAPT in psi4, default
symmetry c1  #important for SAPT in psi4, default
}

set PROPERTIES_ORIGIN ["COM"]
properties('MP2/aug-cc-pvtz', properties = ['dipole'])
--------------------------------------------------------------------------

    Molecular point group: c1
  Charge       = 0
  Multiplicity = 1
  Basis Set: AUG-CC-PVTZ
    Blend: AUG-CC-PVTZ
  Basis Set: (AUG-CC-PVTZ AUX)
    Blend: AUG-CC-PVTZ-JKFIT

    Orbital Energies [Eh]
    ---------------------

    Doubly Occupied:

       1A    -91.982135     2A    -20.559867     3A    -11.369112
       4A    -11.259389     5A    -11.230269     6A    -11.229497
       7A     -8.984134     8A     -6.665305     9A     -6.664213
      10A     -6.663423    11A     -1.397651    12A     -1.097540
      13A     -1.018777    14A     -0.947670    15A     -0.867702
      16A     -0.732263    17A     -0.668756    18A     -0.643439
      19A     -0.602029    20A     -0.596168    21A     -0.562232
      22A     -0.558004    23A     -0.533309    24A     -0.518326
      25A     -0.496288    26A     -0.480323    27A     -0.408657
      28A     -0.393902

  @DF-RHF Final Energy:  -628.62984518351982

   => Energetics <=

    Nuclear Repulsion Energy =            294.1794765236741114
    One-Electron Energy =               -1447.3578813943993282
    Two-Electron Energy =                 524.5485596872053975
    Total Energy =                       -628.6298451835198193
  Basis Set: (AUG-CC-PVTZ AUX)
    Blend: AUG-CC-PVTZ-RI
    Molecular point group: c1

    Geometry (in Angstrom), charge = 0, multiplicity = 1:

       Center              X                  Y                   Z               Mass
    ------------   -----------------  -----------------  -----------------  -----------------
         S            1.816446200385    -0.003243522154    -0.528879105200    31.972071174400
         O            0.211608200385    -0.009511522154     1.593018894800    15.994914619570
         C           -0.968853799615    -0.003321522154    -0.508273105200    12.000000000000
         C           -1.803306599615     1.303582677846    -0.204511705200    12.000000000000
         C           -1.777198799615    -1.270307522154    -0.221242105200    12.000000000000
         C            0.265250200385    -0.005928522154     0.374233894800    12.000000000000
         H           -0.655909799615    -0.000399522154    -1.559136105200     1.007825032230
         H           -2.684654799615     1.279179477846    -0.824006105200     1.007825032230
         H           -1.198085799615     2.163937477846    -0.434285105200     1.007825032230
         H           -2.060310799615     1.281545477846     0.841108894800     1.007825032230
         H           -2.684960799615    -1.283613522154    -0.831203105200     1.007825032230
         H           -1.198597799615    -2.170901522154    -0.446479105200     1.007825032230
         H           -2.060601799615    -1.295499522154     0.833866894800     1.007825032230
         H            2.570265200385    -0.006459522154     0.581198894800     1.007825032230

  Basis Set: AUG-CC-PVTZ
    Blend: AUG-CC-PVTZ
  Basis Set: (AUG-CC-PVTZ AUX)
    Blend: AUG-CC-PVTZ-JKFIT
	 Reference Energy          =    -628.6298451835198193 [Eh]
	 Singles Energy            =      -0.0000000000000000 [Eh]
	 Same-Spin Energy          =      -0.2909735514618811 [Eh]
	 Opposite-Spin Energy      =      -0.9553676727821450 [Eh]
	 Correlation Energy        =      -1.2463412242440262 [Eh]
	 Total Energy              =    -629.8761864077638393 [Eh]

	 ================> DF-SCS-MP2 Energies <==================
	-----------------------------------------------------------
	 SCS Same-Spin Scale       =       0.3333333333333333 [-]
	 SCS Opposite-Spin Scale   =       1.2000000000000000 [-]
	 SCS Same-Spin Energy      =      -0.0969911838206270 [Eh]
	 SCS Opposite-Spin Energy  =      -1.1464412073385739 [Eh]
	 SCS Correlation Energy    =      -1.2434323911592009 [Eh]
	 SCS Total Energy          =    -629.8732775746790367 [Eh]
	-----------------------------------------------------------

  Dipole Moment: [D]
     X:    -0.6580      Y:     0.0105      Z:    -1.6074     Total:     1.7369

*** Psi4 exiting successfully. Buy a developer a beer!
