                               Psi4 1.4a3.dev225

  ==> Input File <==

--------------------------------------------------------------------------
#psi4
#
memory 32 gb

molecule  {
0 1
  S        1.8690377     0.0016308    -0.5650846
  O        0.2966630    -0.0047940     1.6103990
  C       -0.8837990     0.0013960    -0.4908930
  C       -1.6918460     1.2669440    -0.1967440
  C       -1.6921440    -1.2655900    -0.2038620
  C        0.3503050    -0.0012110     0.3916140
  H       -0.5708550     0.0043180    -1.5417560
  H       -2.5996000     1.2838970    -0.8066260
  H       -1.1130310     2.1686550    -0.4169050
  H       -1.9752560     1.2862630     0.8584890
  H       -2.5999060    -1.2788960    -0.8138230
  H       -1.1135430    -2.1661840    -0.4290990
  H       -1.9755470    -1.2907820     0.8512470
  H        2.6553200    -0.0017420     0.5985790
units angstrom
no_reorient  #important for SAPT in psi4, default
symmetry c1  #important for SAPT in psi4, default
}

set PROPERTIES_ORIGIN ["COM"]
properties('MP2/aug-cc-pvtz', properties = ['dipole'])
--------------------------------------------------------------------------

    Molecular point group: c1
  Charge       = 0
  Multiplicity = 1
  Basis Set: AUG-CC-PVTZ
    Blend: AUG-CC-PVTZ
  Basis Set: (AUG-CC-PVTZ AUX)
    Blend: AUG-CC-PVTZ-JKFIT

    Orbital Energies [Eh]
    ---------------------

    Doubly Occupied:

       1A    -91.987872     2A    -20.561500     3A    -11.369516
       4A    -11.256612     5A    -11.229822     6A    -11.229806
       7A     -8.988427     8A     -6.669490     9A     -6.668375
      10A     -6.667678    11A     -1.398202    12A     -1.103708
      13A     -1.015893    14A     -0.946432    15A     -0.863261
      16A     -0.732837    17A     -0.666975    18A     -0.644038
      19A     -0.598154    20A     -0.597755    21A     -0.558120
      22A     -0.555289    23A     -0.529031    24A     -0.515488
      25A     -0.490255    26A     -0.490238    27A     -0.409190
      28A     -0.395330

  @DF-RHF Final Energy:  -628.62765199187652

   => Energetics <=

    Nuclear Repulsion Energy =            294.9906111710473624
    One-Electron Energy =               -1448.9579352638395449
    Two-Electron Energy =                 525.3396721009157773
    Total Energy =                       -628.6276519918765189
  Basis Set: (AUG-CC-PVTZ AUX)
    Blend: AUG-CC-PVTZ-RI
    Molecular point group: c1

    Geometry (in Angstrom), charge = 0, multiplicity = 1:

       Center              X                  Y                   Z               Mass
    ------------   -----------------  -----------------  -----------------  -----------------
         S            1.790914095303     0.001635599619    -0.564887095920    31.972071174400
         O            0.218539395303    -0.004789200381     1.610596504080    15.994914619570
         C           -0.961922604697     0.001400799619    -0.490695495920    12.000000000000
         C           -1.769969604697     1.266948799619    -0.196546495920    12.000000000000
         C           -1.770267604697    -1.265585200381    -0.203664495920    12.000000000000
         C            0.272181395303    -0.001206200381     0.391811504080    12.000000000000
         H           -0.648978604697     0.004322799619    -1.541558495920     1.007825032230
         H           -2.677723604697     1.283901799619    -0.806428495920     1.007825032230
         H           -1.191154604697     2.168659799619    -0.416707495920     1.007825032230
         H           -2.053379604697     1.286267799619     0.858686504080     1.007825032230
         H           -2.678029604697    -1.278891200381    -0.813625495920     1.007825032230
         H           -1.191666604697    -2.166179200381    -0.428901495920     1.007825032230
         H           -2.053670604697    -1.290777200381     0.851444504080     1.007825032230
         H            2.577196395303    -0.001737200381     0.598776504080     1.007825032230

  Basis Set: AUG-CC-PVTZ
    Blend: AUG-CC-PVTZ
  Basis Set: (AUG-CC-PVTZ AUX)
    Blend: AUG-CC-PVTZ-JKFIT
	 Reference Energy          =    -628.6276519918765189 [Eh]
	 Singles Energy            =      -0.0000000000000000 [Eh]
	 Same-Spin Energy          =      -0.2916932500300248 [Eh]
	 Opposite-Spin Energy      =      -0.9565791564374575 [Eh]
	 Correlation Energy        =      -1.2482724064674824 [Eh]
	 Total Energy              =    -629.8759243983439546 [Eh]

	 ================> DF-SCS-MP2 Energies <==================
	-----------------------------------------------------------
	 SCS Same-Spin Scale       =       0.3333333333333333 [-]
	 SCS Opposite-Spin Scale   =       1.2000000000000000 [-]
	 SCS Same-Spin Energy      =      -0.0972310833433416 [Eh]
	 SCS Opposite-Spin Energy  =      -1.1478949877249489 [Eh]
	 SCS Correlation Energy    =      -1.2451260710682905 [Eh]
	 SCS Total Energy          =    -629.8727780629448034 [Eh]
	-----------------------------------------------------------

  Dipole Moment: [D]
     X:    -0.5941      Y:     0.0048      Z:    -1.6157     Total:     1.7215

*** Psi4 exiting successfully. Buy a developer a beer!
