                               Psi4 1.4a3.dev225

  ==> Input File <==

--------------------------------------------------------------------------
#psi4
#
memory 32 gb

molecule  {
0 1
  S        1.9015010     0.0014740    -0.5114990
  O        0.2541605    -0.0047859     1.6077845
  C       -0.8837990     0.0013960    -0.4908930
  C       -1.6918460     1.2669440    -0.1967440
  C       -1.6921440    -1.2655900    -0.2038620
  C        0.3503050    -0.0012110     0.3916140
  H       -0.5708550     0.0043180    -1.5417560
  H       -2.5996000     1.2838970    -0.8066260
  H       -1.1130310     2.1686550    -0.4169050
  H       -1.9752560     1.2862630     0.8584890
  H       -2.5999060    -1.2788960    -0.8138230
  H       -1.1135430    -2.1661840    -0.4290990
  H       -1.9755470    -1.2907820     0.8512470
  H        2.6553200    -0.0017420     0.5985790
units angstrom
no_reorient  #important for SAPT in psi4, default
symmetry c1  #important for SAPT in psi4, default
}

set PROPERTIES_ORIGIN ["COM"]
properties('MP2/aug-cc-pvtz', properties = ['dipole'])
--------------------------------------------------------------------------

    Molecular point group: c1
  Charge       = 0
  Multiplicity = 1
  Basis Set: AUG-CC-PVTZ
    Blend: AUG-CC-PVTZ
  Basis Set: (AUG-CC-PVTZ AUX)
    Blend: AUG-CC-PVTZ-JKFIT

    Orbital Energies [Eh]
    ---------------------

    Doubly Occupied:

       1A    -91.984979     2A    -20.560187     3A    -11.369091
       4A    -11.256001     5A    -11.229120     6A    -11.229104
       7A     -8.986845     8A     -6.668016     9A     -6.666900
      10A     -6.666112    11A     -1.398080    12A     -1.101848
      13A     -1.021439    14A     -0.945738    15A     -0.865503
      16A     -0.733007    17A     -0.670206    18A     -0.645409
      19A     -0.600610    20A     -0.597750    21A     -0.557575
      22A     -0.554773    23A     -0.528089    24A     -0.516840
      25A     -0.491781    26A     -0.489324    27A     -0.409955
      28A     -0.396066

  @DF-RHF Final Energy:  -628.63077679577782

   => Energetics <=

    Nuclear Repulsion Energy =            295.0847315454222439
    One-Electron Energy =               -1449.1503223374359095
    Two-Electron Energy =                 525.4348139962357891
    Total Energy =                       -628.6307767957778196
  Basis Set: (AUG-CC-PVTZ AUX)
    Blend: AUG-CC-PVTZ-RI
    Molecular point group: c1

    Geometry (in Angstrom), charge = 0, multiplicity = 1:

       Center              X                  Y                   Z               Mass
    ------------   -----------------  -----------------  -----------------  -----------------
         S            1.819935152638     0.001525744552    -0.527368308990    31.972071174400
         O            0.172594652638    -0.004734155448     1.591915191010    15.994914619570
         C           -0.965364847362     0.001447744552    -0.506762308990    12.000000000000
         C           -1.773411847362     1.266995744552    -0.212613308990    12.000000000000
         C           -1.773709847362    -1.265538255448    -0.219731308990    12.000000000000
         C            0.268739152638    -0.001159255448     0.375744691010    12.000000000000
         H           -0.652420847362     0.004369744552    -1.557625308990     1.007825032230
         H           -2.681165847362     1.283948744552    -0.822495308990     1.007825032230
         H           -1.194596847362     2.168706744552    -0.432774308990     1.007825032230
         H           -2.056821847362     1.286314744552     0.842619691010     1.007825032230
         H           -2.681471847362    -1.278844255448    -0.829692308990     1.007825032230
         H           -1.195108847362    -2.166132255448    -0.444968308990     1.007825032230
         H           -2.057112847362    -1.290730255448     0.835377691010     1.007825032230
         H            2.573754152638    -0.001690255448     0.582709691010     1.007825032230

  Basis Set: AUG-CC-PVTZ
    Blend: AUG-CC-PVTZ
  Basis Set: (AUG-CC-PVTZ AUX)
    Blend: AUG-CC-PVTZ-JKFIT
	 Reference Energy          =    -628.6307767957778196 [Eh]
	 Singles Energy            =      -0.0000000000000000 [Eh]
	 Same-Spin Energy          =      -0.2913294260406212 [Eh]
	 Opposite-Spin Energy      =      -0.9557643427139284 [Eh]
	 Correlation Energy        =      -1.2470937687545496 [Eh]
	 Total Energy              =    -629.8778705645323726 [Eh]

	 ================> DF-SCS-MP2 Energies <==================
	-----------------------------------------------------------
	 SCS Same-Spin Scale       =       0.3333333333333333 [-]
	 SCS Opposite-Spin Scale   =       1.2000000000000000 [-]
	 SCS Same-Spin Energy      =      -0.0971098086802071 [Eh]
	 SCS Opposite-Spin Energy  =      -1.1469172112567141 [Eh]
	 SCS Correlation Energy    =      -1.2440270199369212 [Eh]
	 SCS Total Energy          =    -629.8748038157146993 [Eh]
	-----------------------------------------------------------

  Dipole Moment: [D]
     X:    -0.5026      Y:     0.0048      Z:    -1.6014     Total:     1.6785

*** Psi4 exiting successfully. Buy a developer a beer!
