                               Psi4 1.4a3.dev225

  ==> Input File <==

--------------------------------------------------------------------------
#psi4
#
memory 32 gb

molecule  {
0 1
  S        1.9015010     0.0014740    -0.5114990
  O        0.2966630    -0.0047940     1.6103990
  C       -0.8837990     0.0013960    -0.4908930
  C       -1.6918460     1.2669440    -0.1967440
  C       -1.6921440    -1.2655900    -0.2038620
  C        0.2689631    -0.0010392     0.3334464
  H       -0.5708550     0.0043180    -1.5417560
  H       -2.5996000     1.2838970    -0.8066260
  H       -1.1130310     2.1686550    -0.4169050
  H       -1.9752560     1.2862630     0.8584890
  H       -2.5999060    -1.2788960    -0.8138230
  H       -1.1135430    -2.1661840    -0.4290990
  H       -1.9755470    -1.2907820     0.8512470
  H        2.6553200    -0.0017420     0.5985790
units angstrom
no_reorient  #important for SAPT in psi4, default
symmetry c1  #important for SAPT in psi4, default
}

set PROPERTIES_ORIGIN ["COM"]
properties('MP2/aug-cc-pvtz', properties = ['dipole'])
--------------------------------------------------------------------------

    Molecular point group: c1
  Charge       = 0
  Multiplicity = 1
  Basis Set: AUG-CC-PVTZ
    Blend: AUG-CC-PVTZ
  Basis Set: (AUG-CC-PVTZ AUX)
    Blend: AUG-CC-PVTZ-JKFIT

    Orbital Energies [Eh]
    ---------------------

    Doubly Occupied:

       1A    -91.980630     2A    -20.556271     3A    -11.377558
       4A    -11.258499     5A    -11.236978     6A    -11.236962
       7A     -8.981720     8A     -6.662879     9A     -6.661889
      10A     -6.661133    11A     -1.362323    12A     -1.124586
      13A     -1.008995    14A     -0.953801    15A     -0.889607
      16A     -0.735297    17A     -0.673594    18A     -0.640143
      19A     -0.603502    20A     -0.594429    21A     -0.559420
      22A     -0.549193    23A     -0.524576    24A     -0.522593
      25A     -0.497420    26A     -0.484551    27A     -0.411180
      28A     -0.387949

  @DF-RHF Final Energy:  -628.61262828775182

   => Energetics <=

    Nuclear Repulsion Energy =            294.9490553073780461
    One-Electron Energy =               -1448.8480094659332735
    Two-Electron Energy =                 525.2863258708033527
    Total Energy =                       -628.6126282877518179
  Basis Set: (AUG-CC-PVTZ AUX)
    Blend: AUG-CC-PVTZ-RI
    Molecular point group: c1

    Geometry (in Angstrom), charge = 0, multiplicity = 1:

       Center              X                  Y                   Z               Mass
    ------------   -----------------  -----------------  -----------------  -----------------
         S            1.822783178403     0.001507172517    -0.521060560199    31.972071174400
         O            0.217945178403    -0.004760827483     1.600837439801    15.994914619570
         C           -0.962516821597     0.001429172517    -0.500454560199    12.000000000000
         C           -1.770563821597     1.266977172517    -0.206305560199    12.000000000000
         C           -1.770861821597    -1.265556827483    -0.213423560199    12.000000000000
         C            0.190245278403    -0.001006027483     0.323884839801    12.000000000000
         H           -0.649572821597     0.004351172517    -1.551317560199     1.007825032230
         H           -2.678317821597     1.283930172517    -0.816187560199     1.007825032230
         H           -1.191748821597     2.168688172517    -0.426466560199     1.007825032230
         H           -2.053973821597     1.286296172517     0.848927439801     1.007825032230
         H           -2.678623821597    -1.278862827483    -0.823384560199     1.007825032230
         H           -1.192260821597    -2.166150827483    -0.438660560199     1.007825032230
         H           -2.054264821597    -1.290748827483     0.841685439801     1.007825032230
         H            2.576602178403    -0.001708827483     0.589017439801     1.007825032230

  Basis Set: AUG-CC-PVTZ
    Blend: AUG-CC-PVTZ
  Basis Set: (AUG-CC-PVTZ AUX)
    Blend: AUG-CC-PVTZ-JKFIT
	 Reference Energy          =    -628.6126282877518179 [Eh]
	 Singles Energy            =      -0.0000000000000000 [Eh]
	 Same-Spin Energy          =      -0.2934587011113561 [Eh]
	 Opposite-Spin Energy      =      -0.9599350367860724 [Eh]
	 Correlation Energy        =      -1.2533937378974285 [Eh]
	 Total Energy              =    -629.8660220256492721 [Eh]

	 ================> DF-SCS-MP2 Energies <==================
	-----------------------------------------------------------
	 SCS Same-Spin Scale       =       0.3333333333333333 [-]
	 SCS Opposite-Spin Scale   =       1.2000000000000000 [-]
	 SCS Same-Spin Energy      =      -0.0978195670371187 [Eh]
	 SCS Opposite-Spin Energy  =      -1.1519220441432869 [Eh]
	 SCS Correlation Energy    =      -1.2497416111804056 [Eh]
	 SCS Total Energy          =    -629.8623698989322293 [Eh]
	-----------------------------------------------------------

  Dipole Moment: [D]
     X:    -1.1124      Y:     0.0052      Z:    -1.7362     Total:     2.0620

*** Psi4 exiting successfully. Buy a developer a beer!
