                               Psi4 1.4a3.dev225

  ==> Input File <==

--------------------------------------------------------------------------
#psi4
#
memory 32 gb

molecule  {
0 1
  S        1.8347241     0.0017842    -0.6175046
  O        0.2966630    -0.0047940     1.6103990
  C       -0.8837990     0.0013960    -0.4908930
  C       -1.6918460     1.2669440    -0.1967440
  C       -1.6921440    -1.2655900    -0.2038620
  C        0.3503050    -0.0012110     0.3916140
  H       -0.5708550     0.0043180    -1.5417560
  H       -2.5996000     1.2838970    -0.8066260
  H       -1.1130310     2.1686550    -0.4169050
  H       -1.9752560     1.2862630     0.8584890
  H       -2.5999060    -1.2788960    -0.8138230
  H       -1.1135430    -2.1661840    -0.4290990
  H       -1.9755470    -1.2907820     0.8512470
  H        2.6553200    -0.0017420     0.5985790
units angstrom
no_reorient  #important for SAPT in psi4, default
symmetry c1  #important for SAPT in psi4, default
}

set PROPERTIES_ORIGIN ["COM"]
properties('MP2/aug-cc-pvtz', properties = ['dipole'])
--------------------------------------------------------------------------

    Molecular point group: c1
  Charge       = 0
  Multiplicity = 1
  Basis Set: AUG-CC-PVTZ
    Blend: AUG-CC-PVTZ
  Basis Set: (AUG-CC-PVTZ AUX)
    Blend: AUG-CC-PVTZ-JKFIT

    Orbital Energies [Eh]
    ---------------------

    Doubly Occupied:

       1A    -91.992825     2A    -20.562640     3A    -11.369664
       4A    -11.255496     5A    -11.229371     6A    -11.229355
       7A     -8.992214     8A     -6.673193     9A     -6.672005
      10A     -6.671384    11A     -1.398317    12A     -1.104198
      13A     -1.012946    14A     -0.946042    15A     -0.860277
      16A     -0.732252    17A     -0.664870    18A     -0.642457
      19A     -0.598099    20A     -0.595407    21A     -0.557044
      22A     -0.554983    23A     -0.528855    24A     -0.513888
      25A     -0.489850    26A     -0.486718    27A     -0.408882
      28A     -0.396524

  @DF-RHF Final Energy:  -628.62018210748079

   => Energetics <=

    Nuclear Repulsion Energy =            295.0629859611779580
    One-Electron Energy =               -1449.0868197825138850
    Two-Electron Energy =                 525.4036517138551972
    Total Energy =                       -628.6201821074807867
  Basis Set: (AUG-CC-PVTZ AUX)
    Blend: AUG-CC-PVTZ-RI
    Molecular point group: c1

    Geometry (in Angstrom), charge = 0, multiplicity = 1:

       Center              X                  Y                   Z               Mass
    ------------   -----------------  -----------------  -----------------  -----------------
         S            1.767146311192     0.001741854226    -0.601196525509    31.972071174400
         O            0.229085211192    -0.004836345774     1.626707074491    15.994914619570
         C           -0.951376788808     0.001353654226    -0.474584925509    12.000000000000
         C           -1.759423788808     1.266901654226    -0.180435925509    12.000000000000
         C           -1.759721788808    -1.265632345774    -0.187553925509    12.000000000000
         C            0.282727211192    -0.001253345774     0.407922074491    12.000000000000
         H           -0.638432788808     0.004275654226    -1.525447925509     1.007825032230
         H           -2.667177788808     1.283854654226    -0.790317925509     1.007825032230
         H           -1.180608788808     2.168612654226    -0.400596925509     1.007825032230
         H           -2.042833788808     1.286220654226     0.874797074491     1.007825032230
         H           -2.667483788808    -1.278938345774    -0.797514925509     1.007825032230
         H           -1.181120788808    -2.166226345774    -0.412790925509     1.007825032230
         H           -2.043124788808    -1.290824345774     0.867555074491     1.007825032230
         H            2.587742211192    -0.001784345774     0.614887074491     1.007825032230

  Basis Set: AUG-CC-PVTZ
    Blend: AUG-CC-PVTZ
  Basis Set: (AUG-CC-PVTZ AUX)
    Blend: AUG-CC-PVTZ-JKFIT
	 Reference Energy          =    -628.6201821074807867 [Eh]
	 Singles Energy            =      -0.0000000000000000 [Eh]
	 Same-Spin Energy          =      -0.2922199174381939 [Eh]
	 Opposite-Spin Energy      =      -0.9578045272028249 [Eh]
	 Correlation Energy        =      -1.2500244446410189 [Eh]
	 Total Energy              =    -629.8702065521217719 [Eh]

	 ================> DF-SCS-MP2 Energies <==================
	-----------------------------------------------------------
	 SCS Same-Spin Scale       =       0.3333333333333333 [-]
	 SCS Opposite-Spin Scale   =       1.2000000000000000 [-]
	 SCS Same-Spin Energy      =      -0.0974066391460646 [Eh]
	 SCS Opposite-Spin Energy  =      -1.1493654326433900 [Eh]
	 SCS Correlation Energy    =      -1.2467720717894546 [Eh]
	 SCS Total Energy          =    -629.8669541792702375 [Eh]
	-----------------------------------------------------------

  Dipole Moment: [D]
     X:    -0.5642      Y:     0.0049      Z:    -1.6313     Total:     1.7262

*** Psi4 exiting successfully. Buy a developer a beer!
