                               Psi4 1.4a3.dev225

  ==> Input File <==

--------------------------------------------------------------------------
#psi4
#
memory 32 gb

molecule  {
0 1
  S        1.9015010     0.0014740    -0.5114990
  O        0.2966630    -0.0047940     1.6103990
  C       -0.8837990     0.0013960    -0.4908930
  C       -1.6918460     1.2669440    -0.1967440
  C       -1.6921440    -1.2655900    -0.2038620
  C        0.3503050    -0.0012110     0.3916140
  H       -0.5708550     0.0043180    -1.5417560
  H       -2.5996000     1.2838970    -0.8066260
  H       -1.1130310     2.1686550    -0.4169050
  H       -1.9752560     1.2862630     0.8584890
  H       -2.5999060    -1.2788960    -0.8138230
  H       -1.1223271    -2.1868425    -0.3561217
  H       -1.9755470    -1.2907820     0.8512470
  H        2.6553200    -0.0017420     0.5985790
units angstrom
no_reorient  #important for SAPT in psi4, default
symmetry c1  #important for SAPT in psi4, default
}

set PROPERTIES_ORIGIN ["COM"]
properties('MP2/aug-cc-pvtz', properties = ['dipole'])
--------------------------------------------------------------------------

    Molecular point group: c1
  Charge       = 0
  Multiplicity = 1
  Basis Set: AUG-CC-PVTZ
    Blend: AUG-CC-PVTZ
  Basis Set: (AUG-CC-PVTZ AUX)
    Blend: AUG-CC-PVTZ-JKFIT

    Orbital Energies [Eh]
    ---------------------

    Doubly Occupied:

       1A    -91.982443     2A    -20.560477     3A    -11.369627
       4A    -11.258374     5A    -11.230650     6A    -11.230155
       7A     -8.984434     8A     -6.665605     9A     -6.664514
      10A     -6.663722    11A     -1.398291    12A     -1.103346
      13A     -1.019748    14A     -0.946962    15A     -0.866804
      16A     -0.734726    17A     -0.669625    18A     -0.646488
      19A     -0.600191    20A     -0.598068    21A     -0.559428
      22A     -0.552711    23A     -0.531245    24A     -0.517153
      25A     -0.492918    26A     -0.490275    27A     -0.409185
      28A     -0.394136

  @DF-RHF Final Energy:  -628.63085123947371

   => Energetics <=

    Nuclear Repulsion Energy =            294.9562540850998289
    One-Electron Energy =               -1448.8916127246682208
    Two-Electron Energy =                 525.3045074000947352
    Total Energy =                       -628.6308512394737136
  Basis Set: (AUG-CC-PVTZ AUX)
    Blend: AUG-CC-PVTZ-RI
    Molecular point group: c1

    Geometry (in Angstrom), charge = 0, multiplicity = 1:

       Center              X                  Y                   Z               Mass
    ------------   -----------------  -----------------  -----------------  -----------------
         S            1.813485343039     0.001727126804    -0.528477292102    31.972071174400
         O            0.208647343039    -0.004540873196     1.593420707898    15.994914619570
         C           -0.971814656961     0.001649126804    -0.507871292102    12.000000000000
         C           -1.779861656961     1.267197126804    -0.213722292102    12.000000000000
         C           -1.780159656961    -1.265336873196    -0.220840292102    12.000000000000
         C            0.262289343039    -0.000957873196     0.374635707898    12.000000000000
         H           -0.658870656961     0.004571126804    -1.558734292102     1.007825032230
         H           -2.687615656961     1.284150126804    -0.823604292102     1.007825032230
         H           -1.201046656961     2.168908126804    -0.433883292102     1.007825032230
         H           -2.063271656961     1.286516126804     0.841510707898     1.007825032230
         H           -2.687921656961    -1.278642873196    -0.830801292102     1.007825032230
         H           -1.210342756961    -2.186589373196    -0.373099992102     1.007825032230
         H           -2.063562656961    -1.290528873196     0.834268707898     1.007825032230
         H            2.567304343039    -0.001488873196     0.581600707898     1.007825032230

  Basis Set: AUG-CC-PVTZ
    Blend: AUG-CC-PVTZ
  Basis Set: (AUG-CC-PVTZ AUX)
    Blend: AUG-CC-PVTZ-JKFIT
	 Reference Energy          =    -628.6308512394737136 [Eh]
	 Singles Energy            =      -0.0000000000000000 [Eh]
	 Same-Spin Energy          =      -0.2912499222592617 [Eh]
	 Opposite-Spin Energy      =      -0.9555580749566303 [Eh]
	 Correlation Energy        =      -1.2468079972158921 [Eh]
	 Total Energy              =    -629.8776592366896239 [Eh]

	 ================> DF-SCS-MP2 Energies <==================
	-----------------------------------------------------------
	 SCS Same-Spin Scale       =       0.3333333333333333 [-]
	 SCS Opposite-Spin Scale   =       1.2000000000000000 [-]
	 SCS Same-Spin Energy      =      -0.0970833074197539 [Eh]
	 SCS Opposite-Spin Energy  =      -1.1466696899479563 [Eh]
	 SCS Correlation Energy    =      -1.2437529973677102 [Eh]
	 SCS Total Energy          =    -629.8746042368413782 [Eh]
	-----------------------------------------------------------

  Dipole Moment: [D]
     X:    -0.6356      Y:     0.0021      Z:    -1.5740     Total:     1.6975

*** Psi4 exiting successfully. Buy a developer a beer!
