                               Psi4 1.4a3.dev225

  ==> Input File <==

--------------------------------------------------------------------------
#psi4
#
memory 32 gb

molecule  {
0 1
  S        1.9015010     0.0014740    -0.5114990
  O        0.2966630    -0.0047940     1.6103990
  C       -0.9023573     0.0089562    -0.5085436
  C       -1.6918460     1.2669440    -0.1967440
  C       -1.6921440    -1.2655900    -0.2038620
  C        0.3503050    -0.0012110     0.3916140
  H       -0.5708550     0.0043180    -1.5417560
  H       -2.5996000     1.2838970    -0.8066260
  H       -1.1130310     2.1686550    -0.4169050
  H       -1.9752560     1.2862630     0.8584890
  H       -2.5999060    -1.2788960    -0.8138230
  H       -1.1135430    -2.1661840    -0.4290990
  H       -1.9755470    -1.2907820     0.8512470
  H        2.6553200    -0.0017420     0.5985790
units angstrom
no_reorient  #important for SAPT in psi4, default
symmetry c1  #important for SAPT in psi4, default
}

set PROPERTIES_ORIGIN ["COM"]
properties('MP2/aug-cc-pvtz', properties = ['dipole'])
--------------------------------------------------------------------------

    Molecular point group: c1
  Charge       = 0
  Multiplicity = 1
  Basis Set: AUG-CC-PVTZ
    Blend: AUG-CC-PVTZ
  Basis Set: (AUG-CC-PVTZ AUX)
    Blend: AUG-CC-PVTZ-JKFIT

    Orbital Energies [Eh]
    ---------------------

    Doubly Occupied:

       1A    -91.982226     2A    -20.560611     3A    -11.369862
       4A    -11.258203     5A    -11.230065     6A    -11.229478
       7A     -8.984229     8A     -6.665402     9A     -6.664311
      10A     -6.663520    11A     -1.397612    12A     -1.102876
      13A     -1.019602    14A     -0.947782    15A     -0.862231
      16A     -0.735461    17A     -0.669138    18A     -0.645415
      19A     -0.602136    20A     -0.596651    21A     -0.558250
      22A     -0.556745    23A     -0.529335    24A     -0.514626
      25A     -0.497175    26A     -0.492625    27A     -0.405994
      28A     -0.393997

  @DF-RHF Final Energy:  -628.63081335818799

   => Energetics <=

    Nuclear Repulsion Energy =            294.6971543572391283
    One-Electron Energy =               -1448.3848213286232749
    Two-Electron Energy =                 525.0568536131962674
    Total Energy =                       -628.6308133581879929
  Basis Set: (AUG-CC-PVTZ AUX)
    Blend: AUG-CC-PVTZ-RI
    Molecular point group: c1

    Geometry (in Angstrom), charge = 0, multiplicity = 1:

       Center              X                  Y                   Z               Mass
    ------------   -----------------  -----------------  -----------------  -----------------
         S            1.815540977135     0.000654907278    -0.525734269078    31.972071174400
         O            0.210702977135    -0.005613092722     1.596163730922    15.994914619570
         C           -0.988317322865     0.008137107278    -0.522778869078    12.000000000000
         C           -1.777806022865     1.266124907278    -0.210979269078    12.000000000000
         C           -1.778104022865    -1.266409092722    -0.218097269078    12.000000000000
         C            0.264344977135    -0.002030092722     0.377378730922    12.000000000000
         H           -0.656815022865     0.003498907278    -1.555991269078     1.007825032230
         H           -2.685560022865     1.283077907278    -0.820861269078     1.007825032230
         H           -1.198991022865     2.167835907278    -0.431140269078     1.007825032230
         H           -2.061216022865     1.285443907278     0.844253730922     1.007825032230
         H           -2.685866022865    -1.279715092722    -0.828058269078     1.007825032230
         H           -1.199503022865    -2.167003092722    -0.443334269078     1.007825032230
         H           -2.061507022865    -1.291601092722     0.837011730922     1.007825032230
         H            2.569359977135    -0.002561092722     0.584343730922     1.007825032230

  Basis Set: AUG-CC-PVTZ
    Blend: AUG-CC-PVTZ
  Basis Set: (AUG-CC-PVTZ AUX)
    Blend: AUG-CC-PVTZ-JKFIT
	 Reference Energy          =    -628.6308133581879929 [Eh]
	 Singles Energy            =      -0.0000000000000000 [Eh]
	 Same-Spin Energy          =      -0.2911943209482029 [Eh]
	 Opposite-Spin Energy      =      -0.9554703045266445 [Eh]
	 Correlation Energy        =      -1.2466646254748475 [Eh]
	 Total Energy              =    -629.8774779836628568 [Eh]

	 ================> DF-SCS-MP2 Energies <==================
	-----------------------------------------------------------
	 SCS Same-Spin Scale       =       0.3333333333333333 [-]
	 SCS Opposite-Spin Scale   =       1.2000000000000000 [-]
	 SCS Same-Spin Energy      =      -0.0970647736494009 [Eh]
	 SCS Opposite-Spin Energy  =      -1.1465643654319733 [Eh]
	 SCS Correlation Energy    =      -1.2436291390813743 [Eh]
	 SCS Total Energy          =    -629.8744424972693423 [Eh]
	-----------------------------------------------------------

  Dipole Moment: [D]
     X:    -0.6213      Y:     0.0090      Z:    -1.5878     Total:     1.7050

*** Psi4 exiting successfully. Buy a developer a beer!
