                               Psi4 1.4a3.dev225

  ==> Input File <==

--------------------------------------------------------------------------
#psi4
#
memory 32 gb

molecule  {
0 1
  S        1.9015010     0.0014740    -0.5114990
  O        0.2966630    -0.0047940     1.6103990
  C       -0.8796827     0.0169851    -0.5418074
  C       -1.6918460     1.2669440    -0.1967440
  C       -1.6921440    -1.2655900    -0.2038620
  C        0.3503050    -0.0012110     0.3916140
  H       -0.5708550     0.0043180    -1.5417560
  H       -2.5996000     1.2838970    -0.8066260
  H       -1.1130310     2.1686550    -0.4169050
  H       -1.9752560     1.2862630     0.8584890
  H       -2.5999060    -1.2788960    -0.8138230
  H       -1.1135430    -2.1661840    -0.4290990
  H       -1.9755470    -1.2907820     0.8512470
  H        2.6553200    -0.0017420     0.5985790
units angstrom
no_reorient  #important for SAPT in psi4, default
symmetry c1  #important for SAPT in psi4, default
}

set PROPERTIES_ORIGIN ["COM"]
properties('MP2/aug-cc-pvtz', properties = ['dipole'])
--------------------------------------------------------------------------

    Molecular point group: c1
  Charge       = 0
  Multiplicity = 1
  Basis Set: AUG-CC-PVTZ
    Blend: AUG-CC-PVTZ
  Basis Set: (AUG-CC-PVTZ AUX)
    Blend: AUG-CC-PVTZ-JKFIT

    Orbital Energies [Eh]
    ---------------------

    Doubly Occupied:

       1A    -91.981109     2A    -20.561159     3A    -11.370788
       4A    -11.257317     5A    -11.231344     6A    -11.230224
       7A     -8.983233     8A     -6.664414     9A     -6.663296
      10A     -6.662519    11A     -1.397549    12A     -1.100795
      13A     -1.018537    14A     -0.944643    15A     -0.864060
      16A     -0.741069    17A     -0.669146    18A     -0.644152
      19A     -0.600551    20A     -0.595197    21A     -0.557606
      22A     -0.556897    23A     -0.529081    24A     -0.519448
      25A     -0.502459    26A     -0.484615    27A     -0.405310
      28A     -0.393627

  @DF-RHF Final Energy:  -628.62839830695862

   => Energetics <=

    Nuclear Repulsion Energy =            294.4916331499578064
    One-Electron Energy =               -1447.9797719516045618
    Two-Electron Energy =                 524.8597404946881397
    Total Energy =                       -628.6283983069586156
  Basis Set: (AUG-CC-PVTZ AUX)
    Blend: AUG-CC-PVTZ-RI
    Molecular point group: c1

    Geometry (in Angstrom), charge = 0, multiplicity = 1:

       Center              X                  Y                   Z               Mass
    ------------   -----------------  -----------------  -----------------  -----------------
         S            1.812925421212    -0.000271240789    -0.521897229874    31.972071174400
         O            0.208087421212    -0.006539240789     1.600000770126    15.994914619570
         C           -0.968258278788     0.015239859211    -0.552205629874    12.000000000000
         C           -1.780421578788     1.265198759211    -0.207142229874    12.000000000000
         C           -1.780719578788    -1.267335240789    -0.214260229874    12.000000000000
         C            0.261729421212    -0.002956240789     0.381215770126    12.000000000000
         H           -0.659430578788     0.002572759211    -1.552154229874     1.007825032230
         H           -2.688175578788     1.282151759211    -0.817024229874     1.007825032230
         H           -1.201606578788     2.166909759211    -0.427303229874     1.007825032230
         H           -2.063831578788     1.284517759211     0.848090770126     1.007825032230
         H           -2.688481578788    -1.280641240789    -0.824221229874     1.007825032230
         H           -1.202118578788    -2.167929240789    -0.439497229874     1.007825032230
         H           -2.064122578788    -1.292527240789     0.840848770126     1.007825032230
         H            2.566744421212    -0.003487240789     0.588180770126     1.007825032230

  Basis Set: AUG-CC-PVTZ
    Blend: AUG-CC-PVTZ
  Basis Set: (AUG-CC-PVTZ AUX)
    Blend: AUG-CC-PVTZ-JKFIT
	 Reference Energy          =    -628.6283983069586156 [Eh]
	 Singles Energy            =      -0.0000000000000000 [Eh]
	 Same-Spin Energy          =      -0.2911450753219718 [Eh]
	 Opposite-Spin Energy      =      -0.9554609019662980 [Eh]
	 Correlation Energy        =      -1.2466059772882698 [Eh]
	 Total Energy              =    -629.8750042842468702 [Eh]

	 ================> DF-SCS-MP2 Energies <==================
	-----------------------------------------------------------
	 SCS Same-Spin Scale       =       0.3333333333333333 [-]
	 SCS Opposite-Spin Scale   =       1.2000000000000000 [-]
	 SCS Same-Spin Energy      =      -0.0970483584406573 [Eh]
	 SCS Opposite-Spin Energy  =      -1.1465530823595576 [Eh]
	 SCS Correlation Energy    =      -1.2436014408002147 [Eh]
	 SCS Total Energy          =    -629.8719997477588777 [Eh]
	-----------------------------------------------------------

  Dipole Moment: [D]
     X:    -0.6469      Y:     0.0129      Z:    -1.6015     Total:     1.7273

*** Psi4 exiting successfully. Buy a developer a beer!
