                               Psi4 1.4a3.dev225

  ==> Input File <==

--------------------------------------------------------------------------
#psi4
#
memory 32 gb

molecule  {
0 1
  S        1.9015010     0.0014740    -0.5114990
  O        0.2966630    -0.0047940     1.6103990
  C       -0.8837990     0.0013960    -0.4908930
  C       -1.6918460     1.2669440    -0.1967440
  C       -1.6921440    -1.2655900    -0.2038620
  C        0.3340366    -0.0011766     0.3799805
  H       -0.5708550     0.0043180    -1.5417560
  H       -2.5996000     1.2838970    -0.8066260
  H       -1.1130310     2.1686550    -0.4169050
  H       -1.9752560     1.2862630     0.8584890
  H       -2.5999060    -1.2788960    -0.8138230
  H       -1.1135430    -2.1661840    -0.4290990
  H       -1.9755470    -1.2907820     0.8512470
  H        2.6553200    -0.0017420     0.5985790
units angstrom
no_reorient  #important for SAPT in psi4, default
symmetry c1  #important for SAPT in psi4, default
}

set PROPERTIES_ORIGIN ["COM"]
properties('MP2/aug-cc-pvtz', properties = ['dipole'])
--------------------------------------------------------------------------

    Molecular point group: c1
  Charge       = 0
  Multiplicity = 1
  Basis Set: AUG-CC-PVTZ
    Blend: AUG-CC-PVTZ
  Basis Set: (AUG-CC-PVTZ AUX)
    Blend: AUG-CC-PVTZ-JKFIT

    Orbital Energies [Eh]
    ---------------------

    Doubly Occupied:

       1A    -91.982065     2A    -20.559757     3A    -11.371177
       4A    -11.258206     5A    -11.231579     6A    -11.231563
       7A     -8.983882     8A     -6.665052     9A     -6.663982
      10A     -6.663200    11A     -1.391054    12A     -1.107226
      13A     -1.017578    14A     -0.948213    15A     -0.871023
      16A     -0.734135    17A     -0.670680    18A     -0.644322
      19A     -0.599741    20A     -0.598909    21A     -0.556968
      22A     -0.556258    23A     -0.527892    24A     -0.517863
      25A     -0.493815    26A     -0.490316    27A     -0.410436
      28A     -0.392927

  @DF-RHF Final Energy:  -628.62962278757152

   => Energetics <=

    Nuclear Repulsion Energy =            294.9650525536616215
    One-Electron Energy =               -1448.9097099182858983
    Two-Electron Energy =                 525.3150345770526428
    Total Energy =                       -628.6296227875715203
  Basis Set: (AUG-CC-PVTZ AUX)
    Blend: AUG-CC-PVTZ-RI
    Molecular point group: c1

    Geometry (in Angstrom), charge = 0, multiplicity = 1:

       Center              X                  Y                   Z               Mass
    ------------   -----------------  -----------------  -----------------  -----------------
         S            1.815276833048     0.001523021854    -0.526428352393    31.972071174400
         O            0.210438833048    -0.004744978146     1.595469647607    15.994914619570
         C           -0.970023166952     0.001445021854    -0.505822352393    12.000000000000
         C           -1.778070166952     1.266993021854    -0.211673352393    12.000000000000
         C           -1.778368166952    -1.265540978146    -0.218791352393    12.000000000000
         C            0.247812433048    -0.001127578146     0.365051147607    12.000000000000
         H           -0.657079166952     0.004367021854    -1.556685352393     1.007825032230
         H           -2.685824166952     1.283946021854    -0.821555352393     1.007825032230
         H           -1.199255166952     2.168704021854    -0.431834352393     1.007825032230
         H           -2.061480166952     1.286312021854     0.843559647607     1.007825032230
         H           -2.686130166952    -1.278846978146    -0.828752352393     1.007825032230
         H           -1.199767166952    -2.166134978146    -0.444028352393     1.007825032230
         H           -2.061771166952    -1.290732978146     0.836317647607     1.007825032230
         H            2.569095833048    -0.001692978146     0.583649647607     1.007825032230

  Basis Set: AUG-CC-PVTZ
    Blend: AUG-CC-PVTZ
  Basis Set: (AUG-CC-PVTZ AUX)
    Blend: AUG-CC-PVTZ-JKFIT
	 Reference Energy          =    -628.6296227875715203 [Eh]
	 Singles Energy            =      -0.0000000000000000 [Eh]
	 Same-Spin Energy          =      -0.2915952429192673 [Eh]
	 Opposite-Spin Energy      =      -0.9562938175687723 [Eh]
	 Correlation Energy        =      -1.2478890604880395 [Eh]
	 Total Energy              =    -629.8775118480596120 [Eh]

	 ================> DF-SCS-MP2 Energies <==================
	-----------------------------------------------------------
	 SCS Same-Spin Scale       =       0.3333333333333333 [-]
	 SCS Opposite-Spin Scale   =       1.2000000000000000 [-]
	 SCS Same-Spin Energy      =      -0.0971984143064224 [Eh]
	 SCS Opposite-Spin Energy  =      -1.1475525810825267 [Eh]
	 SCS Correlation Energy    =      -1.2447509953889491 [Eh]
	 SCS Total Energy          =    -629.8743737829604470 [Eh]
	-----------------------------------------------------------

  Dipole Moment: [D]
     X:    -0.7301      Y:     0.0049      Z:    -1.6252     Total:     1.7816

*** Psi4 exiting successfully. Buy a developer a beer!
