                               Psi4 1.4a3.dev225

  ==> Input File <==

--------------------------------------------------------------------------
#psi4
#
memory 32 gb

molecule  {
0 1
  S        1.9015010     0.0014740    -0.5114990
  O        0.2966630    -0.0047940     1.6103990
  C       -0.8837990     0.0013960    -0.4908930
  C       -1.6918460     1.2669440    -0.1967440
  C       -1.6921440    -1.2655900    -0.2038620
  C        0.3503050    -0.0012110     0.3916140
  H       -0.5708550     0.0043180    -1.5417560
  H       -2.5996000     1.2838970    -0.8066260
  H       -1.1236138     2.1521686    -0.4128797
  H       -1.9752560     1.2862630     0.8584890
  H       -2.5999060    -1.2788960    -0.8138230
  H       -1.1135430    -2.1661840    -0.4290990
  H       -1.9755470    -1.2907820     0.8512470
  H        2.6553200    -0.0017420     0.5985790
units angstrom
no_reorient  #important for SAPT in psi4, default
symmetry c1  #important for SAPT in psi4, default
}

set PROPERTIES_ORIGIN ["COM"]
properties('MP2/aug-cc-pvtz', properties = ['dipole'])
--------------------------------------------------------------------------

    Molecular point group: c1
  Charge       = 0
  Multiplicity = 1
  Basis Set: AUG-CC-PVTZ
    Blend: AUG-CC-PVTZ
  Basis Set: (AUG-CC-PVTZ AUX)
    Blend: AUG-CC-PVTZ-JKFIT

    Orbital Energies [Eh]
    ---------------------

    Doubly Occupied:

       1A    -91.982461     2A    -20.560429     3A    -11.369504
       4A    -11.257690     5A    -11.230178     6A    -11.227900
       7A     -8.984455     8A     -6.665626     9A     -6.664535
      10A     -6.663744    11A     -1.398224    12A     -1.103602
      13A     -1.019826    14A     -0.948201    15A     -0.866834
      16A     -0.734103    17A     -0.670199    18A     -0.646143
      19A     -0.602231    20A     -0.598272    21A     -0.558799
      22A     -0.555846    23A     -0.529965    24A     -0.516924
      25A     -0.493006    26A     -0.491258    27A     -0.409137
      28A     -0.394169

  @DF-RHF Final Energy:  -628.63138457118475

   => Energetics <=

    Nuclear Repulsion Energy =            295.0648810485527065
    One-Electron Energy =               -1449.1060071851097746
    Two-Electron Energy =                 525.4097415653723147
    Total Energy =                       -628.6313845711847534
  Basis Set: (AUG-CC-PVTZ AUX)
    Blend: AUG-CC-PVTZ-RI
    Molecular point group: c1

    Geometry (in Angstrom), charge = 0, multiplicity = 1:

       Center              X                  Y                   Z               Mass
    ------------   -----------------  -----------------  -----------------  -----------------
         S            1.813502768609     0.001686708044    -0.527809294138    31.972071174400
         O            0.208664768609    -0.004581291956     1.594088705862    15.994914619570
         C           -0.971797231391     0.001608708044    -0.507203294138    12.000000000000
         C           -1.779844231391     1.267156708044    -0.213054294138    12.000000000000
         C           -1.780142231391    -1.265377291956    -0.220172294138    12.000000000000
         C            0.262306768609    -0.000998291956     0.375303705862    12.000000000000
         H           -0.658853231391     0.004530708044    -1.558066294138     1.007825032230
         H           -2.687598231391     1.284109708044    -0.822936294138     1.007825032230
         H           -1.211612031391     2.152381308044    -0.429189994138     1.007825032230
         H           -2.063254231391     1.286475708044     0.842178705862     1.007825032230
         H           -2.687904231391    -1.278683291956    -0.830133294138     1.007825032230
         H           -1.201541231391    -2.165971291956    -0.445409294138     1.007825032230
         H           -2.063545231391    -1.290569291956     0.834936705862     1.007825032230
         H            2.567321768609    -0.001529291956     0.582268705862     1.007825032230

  Basis Set: AUG-CC-PVTZ
    Blend: AUG-CC-PVTZ
  Basis Set: (AUG-CC-PVTZ AUX)
    Blend: AUG-CC-PVTZ-JKFIT
	 Reference Energy          =    -628.6313845711847534 [Eh]
	 Singles Energy            =      -0.0000000000000000 [Eh]
	 Same-Spin Energy          =      -0.2912368074694594 [Eh]
	 Opposite-Spin Energy      =      -0.9554433711207603 [Eh]
	 Correlation Energy        =      -1.2466801785902197 [Eh]
	 Total Energy              =    -629.8780647497749214 [Eh]

	 ================> DF-SCS-MP2 Energies <==================
	-----------------------------------------------------------
	 SCS Same-Spin Scale       =       0.3333333333333333 [-]
	 SCS Opposite-Spin Scale   =       1.2000000000000000 [-]
	 SCS Same-Spin Energy      =      -0.0970789358231531 [Eh]
	 SCS Opposite-Spin Energy  =      -1.1465320453449124 [Eh]
	 SCS Correlation Energy    =      -1.2436109811680656 [Eh]
	 SCS Total Energy          =    -629.8749955523528570 [Eh]
	-----------------------------------------------------------

  Dipole Moment: [D]
     X:    -0.6350      Y:     0.0157      Z:    -1.5991     Total:     1.7206

*** Psi4 exiting successfully. Buy a developer a beer!
