                               Psi4 1.4a3.dev225

  ==> Input File <==

--------------------------------------------------------------------------
#psi4
#
memory 32 gb

molecule  {
0 1
  S        1.9015010     0.0014740    -0.5114990
  O        0.2966630    -0.0047940     1.6103990
  C       -0.8837990     0.0013960    -0.4908930
  C       -1.6918460     1.2669440    -0.1967440
  C       -1.6921440    -1.2655900    -0.2038620
  C        0.3503050    -0.0012110     0.3916140
  H       -0.5565845     0.0044512    -1.5896761
  H       -2.5996000     1.2838970    -0.8066260
  H       -1.1130310     2.1686550    -0.4169050
  H       -1.9752560     1.2862630     0.8584890
  H       -2.5999060    -1.2788960    -0.8138230
  H       -1.1135430    -2.1661840    -0.4290990
  H       -1.9755470    -1.2907820     0.8512470
  H        2.6553200    -0.0017420     0.5985790
units angstrom
no_reorient  #important for SAPT in psi4, default
symmetry c1  #important for SAPT in psi4, default
}

set PROPERTIES_ORIGIN ["COM"]
properties('MP2/aug-cc-pvtz', properties = ['dipole'])
--------------------------------------------------------------------------

    Molecular point group: c1
  Charge       = 0
  Multiplicity = 1
  Basis Set: AUG-CC-PVTZ
    Blend: AUG-CC-PVTZ
  Basis Set: (AUG-CC-PVTZ AUX)
    Blend: AUG-CC-PVTZ-JKFIT

    Orbital Energies [Eh]
    ---------------------

    Doubly Occupied:

       1A    -91.982385     2A    -20.560846     3A    -11.370041
       4A    -11.263871     5A    -11.230846     6A    -11.230831
       7A     -8.984354     8A     -6.665520     9A     -6.664425
      10A     -6.663635    11A     -1.398634    12A     -1.101597
      13A     -1.019694    14A     -0.947313    15A     -0.865212
      16A     -0.729137    17A     -0.668068    18A     -0.645789
      19A     -0.600312    20A     -0.598728    21A     -0.558938
      22A     -0.555971    23A     -0.529584    24A     -0.516569
      25A     -0.491323    26A     -0.487885    27A     -0.409444
      28A     -0.394057

  @DF-RHF Final Energy:  -628.62917750455847

   => Energetics <=

    Nuclear Repulsion Energy =            294.7409048356871040
    One-Electron Energy =               -1448.4701457229452899
    Two-Electron Energy =                 525.1000633826996591
    Total Energy =                       -628.6291775045584700
  Basis Set: (AUG-CC-PVTZ AUX)
    Blend: AUG-CC-PVTZ-RI
    Molecular point group: c1

    Geometry (in Angstrom), charge = 0, multiplicity = 1:

       Center              X                  Y                   Z               Mass
    ------------   -----------------  -----------------  -----------------  -----------------
         S            1.813261993087     0.001525699532    -0.527306053893    31.972071174400
         O            0.208423993087    -0.004742300468     1.594591946107    15.994914619570
         C           -0.972038006913     0.001447699532    -0.506700053893    12.000000000000
         C           -1.780085006913     1.266995699532    -0.212551053893    12.000000000000
         C           -1.780383006913    -1.265538300468    -0.219669053893    12.000000000000
         C            0.262065993087    -0.001159300468     0.375806946107    12.000000000000
         H           -0.644823506913     0.004502899532    -1.605483153893     1.007825032230
         H           -2.687839006913     1.283948699532    -0.822433053893     1.007825032230
         H           -1.201270006913     2.168706699532    -0.432712053893     1.007825032230
         H           -2.063495006913     1.286314699532     0.842681946107     1.007825032230
         H           -2.688145006913    -1.278844300468    -0.829630053893     1.007825032230
         H           -1.201782006913    -2.166132300468    -0.444906053893     1.007825032230
         H           -2.063786006913    -1.290730300468     0.835439946107     1.007825032230
         H            2.567080993087    -0.001690300468     0.582771946107     1.007825032230

  Basis Set: AUG-CC-PVTZ
    Blend: AUG-CC-PVTZ
  Basis Set: (AUG-CC-PVTZ AUX)
    Blend: AUG-CC-PVTZ-JKFIT
	 Reference Energy          =    -628.6291775045584700 [Eh]
	 Singles Energy            =      -0.0000000000000000 [Eh]
	 Same-Spin Energy          =      -0.2912906421119139 [Eh]
	 Opposite-Spin Energy      =      -0.9559595633841689 [Eh]
	 Correlation Energy        =      -1.2472502054960828 [Eh]
	 Total Energy              =    -629.8764277100545996 [Eh]

	 ================> DF-SCS-MP2 Energies <==================
	-----------------------------------------------------------
	 SCS Same-Spin Scale       =       0.3333333333333333 [-]
	 SCS Opposite-Spin Scale   =       1.2000000000000000 [-]
	 SCS Same-Spin Energy      =      -0.0970968807039713 [Eh]
	 SCS Opposite-Spin Energy  =      -1.1471514760610027 [Eh]
	 SCS Correlation Energy    =      -1.2442483567649740 [Eh]
	 SCS Total Energy          =    -629.8734258613234260 [Eh]
	-----------------------------------------------------------

  Dipole Moment: [D]
     X:    -0.6518      Y:     0.0047      Z:    -1.5735     Total:     1.7031

*** Psi4 exiting successfully. Buy a developer a beer!
