                               Psi4 1.4a3.dev225

  ==> Input File <==

--------------------------------------------------------------------------
#psi4
#
memory 32 gb

molecule  {
0 1
  S        1.9015010     0.0014740    -0.5114990
  O        0.2966630    -0.0047940     1.6103990
  C       -0.8837990     0.0013960    -0.4908930
  C       -1.6654402     1.2255878    -0.2063564
  C       -1.6921440    -1.2655900    -0.2038620
  C        0.3503050    -0.0012110     0.3916140
  H       -0.5708550     0.0043180    -1.5417560
  H       -2.5996000     1.2838970    -0.8066260
  H       -1.1130310     2.1686550    -0.4169050
  H       -1.9752560     1.2862630     0.8584890
  H       -2.5999060    -1.2788960    -0.8138230
  H       -1.1135430    -2.1661840    -0.4290990
  H       -1.9755470    -1.2907820     0.8512470
  H        2.6553200    -0.0017420     0.5985790
units angstrom
no_reorient  #important for SAPT in psi4, default
symmetry c1  #important for SAPT in psi4, default
}

set PROPERTIES_ORIGIN ["COM"]
properties('MP2/aug-cc-pvtz', properties = ['dipole'])
--------------------------------------------------------------------------

    Molecular point group: c1
  Charge       = 0
  Multiplicity = 1
  Basis Set: AUG-CC-PVTZ
    Blend: AUG-CC-PVTZ
  Basis Set: (AUG-CC-PVTZ AUX)
    Blend: AUG-CC-PVTZ-JKFIT

    Orbital Energies [Eh]
    ---------------------

    Doubly Occupied:

       1A    -91.982806     2A    -20.561025     3A    -11.370021
       4A    -11.256088     5A    -11.232004     6A    -11.230492
       7A     -8.984790     8A     -6.665961     9A     -6.664871
      10A     -6.664079    11A     -1.398857    12A     -1.110480
      13A     -1.020791    14A     -0.946559    15A     -0.864879
      16A     -0.735956    17A     -0.671846    18A     -0.648152
      19A     -0.602379    20A     -0.599215    21A     -0.558538
      22A     -0.551933    23A     -0.525732    24A     -0.513947
      25A     -0.500754    26A     -0.486322    27A     -0.409395
      28A     -0.394424

  @DF-RHF Final Energy:  -628.62827093416172

   => Energetics <=

    Nuclear Repulsion Energy =            295.8054491701776669
    One-Electron Energy =               -1450.5628478537657884
    Two-Electron Energy =                 526.1291277494265159
    Total Energy =                       -628.6282709341617192
  Basis Set: (AUG-CC-PVTZ AUX)
    Blend: AUG-CC-PVTZ-RI
    Molecular point group: c1

    Geometry (in Angstrom), charge = 0, multiplicity = 1:

       Center              X                  Y                   Z               Mass
    ------------   -----------------  -----------------  -----------------  -----------------
         S            1.810354287267     0.006297502065    -0.526661489916    31.972071174400
         O            0.205516287267     0.000029502065     1.595236510084    15.994914619570
         C           -0.974945712733     0.006219502065    -0.506055489916    12.000000000000
         C           -1.756586912733     1.230411302065    -0.221518889916    12.000000000000
         C           -1.783290712733    -1.260766497935    -0.219024489916    12.000000000000
         C            0.259158287267     0.003612502065     0.376451510084    12.000000000000
         H           -0.662001712733     0.009141502065    -1.556918489916     1.007825032230
         H           -2.690746712733     1.288720502065    -0.821788489916     1.007825032230
         H           -1.204177712733     2.173478502065    -0.432067489916     1.007825032230
         H           -2.066402712733     1.291086502065     0.843326510084     1.007825032230
         H           -2.691052712733    -1.274072497935    -0.828985489916     1.007825032230
         H           -1.204689712733    -2.161360497935    -0.444261489916     1.007825032230
         H           -2.066693712733    -1.285958497935     0.836084510084     1.007825032230
         H            2.564173287267     0.003081502065     0.583416510084     1.007825032230

  Basis Set: AUG-CC-PVTZ
    Blend: AUG-CC-PVTZ
  Basis Set: (AUG-CC-PVTZ AUX)
    Blend: AUG-CC-PVTZ-JKFIT
	 Reference Energy          =    -628.6282709341617192 [Eh]
	 Singles Energy            =      -0.0000000000000000 [Eh]
	 Same-Spin Energy          =      -0.2916796647623601 [Eh]
	 Opposite-Spin Energy      =      -0.9560741337429117 [Eh]
	 Correlation Energy        =      -1.2477537985052718 [Eh]
	 Total Energy              =    -629.8760247326670196 [Eh]

	 ================> DF-SCS-MP2 Energies <==================
	-----------------------------------------------------------
	 SCS Same-Spin Scale       =       0.3333333333333333 [-]
	 SCS Opposite-Spin Scale   =       1.2000000000000000 [-]
	 SCS Same-Spin Energy      =      -0.0972265549207867 [Eh]
	 SCS Opposite-Spin Energy  =      -1.1472889604914940 [Eh]
	 SCS Correlation Energy    =      -1.2445155154122807 [Eh]
	 SCS Total Energy          =    -629.8727864495740505 [Eh]
	-----------------------------------------------------------

  Dipole Moment: [D]
     X:    -0.6154      Y:    -0.0045      Z:    -1.5880     Total:     1.7030

*** Psi4 exiting successfully. Buy a developer a beer!
