                               Psi4 1.4a3.dev225

  ==> Input File <==

--------------------------------------------------------------------------
#psi4
#
memory 32 gb

molecule  {
0 1
  S        1.9015010     0.0014740    -0.5114990
  O        0.2966630    -0.0047940     1.6103990
  C       -0.8837990     0.0013960    -0.4908930
  C       -1.6918460     1.2669440    -0.1967440
  C       -1.6921440    -1.2655900    -0.2038620
  C        0.3503050    -0.0012110     0.3916140
  H       -0.5708550     0.0043180    -1.5417560
  H       -2.5996000     1.2838970    -0.8066260
  H       -1.1130310     2.1686550    -0.4169050
  H       -1.9752560     1.2862630     0.8584890
  H       -2.5999060    -1.2788960    -0.8138230
  H       -1.0077546    -2.3308440    -0.4702802
  H       -1.9755470    -1.2907820     0.8512470
  H        2.6553200    -0.0017420     0.5985790
units angstrom
no_reorient  #important for SAPT in psi4, default
symmetry c1  #important for SAPT in psi4, default
}

set PROPERTIES_ORIGIN ["COM"]
properties('MP2/aug-cc-pvtz', properties = ['dipole'])
--------------------------------------------------------------------------

    Molecular point group: c1
  Charge       = 0
  Multiplicity = 1
  Basis Set: AUG-CC-PVTZ
    Blend: AUG-CC-PVTZ
  Basis Set: (AUG-CC-PVTZ AUX)
    Blend: AUG-CC-PVTZ-JKFIT

    Orbital Energies [Eh]
    ---------------------

    Doubly Occupied:

       1A    -91.982538     2A    -20.560813     3A    -11.370136
       4A    -11.260315     5A    -11.253249     6A    -11.232552
       7A     -8.984520     8A     -6.665692     9A     -6.664603
      10A     -6.663808    11A     -1.398607    12A     -1.103373
      13A     -1.019632    14A     -0.938959    15A     -0.864086
      16A     -0.733889    17A     -0.670591    18A     -0.642175
      19A     -0.600216    20A     -0.590122    21A     -0.560031
      22A     -0.553924    23A     -0.522530    24A     -0.518067
      25A     -0.494944    26A     -0.475495    27A     -0.409638
      28A     -0.394133

  @DF-RHF Final Energy:  -628.61142727843708

   => Energetics <=

    Nuclear Repulsion Energy =            294.2297593081632385
    One-Electron Energy =               -1447.4250945328167290
    Two-Electron Energy =                 524.5839079462164136
    Total Energy =                       -628.6114272784370769
  Basis Set: (AUG-CC-PVTZ AUX)
    Blend: AUG-CC-PVTZ-RI
    Molecular point group: c1

    Geometry (in Angstrom), charge = 0, multiplicity = 1:

       Center              X                  Y                   Z               Mass
    ------------   -----------------  -----------------  -----------------  -----------------
         S            1.812375379634     0.003122194514    -0.527371339475    31.972071174400
         O            0.207537379634    -0.003145805486     1.594526660525    15.994914619570
         C           -0.972924620366     0.003044194514    -0.506765339475    12.000000000000
         C           -1.780971620366     1.268592194514    -0.212616339475    12.000000000000
         C           -1.781269620366    -1.263941805486    -0.219734339475    12.000000000000
         C            0.261179379634     0.000437194514     0.375741660525    12.000000000000
         H           -0.659980620366     0.005966194514    -1.557628339475     1.007825032230
         H           -2.688725620366     1.285545194514    -0.822498339475     1.007825032230
         H           -1.202156620366     2.170303194514    -0.432777339475     1.007825032230
         H           -2.064381620366     1.287911194514     0.842616660525     1.007825032230
         H           -2.689031620366    -1.277247805486    -0.829695339475     1.007825032230
         H           -1.096880220366    -2.329195805486    -0.486152539475     1.007825032230
         H           -2.064672620366    -1.289133805486     0.835374660525     1.007825032230
         H            2.566194379634    -0.000093805486     0.582706660525     1.007825032230

  Basis Set: AUG-CC-PVTZ
    Blend: AUG-CC-PVTZ
  Basis Set: (AUG-CC-PVTZ AUX)
    Blend: AUG-CC-PVTZ-JKFIT
	 Reference Energy          =    -628.6114272784370769 [Eh]
	 Singles Energy            =      -0.0000000000000000 [Eh]
	 Same-Spin Energy          =      -0.2911966442979020 [Eh]
	 Opposite-Spin Energy      =      -0.9571070420095147 [Eh]
	 Correlation Energy        =      -1.2483036863074166 [Eh]
	 Total Energy              =    -629.8597309647444717 [Eh]

	 ================> DF-SCS-MP2 Energies <==================
	-----------------------------------------------------------
	 SCS Same-Spin Scale       =       0.3333333333333333 [-]
	 SCS Opposite-Spin Scale   =       1.2000000000000000 [-]
	 SCS Same-Spin Energy      =      -0.0970655480993007 [Eh]
	 SCS Opposite-Spin Energy  =      -1.1485284504114175 [Eh]
	 SCS Correlation Energy    =      -1.2455939985107181 [Eh]
	 SCS Total Energy          =    -629.8570212769477621 [Eh]
	-----------------------------------------------------------

  Dipole Moment: [D]
     X:    -0.6736      Y:     0.1443      Z:    -1.5763     Total:     1.7202

*** Psi4 exiting successfully. Buy a developer a beer!
