                               Psi4 1.4a3.dev225

  ==> Input File <==

--------------------------------------------------------------------------
#psi4
#
memory 32 gb

molecule  {
0 1
  S        1.9015010     0.0014740    -0.5114990
  O        0.2966630    -0.0047940     1.6103990
  C       -0.8837990     0.0013960    -0.4908930
  C       -1.6918460     1.2669440    -0.1967440
  C       -1.6921440    -1.2655900    -0.2038620
  C        0.3503050    -0.0012110     0.3916140
  H       -0.5708550     0.0043180    -1.5417560
  H       -2.5996000     1.2838970    -0.8066260
  H       -1.1130310     2.1686550    -0.4169050
  H       -1.9752560     1.2862630     0.8584890
  H       -2.5999060    -1.2788960    -0.8138230
  H       -1.1135430    -2.1661840    -0.4290990
  H       -1.9755470    -1.2907820     0.8512470
  H        2.7676763    -0.0022213     0.7640355
units angstrom
no_reorient  #important for SAPT in psi4, default
symmetry c1  #important for SAPT in psi4, default
}

set PROPERTIES_ORIGIN ["COM"]
properties('MP2/aug-cc-pvtz', properties = ['dipole'])
--------------------------------------------------------------------------

    Molecular point group: c1
  Charge       = 0
  Multiplicity = 1
  Basis Set: AUG-CC-PVTZ
    Blend: AUG-CC-PVTZ
  Basis Set: (AUG-CC-PVTZ AUX)
    Blend: AUG-CC-PVTZ-JKFIT

    Orbital Energies [Eh]
    ---------------------

    Doubly Occupied:

       1A    -91.993978     2A    -20.559537     3A    -11.369329
       4A    -11.258544     5A    -11.230533     6A    -11.230517
       7A     -8.992258     8A     -6.673171     9A     -6.672102
      10A     -6.671490    11A     -1.397364    12A     -1.103270
      13A     -1.005596    14A     -0.947068    15A     -0.860145
      16A     -0.731574    17A     -0.665694    18A     -0.639906
      19A     -0.598237    20A     -0.595132    21A     -0.555740
      22A     -0.554140    23A     -0.529073    24A     -0.506361
      25A     -0.490745    26A     -0.485904    27A     -0.408532
      28A     -0.392939

  @DF-RHF Final Energy:  -628.61405431607329

   => Energetics <=

    Nuclear Repulsion Energy =            293.9612251080624787
    One-Electron Energy =               -1446.9127989653040913
    Two-Electron Energy =                 524.3375195411682625
    Total Energy =                       -628.6140543160732932
  Basis Set: (AUG-CC-PVTZ AUX)
    Blend: AUG-CC-PVTZ-RI
    Molecular point group: c1

    Geometry (in Angstrom), charge = 0, multiplicity = 1:

       Center              X                  Y                   Z               Mass
    ------------   -----------------  -----------------  -----------------  -----------------
         S            1.812311750677     0.001531633352    -0.529373218503    31.972071174400
         O            0.207473750677    -0.004736366648     1.592524781497    15.994914619570
         C           -0.972988249323     0.001453633352    -0.508767218503    12.000000000000
         C           -1.781035249323     1.267001633352    -0.214618218503    12.000000000000
         C           -1.781333249323    -1.265532366648    -0.221736218503    12.000000000000
         C            0.261115750677    -0.001153366648     0.373739781497    12.000000000000
         H           -0.660044249323     0.004375633352    -1.559630218503     1.007825032230
         H           -2.688789249323     1.283954633352    -0.824500218503     1.007825032230
         H           -1.202220249323     2.168712633352    -0.434779218503     1.007825032230
         H           -2.064445249323     1.286320633352     0.840614781497     1.007825032230
         H           -2.689095249323    -1.278838366648    -0.831697218503     1.007825032230
         H           -1.202732249323    -2.166126366648    -0.446973218503     1.007825032230
         H           -2.064736249323    -1.290724366648     0.833372781497     1.007825032230
         H            2.678487050677    -0.002163666648     0.746161281497     1.007825032230

  Basis Set: AUG-CC-PVTZ
    Blend: AUG-CC-PVTZ
  Basis Set: (AUG-CC-PVTZ AUX)
    Blend: AUG-CC-PVTZ-JKFIT
	 Reference Energy          =    -628.6140543160732932 [Eh]
	 Singles Energy            =      -0.0000000000000000 [Eh]
	 Same-Spin Energy          =      -0.2915128471266989 [Eh]
	 Opposite-Spin Energy      =      -0.9573464731155399 [Eh]
	 Correlation Energy        =      -1.2488593202422389 [Eh]
	 Total Energy              =    -629.8629136363155112 [Eh]

	 ================> DF-SCS-MP2 Energies <==================
	-----------------------------------------------------------
	 SCS Same-Spin Scale       =       0.3333333333333333 [-]
	 SCS Opposite-Spin Scale   =       1.2000000000000000 [-]
	 SCS Same-Spin Energy      =      -0.0971709490422330 [Eh]
	 SCS Opposite-Spin Energy  =      -1.1488157677386479 [Eh]
	 SCS Correlation Energy    =      -1.2459867167808809 [Eh]
	 SCS Total Energy          =    -629.8600410328541557 [Eh]
	-----------------------------------------------------------

  Dipole Moment: [D]
     X:    -0.6185      Y:     0.0046      Z:    -1.5471     Total:     1.6662

*** Psi4 exiting successfully. Buy a developer a beer!
