                               Psi4 1.4a3.dev225

  ==> Input File <==

--------------------------------------------------------------------------
#psi4
#
memory 32 gb

molecule  {
0 1
  S        1.9015010     0.0014740    -0.5114990
  O        0.2966630    -0.0047940     1.6103990
  C       -0.8837990     0.0013960    -0.4908930
  C       -1.6918460     1.2669440    -0.1967440
  C       -1.6921440    -1.2655900    -0.2038620
  C        0.3503050    -0.0012110     0.3916140
  H       -0.5708550     0.0043180    -1.5417560
  H       -2.5996000     1.2838970    -0.8066260
  H       -1.0072034     2.3335192    -0.4571581
  H       -1.9752560     1.2862630     0.8584890
  H       -2.5999060    -1.2788960    -0.8138230
  H       -1.1135430    -2.1661840    -0.4290990
  H       -1.9755470    -1.2907820     0.8512470
  H        2.6553200    -0.0017420     0.5985790
units angstrom
no_reorient  #important for SAPT in psi4, default
symmetry c1  #important for SAPT in psi4, default
}

set PROPERTIES_ORIGIN ["COM"]
properties('MP2/aug-cc-pvtz', properties = ['dipole'])
--------------------------------------------------------------------------

    Molecular point group: c1
  Charge       = 0
  Multiplicity = 1
  Basis Set: AUG-CC-PVTZ
    Blend: AUG-CC-PVTZ
  Basis Set: (AUG-CC-PVTZ AUX)
    Blend: AUG-CC-PVTZ-JKFIT

    Orbital Energies [Eh]
    ---------------------

    Doubly Occupied:

       1A    -91.982538     2A    -20.560813     3A    -11.370136
       4A    -11.260315     5A    -11.253253     6A    -11.232548
       7A     -8.984520     8A     -6.665691     9A     -6.664602
      10A     -6.663808    11A     -1.398607    12A     -1.103373
      13A     -1.019632    14A     -0.938958    15A     -0.864086
      16A     -0.733889    17A     -0.670591    18A     -0.642174
      19A     -0.600222    20A     -0.590113    21A     -0.560036
      22A     -0.553920    23A     -0.522531    24A     -0.518067
      25A     -0.494942    26A     -0.475497    27A     -0.409638
      28A     -0.394132

  @DF-RHF Final Energy:  -628.61142723046964

   => Energetics <=

    Nuclear Repulsion Energy =            294.2297771266851782
    One-Electron Energy =               -1447.4251384563240208
    Two-Electron Energy =                 524.5839340991692552
    Total Energy =                       -628.6114272304696442
  Basis Set: (AUG-CC-PVTZ AUX)
    Blend: AUG-CC-PVTZ-RI
    Molecular point group: c1

    Geometry (in Angstrom), charge = 0, multiplicity = 1:

       Center              X                  Y                   Z               Mass
    ------------   -----------------  -----------------  -----------------  -----------------
         S            1.812374999870    -0.000070192865    -0.527380330786    31.972071174400
         O            0.207536999870    -0.006338192865     1.594517669214    15.994914619570
         C           -0.972925000130    -0.000148192865    -0.506774330786    12.000000000000
         C           -1.780972000130     1.265399807135    -0.212625330786    12.000000000000
         C           -1.781270000130    -1.267134192865    -0.219743330786    12.000000000000
         C            0.261178999870    -0.002755192865     0.375732669214    12.000000000000
         H           -0.659981000130     0.002773807135    -1.557637330786     1.007825032230
         H           -2.688726000130     1.282352807135    -0.822507330786     1.007825032230
         H           -1.096329400130     2.331975007135    -0.473039430786     1.007825032230
         H           -2.064382000130     1.284718807135     0.842607669214     1.007825032230
         H           -2.689032000130    -1.280440192865    -0.829704330786     1.007825032230
         H           -1.202669000130    -2.167728192865    -0.444980330786     1.007825032230
         H           -2.064673000130    -1.292326192865     0.835365669214     1.007825032230
         H            2.566193999870    -0.003286192865     0.582697669214     1.007825032230

  Basis Set: AUG-CC-PVTZ
    Blend: AUG-CC-PVTZ
  Basis Set: (AUG-CC-PVTZ AUX)
    Blend: AUG-CC-PVTZ-JKFIT
	 Reference Energy          =    -628.6114272304696442 [Eh]
	 Singles Energy            =      -0.0000000000000000 [Eh]
	 Same-Spin Energy          =      -0.2911966913022660 [Eh]
	 Opposite-Spin Energy      =      -0.9571070742960824 [Eh]
	 Correlation Energy        =      -1.2483037655983484 [Eh]
	 Total Energy              =    -629.8597309960680377 [Eh]

	 ================> DF-SCS-MP2 Energies <==================
	-----------------------------------------------------------
	 SCS Same-Spin Scale       =       0.3333333333333333 [-]
	 SCS Opposite-Spin Scale   =       1.2000000000000000 [-]
	 SCS Same-Spin Energy      =      -0.0970655637674220 [Eh]
	 SCS Opposite-Spin Energy  =      -1.1485284891552989 [Eh]
	 SCS Correlation Energy    =      -1.2455940529227210 [Eh]
	 SCS Total Energy          =    -629.8570212833923279 [Eh]
	-----------------------------------------------------------

  Dipole Moment: [D]
     X:    -0.6736      Y:    -0.1348      Z:    -1.5771     Total:     1.7202

*** Psi4 exiting successfully. Buy a developer a beer!
