                               Psi4 1.4a3.dev225

  ==> Input File <==

--------------------------------------------------------------------------
#psi4
#
memory 32 gb

molecule  {
0 1
  S        1.9015010     0.0014740    -0.5114990
  O        0.2966630    -0.0047940     1.6103990
  C       -0.8816174     0.0089989    -0.5163989
  C       -1.6918460     1.2669440    -0.1967440
  C       -1.6921440    -1.2655900    -0.2038620
  C        0.3503050    -0.0012110     0.3916140
  H       -0.5708550     0.0043180    -1.5417560
  H       -2.5996000     1.2838970    -0.8066260
  H       -1.1130310     2.1686550    -0.4169050
  H       -1.9752560     1.2862630     0.8584890
  H       -2.5999060    -1.2788960    -0.8138230
  H       -1.1135430    -2.1661840    -0.4290990
  H       -1.9755470    -1.2907820     0.8512470
  H        2.6553200    -0.0017420     0.5985790
units angstrom
no_reorient  #important for SAPT in psi4, default
symmetry c1  #important for SAPT in psi4, default
}

set PROPERTIES_ORIGIN ["COM"]
properties('MP2/aug-cc-pvtz', properties = ['dipole'])
--------------------------------------------------------------------------

    Molecular point group: c1
  Charge       = 0
  Multiplicity = 1
  Basis Set: AUG-CC-PVTZ
    Blend: AUG-CC-PVTZ
  Basis Set: (AUG-CC-PVTZ AUX)
    Blend: AUG-CC-PVTZ-JKFIT

    Orbital Energies [Eh]
    ---------------------

    Doubly Occupied:

       1A    -91.981780     2A    -20.560794     3A    -11.370150
       4A    -11.257518     5A    -11.230809     6A    -11.230238
       7A     -8.983840     8A     -6.665016     9A     -6.663911
      10A     -6.663128    11A     -1.397867    12A     -1.102088
      13A     -1.019146    14A     -0.945759    15A     -0.865097
      16A     -0.737456    17A     -0.669653    18A     -0.644844
      19A     -0.600655    20A     -0.596713    21A     -0.558025
      22A     -0.556379    23A     -0.529174    24A     -0.517304
      25A     -0.498694    26A     -0.487813    27A     -0.407304
      28A     -0.393897

  @DF-RHF Final Energy:  -628.63074985380763

   => Energetics <=

    Nuclear Repulsion Energy =            294.7381020570852570
    One-Electron Energy =               -1448.4675983321731110
    Two-Electron Energy =                 525.0987464212803388
    Total Energy =                       -628.6307498538076288
  Basis Set: (AUG-CC-PVTZ AUX)
    Blend: AUG-CC-PVTZ-RI
    Molecular point group: c1

    Geometry (in Angstrom), charge = 0, multiplicity = 1:

       Center              X                  Y                   Z               Mass
    ------------   -----------------  -----------------  -----------------  -----------------
         S            1.813148592339     0.000649981756    -0.524828146083    31.972071174400
         O            0.208310592339    -0.005618018244     1.597069853917    15.994914619570
         C           -0.969969807661     0.008174881756    -0.529728046083    12.000000000000
         C           -1.780198407661     1.266119981756    -0.210073146083    12.000000000000
         C           -1.780496407661    -1.266414018244    -0.217191146083    12.000000000000
         C            0.261952592339    -0.002035018244     0.378284853917    12.000000000000
         H           -0.659207407661     0.003493981756    -1.555085146083     1.007825032230
         H           -2.687952407661     1.283072981756    -0.819955146083     1.007825032230
         H           -1.201383407661     2.167830981756    -0.430234146083     1.007825032230
         H           -2.063608407661     1.285438981756     0.845159853917     1.007825032230
         H           -2.688258407661    -1.279720018244    -0.827152146083     1.007825032230
         H           -1.201895407661    -2.167008018244    -0.442428146083     1.007825032230
         H           -2.063899407661    -1.291606018244     0.837917853917     1.007825032230
         H            2.566967592339    -0.002566018244     0.585249853917     1.007825032230

  Basis Set: AUG-CC-PVTZ
    Blend: AUG-CC-PVTZ
  Basis Set: (AUG-CC-PVTZ AUX)
    Blend: AUG-CC-PVTZ-JKFIT
	 Reference Energy          =    -628.6307498538076288 [Eh]
	 Singles Energy            =      -0.0000000000000000 [Eh]
	 Same-Spin Energy          =      -0.2911707520772046 [Eh]
	 Opposite-Spin Energy      =      -0.9554592163280262 [Eh]
	 Correlation Energy        =      -1.2466299684052307 [Eh]
	 Total Energy              =    -629.8773798222129017 [Eh]

	 ================> DF-SCS-MP2 Energies <==================
	-----------------------------------------------------------
	 SCS Same-Spin Scale       =       0.3333333333333333 [-]
	 SCS Opposite-Spin Scale   =       1.2000000000000000 [-]
	 SCS Same-Spin Energy      =      -0.0970569173590682 [Eh]
	 SCS Opposite-Spin Energy  =      -1.1465510595936315 [Eh]
	 SCS Correlation Energy    =      -1.2436079769526995 [Eh]
	 SCS Total Energy          =    -629.8743578307603457 [Eh]
	-----------------------------------------------------------

  Dipole Moment: [D]
     X:    -0.6423      Y:     0.0087      Z:    -1.6007     Total:     1.7248

*** Psi4 exiting successfully. Buy a developer a beer!
