                               Psi4 1.4a3.dev225

  ==> Input File <==

--------------------------------------------------------------------------
#psi4
#
memory 32 gb

molecule  {
0 1
  S        1.9015010     0.0014740    -0.5114990
  O        0.2966630    -0.0047940     1.6103990
  C       -0.8837990     0.0013960    -0.4908930
  C       -1.6918460     1.2669440    -0.1967440
  C       -1.6921440    -1.2655900    -0.2038620
  C        0.3503050    -0.0012110     0.3916140
  H       -0.5708550     0.0043180    -1.5417560
  H       -2.5882555     1.3172255    -0.8213899
  H       -1.1130310     2.1686550    -0.4169050
  H       -1.9752560     1.2862630     0.8584890
  H       -2.5999060    -1.2788960    -0.8138230
  H       -1.1135430    -2.1661840    -0.4290990
  H       -1.9755470    -1.2907820     0.8512470
  H        2.6553200    -0.0017420     0.5985790
units angstrom
no_reorient  #important for SAPT in psi4, default
symmetry c1  #important for SAPT in psi4, default
}

set PROPERTIES_ORIGIN ["COM"]
properties('MP2/aug-cc-pvtz', properties = ['dipole'])
--------------------------------------------------------------------------

    Molecular point group: c1
  Charge       = 0
  Multiplicity = 1
  Basis Set: AUG-CC-PVTZ
    Blend: AUG-CC-PVTZ
  Basis Set: (AUG-CC-PVTZ AUX)
    Blend: AUG-CC-PVTZ-JKFIT

    Orbital Energies [Eh]
    ---------------------

    Doubly Occupied:

       1A    -91.982534     2A    -20.560562     3A    -11.369691
       4A    -11.258087     5A    -11.230275     6A    -11.230244
       7A     -8.984524     8A     -6.665694     9A     -6.664604
      10A     -6.663812    11A     -1.398348    12A     -1.103324
      13A     -1.019759    14A     -0.947044    15A     -0.866474
      16A     -0.734069    17A     -0.670588    18A     -0.645379
      19A     -0.600825    20A     -0.597806    21A     -0.558705
      22A     -0.556151    23A     -0.528394    24A     -0.517260
      25A     -0.492735    26A     -0.490867    27A     -0.409291
      28A     -0.394210

  @DF-RHF Final Energy:  -628.63124745929917

   => Energetics <=

    Nuclear Repulsion Energy =            294.9502174581666054
    One-Electron Energy =               -1448.8804122621731949
    Two-Electron Energy =                 525.2989473447073578
    Total Energy =                       -628.6312474592991748
  Basis Set: (AUG-CC-PVTZ AUX)
    Blend: AUG-CC-PVTZ-RI
    Molecular point group: c1

    Geometry (in Angstrom), charge = 0, multiplicity = 1:

       Center              X                  Y                   Z               Mass
    ------------   -----------------  -----------------  -----------------  -----------------
         S            1.813290339793     0.001204107804    -0.527627266824    31.972071174400
         O            0.208452339793    -0.005063892196     1.594270733176    15.994914619570
         C           -0.972009660207     0.001126107804    -0.507021266824    12.000000000000
         C           -1.780056660207     1.266674107804    -0.212872266824    12.000000000000
         C           -1.780354660207    -1.265859892196    -0.219990266824    12.000000000000
         C            0.262094339793    -0.001480892196     0.375485733176    12.000000000000
         H           -0.659065660207     0.004048107804    -1.557884266824     1.007825032230
         H           -2.676466160207     1.316955607804    -0.837518166824     1.007825032230
         H           -1.201241660207     2.168385107804    -0.433033266824     1.007825032230
         H           -2.063466660207     1.285993107804     0.842360733176     1.007825032230
         H           -2.688116660207    -1.279165892196    -0.829951266824     1.007825032230
         H           -1.201753660207    -2.166453892196    -0.445227266824     1.007825032230
         H           -2.063757660207    -1.291051892196     0.835118733176     1.007825032230
         H            2.567109339793    -0.002011892196     0.582450733176     1.007825032230

  Basis Set: AUG-CC-PVTZ
    Blend: AUG-CC-PVTZ
  Basis Set: (AUG-CC-PVTZ AUX)
    Blend: AUG-CC-PVTZ-JKFIT
	 Reference Energy          =    -628.6312474592991748 [Eh]
	 Singles Energy            =      -0.0000000000000000 [Eh]
	 Same-Spin Energy          =      -0.2912134223660018 [Eh]
	 Opposite-Spin Energy      =      -0.9555299360101255 [Eh]
	 Correlation Energy        =      -1.2467433583761274 [Eh]
	 Total Energy              =    -629.8779908176752542 [Eh]

	 ================> DF-SCS-MP2 Energies <==================
	-----------------------------------------------------------
	 SCS Same-Spin Scale       =       0.3333333333333333 [-]
	 SCS Opposite-Spin Scale   =       1.2000000000000000 [-]
	 SCS Same-Spin Energy      =      -0.0970711407886673 [Eh]
	 SCS Opposite-Spin Energy  =      -1.1466359232121506 [Eh]
	 SCS Correlation Energy    =      -1.2437070640008179 [Eh]
	 SCS Total Energy          =    -629.8749545232999481 [Eh]
	-----------------------------------------------------------

  Dipole Moment: [D]
     X:    -0.6328      Y:     0.0146      Z:    -1.6054     Total:     1.7257

*** Psi4 exiting successfully. Buy a developer a beer!
