                               Psi4 1.4a3.dev225

  ==> Input File <==

--------------------------------------------------------------------------
#psi4
#
memory 32 gb

molecule  {
0 1
  S        1.9015010     0.0014740    -0.5114990
  O        0.2966630    -0.0047940     1.6103990
  C       -0.8837990     0.0013960    -0.4908930
  C       -1.6918460     1.2669440    -0.1967440
  C       -1.6921440    -1.2655900    -0.2038620
  C        0.3096340    -0.0011251     0.3625302
  H       -0.5708550     0.0043180    -1.5417560
  H       -2.5996000     1.2838970    -0.8066260
  H       -1.1130310     2.1686550    -0.4169050
  H       -1.9752560     1.2862630     0.8584890
  H       -2.5999060    -1.2788960    -0.8138230
  H       -1.1135430    -2.1661840    -0.4290990
  H       -1.9755470    -1.2907820     0.8512470
  H        2.6553200    -0.0017420     0.5985790
units angstrom
no_reorient  #important for SAPT in psi4, default
symmetry c1  #important for SAPT in psi4, default
}

set PROPERTIES_ORIGIN ["COM"]
properties('MP2/aug-cc-pvtz', properties = ['dipole'])
--------------------------------------------------------------------------

    Molecular point group: c1
  Charge       = 0
  Multiplicity = 1
  Basis Set: AUG-CC-PVTZ
    Blend: AUG-CC-PVTZ
  Basis Set: (AUG-CC-PVTZ AUX)
    Blend: AUG-CC-PVTZ-JKFIT

    Orbital Energies [Eh]
    ---------------------

    Doubly Occupied:

       1A    -91.981513     2A    -20.558610     3A    -11.373631
       4A    -11.258495     5A    -11.233497     6A    -11.233480
       7A     -8.983061     8A     -6.664228     9A     -6.663189
      10A     -6.662418    11A     -1.380261    12A     -1.113312
      13A     -1.014326    14A     -0.950229    15A     -0.877961
      16A     -0.734445    17A     -0.671648    18A     -0.642630
      19A     -0.600232    20A     -0.597905    21A     -0.557292
      22A     -0.554137    23A     -0.526098    24A     -0.519484
      25A     -0.495259    26A     -0.488979    27A     -0.411494
      28A     -0.391074

  @DF-RHF Final Energy:  -628.62517427107286

   => Energetics <=

    Nuclear Repulsion Energy =            294.9500123903076201
    One-Electron Energy =               -1448.8725999659930039
    Two-Electron Energy =                 525.2974133046125189
    Total Energy =                       -628.6251742710728649
  Basis Set: (AUG-CC-PVTZ AUX)
    Blend: AUG-CC-PVTZ-RI
    Molecular point group: c1

    Geometry (in Angstrom), charge = 0, multiplicity = 1:

       Center              X                  Y                   Z               Mass
    ------------   -----------------  -----------------  -----------------  -----------------
         S            1.818091716882     0.001517081236    -0.524415428878    31.972071174400
         O            0.213253716882    -0.004750918764     1.597482571122    15.994914619570
         C           -0.967208283118     0.001439081236    -0.503809428878    12.000000000000
         C           -1.775255283118     1.266987081236    -0.209660428878    12.000000000000
         C           -1.775553283118    -1.265546918764    -0.216778428878    12.000000000000
         C            0.226224716882    -0.001082018764     0.349613771122    12.000000000000
         H           -0.654264283118     0.004361081236    -1.554672428878     1.007825032230
         H           -2.683009283118     1.283940081236    -0.819542428878     1.007825032230
         H           -1.196440283118     2.168698081236    -0.429821428878     1.007825032230
         H           -2.058665283118     1.286306081236     0.845572571122     1.007825032230
         H           -2.683315283118    -1.278852918764    -0.826739428878     1.007825032230
         H           -1.196952283118    -2.166140918764    -0.442015428878     1.007825032230
         H           -2.058956283118    -1.290738918764     0.838330571122     1.007825032230
         H            2.571910716882    -0.001698918764     0.585662571122     1.007825032230

  Basis Set: AUG-CC-PVTZ
    Blend: AUG-CC-PVTZ
  Basis Set: (AUG-CC-PVTZ AUX)
    Blend: AUG-CC-PVTZ-JKFIT
	 Reference Energy          =    -628.6251742710728649 [Eh]
	 Singles Energy            =      -0.0000000000000000 [Eh]
	 Same-Spin Energy          =      -0.2922179142972690 [Eh]
	 Opposite-Spin Energy      =      -0.9575315067432491 [Eh]
	 Correlation Energy        =      -1.2497494210405180 [Eh]
	 Total Energy              =    -629.8749236921133843 [Eh]

	 ================> DF-SCS-MP2 Energies <==================
	-----------------------------------------------------------
	 SCS Same-Spin Scale       =       0.3333333333333333 [-]
	 SCS Opposite-Spin Scale   =       1.2000000000000000 [-]
	 SCS Same-Spin Energy      =      -0.0974059714324230 [Eh]
	 SCS Opposite-Spin Energy  =      -1.1490378080918988 [Eh]
	 SCS Correlation Energy    =      -1.2464437795243217 [Eh]
	 SCS Total Energy          =    -629.8716180505971352 [Eh]
	-----------------------------------------------------------

  Dipole Moment: [D]
     X:    -0.8704      Y:     0.0050      Z:    -1.6664     Total:     1.8800

*** Psi4 exiting successfully. Buy a developer a beer!
