                               Psi4 1.4a3.dev225

  ==> Input File <==

--------------------------------------------------------------------------
#psi4
#
memory 32 gb

molecule  {
0 1
  S        1.9015010     0.0014740    -0.5114990
  O        0.2966630    -0.0047940     1.6103990
  C       -0.8654869    -0.0065502    -0.4731550
  C       -1.6918460     1.2669440    -0.1967440
  C       -1.6921440    -1.2655900    -0.2038620
  C        0.3503050    -0.0012110     0.3916140
  H       -0.5708550     0.0043180    -1.5417560
  H       -2.5996000     1.2838970    -0.8066260
  H       -1.1130310     2.1686550    -0.4169050
  H       -1.9752560     1.2862630     0.8584890
  H       -2.5999060    -1.2788960    -0.8138230
  H       -1.1135430    -2.1661840    -0.4290990
  H       -1.9755470    -1.2907820     0.8512470
  H        2.6553200    -0.0017420     0.5985790
units angstrom
no_reorient  #important for SAPT in psi4, default
symmetry c1  #important for SAPT in psi4, default
}

set PROPERTIES_ORIGIN ["COM"]
properties('MP2/aug-cc-pvtz', properties = ['dipole'])
--------------------------------------------------------------------------

    Molecular point group: c1
  Charge       = 0
  Multiplicity = 1
  Basis Set: AUG-CC-PVTZ
    Blend: AUG-CC-PVTZ
  Basis Set: (AUG-CC-PVTZ AUX)
    Blend: AUG-CC-PVTZ-JKFIT

    Orbital Energies [Eh]
    ---------------------

    Doubly Occupied:

       1A    -91.982634     2A    -20.560207     3A    -11.369006
       4A    -11.257700     5A    -11.231386     6A    -11.230744
       7A     -8.984617     8A     -6.665786     9A     -6.664694
      10A     -6.663902    11A     -1.398852    12A     -1.104271
      13A     -1.019854    14A     -0.946108    15A     -0.870976
      16A     -0.732388    17A     -0.671113    18A     -0.645691
      19A     -0.600157    20A     -0.599564    21A     -0.559292
      22A     -0.554763    23A     -0.529351    24A     -0.519596
      25A     -0.490142    26A     -0.486432    27A     -0.411968
      28A     -0.394274

  @DF-RHF Final Energy:  -628.63051414648089

   => Energetics <=

    Nuclear Repulsion Energy =            295.2654029445823767
    One-Electron Energy =               -1449.5008983028535567
    Two-Electron Energy =                 525.6049812117903457
    Total Energy =                       -628.6305141464808912
  Basis Set: (AUG-CC-PVTZ AUX)
    Blend: AUG-CC-PVTZ-RI
    Molecular point group: c1

    Geometry (in Angstrom), charge = 0, multiplicity = 1:

       Center              X                  Y                   Z               Mass
    ------------   -----------------  -----------------  -----------------  -----------------
         S            1.811287910130     0.002443598429    -0.529816407786    31.972071174400
         O            0.206449910130    -0.003824401571     1.592081592214    15.994914619570
         C           -0.955699989870    -0.005580601571    -0.491472407786    12.000000000000
         C           -1.782059089870     1.267913598429    -0.215061407786    12.000000000000
         C           -1.782357089870    -1.264620401571    -0.222179407786    12.000000000000
         C            0.260091910130    -0.000241401571     0.373296592214    12.000000000000
         H           -0.661068089870     0.005287598429    -1.560073407786     1.007825032230
         H           -2.689813089870     1.284866598429    -0.824943407786     1.007825032230
         H           -1.203244089870     2.169624598429    -0.435222407786     1.007825032230
         H           -2.065469089870     1.287232598429     0.840171592214     1.007825032230
         H           -2.690119089870    -1.277926401571    -0.832140407786     1.007825032230
         H           -1.203756089870    -2.165214401571    -0.447416407786     1.007825032230
         H           -2.065760089870    -1.289812401571     0.832929592214     1.007825032230
         H            2.565106910130    -0.000772401571     0.580261592214     1.007825032230

  Basis Set: AUG-CC-PVTZ
    Blend: AUG-CC-PVTZ
  Basis Set: (AUG-CC-PVTZ AUX)
    Blend: AUG-CC-PVTZ-JKFIT
	 Reference Energy          =    -628.6305141464808912 [Eh]
	 Singles Energy            =      -0.0000000000000000 [Eh]
	 Same-Spin Energy          =      -0.2913324978408877 [Eh]
	 Opposite-Spin Energy      =      -0.9557636648354727 [Eh]
	 Correlation Energy        =      -1.2470961626763604 [Eh]
	 Total Energy              =    -629.8776103091572622 [Eh]

	 ================> DF-SCS-MP2 Energies <==================
	-----------------------------------------------------------
	 SCS Same-Spin Scale       =       0.3333333333333333 [-]
	 SCS Opposite-Spin Scale   =       1.2000000000000000 [-]
	 SCS Same-Spin Energy      =      -0.0971108326136292 [Eh]
	 SCS Opposite-Spin Energy  =      -1.1469163978025672 [Eh]
	 SCS Correlation Energy    =      -1.2440272304161963 [Eh]
	 SCS Total Energy          =    -629.8745413768971275 [Eh]
	-----------------------------------------------------------

  Dipole Moment: [D]
     X:    -0.6585      Y:     0.0013      Z:    -1.6078     Total:     1.7374

*** Psi4 exiting successfully. Buy a developer a beer!
