                               Psi4 1.4a3.dev225

  ==> Input File <==

--------------------------------------------------------------------------
#psi4
#
memory 32 gb

molecule  {
0 1
  S        1.9015010     0.0014740    -0.5114990
  O        0.2966630    -0.0047940     1.6103990
  C       -0.9211562     0.0161282    -0.5261013
  C       -1.6918460     1.2669440    -0.1967440
  C       -1.6921440    -1.2655900    -0.2038620
  C        0.3503050    -0.0012110     0.3916140
  H       -0.5708550     0.0043180    -1.5417560
  H       -2.5996000     1.2838970    -0.8066260
  H       -1.1130310     2.1686550    -0.4169050
  H       -1.9752560     1.2862630     0.8584890
  H       -2.5999060    -1.2788960    -0.8138230
  H       -1.1135430    -2.1661840    -0.4290990
  H       -1.9755470    -1.2907820     0.8512470
  H        2.6553200    -0.0017420     0.5985790
units angstrom
no_reorient  #important for SAPT in psi4, default
symmetry c1  #important for SAPT in psi4, default
}

set PROPERTIES_ORIGIN ["COM"]
properties('MP2/aug-cc-pvtz', properties = ['dipole'])
--------------------------------------------------------------------------

    Molecular point group: c1
  Charge       = 0
  Multiplicity = 1
  Basis Set: AUG-CC-PVTZ
    Blend: AUG-CC-PVTZ
  Basis Set: (AUG-CC-PVTZ AUX)
    Blend: AUG-CC-PVTZ-JKFIT

    Orbital Energies [Eh]
    ---------------------

    Doubly Occupied:

       1A    -91.981922     2A    -20.560692     3A    -11.369965
       4A    -11.258689     5A    -11.229902     6A    -11.228767
       7A     -8.983937     8A     -6.665111     9A     -6.664019
      10A     -6.663230    11A     -1.396954    12A     -1.102556
      13A     -1.019374    14A     -0.948720    15A     -0.858332
      16A     -0.736756    17A     -0.668102    18A     -0.645381
      19A     -0.603442    20A     -0.595068    21A     -0.558250
      22A     -0.557555    23A     -0.529473    24A     -0.512798
      25A     -0.501308    26A     -0.493727    27A     -0.402439
      28A     -0.393772

  @DF-RHF Final Energy:  -628.62894144341931

   => Energetics <=

    Nuclear Repulsion Energy =            294.4162583585223842
    One-Electron Energy =               -1447.8299175486001786
    Two-Electron Energy =                 524.7847177466585435
    Total Energy =                       -628.6289414434193077
  Basis Set: (AUG-CC-PVTZ AUX)
    Blend: AUG-CC-PVTZ-RI
    Molecular point group: c1

    Geometry (in Angstrom), charge = 0, multiplicity = 1:

       Center              X                  Y                   Z               Mass
    ------------   -----------------  -----------------  -----------------  -----------------
         S            1.817709464087    -0.000172395831    -0.523708956779    31.972071174400
         O            0.212871464087    -0.006440395831     1.598189043221    15.994914619570
         C           -1.004947735913     0.014481804169    -0.538311256779    12.000000000000
         C           -1.775637535913     1.265297604169    -0.208953956779    12.000000000000
         C           -1.775935535913    -1.267236395831    -0.216071956779    12.000000000000
         C            0.266513464087    -0.002857395831     0.379404043221    12.000000000000
         H           -0.654646535913     0.002671604169    -1.553965956779     1.007825032230
         H           -2.683391535913     1.282250604169    -0.818835956779     1.007825032230
         H           -1.196822535913     2.167008604169    -0.429114956779     1.007825032230
         H           -2.059047535913     1.284616604169     0.846279043221     1.007825032230
         H           -2.683697535913    -1.280542395831    -0.826032956779     1.007825032230
         H           -1.197334535913    -2.167830395831    -0.441308956779     1.007825032230
         H           -2.059338535913    -1.292428395831     0.839037043221     1.007825032230
         H            2.571528464087    -0.003388395831     0.586369043221     1.007825032230

  Basis Set: AUG-CC-PVTZ
    Blend: AUG-CC-PVTZ
  Basis Set: (AUG-CC-PVTZ AUX)
    Blend: AUG-CC-PVTZ-JKFIT
	 Reference Energy          =    -628.6289414434193077 [Eh]
	 Singles Energy            =      -0.0000000000000000 [Eh]
	 Same-Spin Energy          =      -0.2912176504051806 [Eh]
	 Opposite-Spin Energy      =      -0.9554935068398225 [Eh]
	 Correlation Energy        =      -1.2467111572450031 [Eh]
	 Total Energy              =    -629.8756526006643526 [Eh]

	 ================> DF-SCS-MP2 Energies <==================
	-----------------------------------------------------------
	 SCS Same-Spin Scale       =       0.3333333333333333 [-]
	 SCS Opposite-Spin Scale   =       1.2000000000000000 [-]
	 SCS Same-Spin Energy      =      -0.0970725501350602 [Eh]
	 SCS Opposite-Spin Energy  =      -1.1465922082077868 [Eh]
	 SCS Correlation Energy    =      -1.2436647583428471 [Eh]
	 SCS Total Energy          =    -629.8726062017622098 [Eh]
	-----------------------------------------------------------

  Dipole Moment: [D]
     X:    -0.6089      Y:     0.0136      Z:    -1.5784     Total:     1.6919

*** Psi4 exiting successfully. Buy a developer a beer!
