                               Psi4 1.4a3.dev225

  ==> Input File <==

--------------------------------------------------------------------------
#psi4
#
memory 32 gb

molecule  {
0 1
  S        1.9015010     0.0014740    -0.5114990
  O        0.2966630    -0.0047940     1.6103990
  C       -0.8837990     0.0013960    -0.4908930
  C       -1.6918460     1.2669440    -0.1967440
  C       -1.6921440    -1.2655900    -0.2038620
  C        0.3503050    -0.0012110     0.3916140
  H       -0.5708550     0.0043180    -1.5417560
  H       -2.5996000     1.2838970    -0.8066260
  H       -1.1130310     2.1686550    -0.4169050
  H       -1.9752560     1.2862630     0.8584890
  H       -2.5999060    -1.2788960    -0.8138230
  H       -1.1135430    -2.1661840    -0.4290990
  H       -1.9755470    -1.2907820     0.8512470
  H        2.5429637    -0.0012627     0.4331225
units angstrom
no_reorient  #important for SAPT in psi4, default
symmetry c1  #important for SAPT in psi4, default
}

set PROPERTIES_ORIGIN ["COM"]
properties('MP2/aug-cc-pvtz', properties = ['dipole'])
--------------------------------------------------------------------------

    Molecular point group: c1
  Charge       = 0
  Multiplicity = 1
  Basis Set: AUG-CC-PVTZ
    Blend: AUG-CC-PVTZ
  Basis Set: (AUG-CC-PVTZ AUX)
    Blend: AUG-CC-PVTZ-JKFIT

    Orbital Energies [Eh]
    ---------------------

    Doubly Occupied:

       1A    -91.966274     2A    -20.561684     3A    -11.370058
       4A    -11.257471     5A    -11.230336     6A    -11.230320
       7A     -8.975510     8A     -6.657557     9A     -6.655177
      10A     -6.654149    11A     -1.399354    12A     -1.104773
      13A     -1.045932    14A     -0.946905    15A     -0.875300
      16A     -0.738390    17A     -0.679672    18A     -0.651026
      19A     -0.606627    20A     -0.598618    21A     -0.562724
      22A     -0.555767    23A     -0.529690    24A     -0.524984
      25A     -0.494521    26A     -0.490871    27A     -0.410096
      28A     -0.396231

  @DF-RHF Final Energy:  -628.60484506128410

   => Energetics <=

    Nuclear Repulsion Energy =            296.2825626082496910
    One-Electron Energy =               -1451.4347847626406747
    Two-Electron Energy =                 526.5473770931068884
    Total Energy =                       -628.6048450612840952
  Basis Set: (AUG-CC-PVTZ AUX)
    Blend: AUG-CC-PVTZ-RI
    Molecular point group: c1

    Geometry (in Angstrom), charge = 0, multiplicity = 1:

       Center              X                  Y                   Z               Mass
    ------------   -----------------  -----------------  -----------------  -----------------
         S            1.814488736975     0.001522346560    -0.526167376612    31.972071174400
         O            0.209650736975    -0.004745653440     1.595730623388    15.994914619570
         C           -0.970811263025     0.001444346560    -0.505561376612    12.000000000000
         C           -1.778858263025     1.266992346560    -0.211412376612    12.000000000000
         C           -1.779156263025    -1.265541653440    -0.218530376612    12.000000000000
         C            0.263292736975    -0.001162653440     0.376945623388    12.000000000000
         H           -0.657867263025     0.004366346560    -1.556424376612     1.007825032230
         H           -2.686612263025     1.283945346560    -0.821294376612     1.007825032230
         H           -1.200043263025     2.168703346560    -0.431573376612     1.007825032230
         H           -2.062268263025     1.286311346560     0.843820623388     1.007825032230
         H           -2.686918263025    -1.278847653440    -0.828491376612     1.007825032230
         H           -1.200555263025    -2.166135653440    -0.443767376612     1.007825032230
         H           -2.062559263025    -1.290733653440     0.836578623388     1.007825032230
         H            2.455951436975    -0.001214353440     0.418454123388     1.007825032230

  Basis Set: AUG-CC-PVTZ
    Blend: AUG-CC-PVTZ
  Basis Set: (AUG-CC-PVTZ AUX)
    Blend: AUG-CC-PVTZ-JKFIT
	 Reference Energy          =    -628.6048450612840952 [Eh]
	 Singles Energy            =      -0.0000000000000000 [Eh]
	 Same-Spin Energy          =      -0.2912189451982438 [Eh]
	 Opposite-Spin Energy      =      -0.9551280954977911 [Eh]
	 Correlation Energy        =      -1.2463470406960349 [Eh]
	 Total Energy              =    -629.8511921019801321 [Eh]

	 ================> DF-SCS-MP2 Energies <==================
	-----------------------------------------------------------
	 SCS Same-Spin Scale       =       0.3333333333333333 [-]
	 SCS Opposite-Spin Scale   =       1.2000000000000000 [-]
	 SCS Same-Spin Energy      =      -0.0970729817327479 [Eh]
	 SCS Opposite-Spin Energy  =      -1.1461537145973493 [Eh]
	 SCS Correlation Energy    =      -1.2432266963300973 [Eh]
	 SCS Total Energy          =    -629.8480717576142069 [Eh]
	-----------------------------------------------------------

  Dipole Moment: [D]
     X:    -0.6794      Y:     0.0049      Z:    -1.6377     Total:     1.7730

*** Psi4 exiting successfully. Buy a developer a beer!
