                               Psi4 1.4a3.dev225

  ==> Input File <==

--------------------------------------------------------------------------
#psi4
#
memory 32 gb

molecule  {
0 1
  S        1.9015010     0.0014740    -0.5114990
  O        0.2966630    -0.0047940     1.6103990
  C       -0.8837990     0.0013960    -0.4908930
  C       -1.6918460     1.2669440    -0.1967440
  C       -1.7185596    -1.3069933    -0.1944822
  C        0.3503050    -0.0012110     0.3916140
  H       -0.5708550     0.0043180    -1.5417560
  H       -2.5996000     1.2838970    -0.8066260
  H       -1.1130310     2.1686550    -0.4169050
  H       -1.9752560     1.2862630     0.8584890
  H       -2.5999060    -1.2788960    -0.8138230
  H       -1.1135430    -2.1661840    -0.4290990
  H       -1.9755470    -1.2907820     0.8512470
  H        2.6553200    -0.0017420     0.5985790
units angstrom
no_reorient  #important for SAPT in psi4, default
symmetry c1  #important for SAPT in psi4, default
}

set PROPERTIES_ORIGIN ["COM"]
properties('MP2/aug-cc-pvtz', properties = ['dipole'])
--------------------------------------------------------------------------

    Molecular point group: c1
  Charge       = 0
  Multiplicity = 1
  Basis Set: AUG-CC-PVTZ
    Blend: AUG-CC-PVTZ
  Basis Set: (AUG-CC-PVTZ AUX)
    Blend: AUG-CC-PVTZ-JKFIT

    Orbital Energies [Eh]
    ---------------------

    Doubly Occupied:

       1A    -91.982135     2A    -20.559867     3A    -11.369112
       4A    -11.259389     5A    -11.230274     6A    -11.229493
       7A     -8.984134     8A     -6.665305     9A     -6.664213
      10A     -6.663423    11A     -1.397651    12A     -1.097540
      13A     -1.018777    14A     -0.947670    15A     -0.867702
      16A     -0.732263    17A     -0.668756    18A     -0.643438
      19A     -0.602033    20A     -0.596164    21A     -0.562227
      22A     -0.558010    23A     -0.533309    24A     -0.518327
      25A     -0.496286    26A     -0.480325    27A     -0.408657
      28A     -0.393902

  @DF-RHF Final Energy:  -628.62984513453534

   => Energetics <=

    Nuclear Repulsion Energy =            294.1794748015705068
    One-Electron Energy =               -1447.3578777738011922
    Two-Electron Energy =                 524.5485578376953981
    Total Energy =                       -628.6298451345353442
  Basis Set: (AUG-CC-PVTZ AUX)
    Blend: AUG-CC-PVTZ-RI
    Molecular point group: c1

    Geometry (in Angstrom), charge = 0, multiplicity = 1:

       Center              X                  Y                   Z               Mass
    ------------   -----------------  -----------------  -----------------  -----------------
         S            1.816447330833     0.006302935135    -0.528852274371    31.972071174400
         O            0.211609330833     0.000034935135     1.593045725629    15.994914619570
         C           -0.968852669167     0.006224935135    -0.508246274371    12.000000000000
         C           -1.776899669167     1.271772935135    -0.214097274371    12.000000000000
         C           -1.803613269167    -1.302164364865    -0.211835474371    12.000000000000
         C            0.265251330833     0.003617935135     0.374260725629    12.000000000000
         H           -0.655908669167     0.009146935135    -1.559109274371     1.007825032230
         H           -2.684653669167     1.288725935135    -0.823979274371     1.007825032230
         H           -1.198084669167     2.173483935135    -0.434258274371     1.007825032230
         H           -2.060309669167     1.291091935135     0.841135725629     1.007825032230
         H           -2.684959669167    -1.274067064865    -0.831176274371     1.007825032230
         H           -1.198596669167    -2.161355064865    -0.446452274371     1.007825032230
         H           -2.060600669167    -1.285953064865     0.833893725629     1.007825032230
         H            2.570266330833     0.003086935135     0.581225725629     1.007825032230

  Basis Set: AUG-CC-PVTZ
    Blend: AUG-CC-PVTZ
  Basis Set: (AUG-CC-PVTZ AUX)
    Blend: AUG-CC-PVTZ-JKFIT
	 Reference Energy          =    -628.6298451345353442 [Eh]
	 Singles Energy            =      -0.0000000000000000 [Eh]
	 Same-Spin Energy          =      -0.2909735421104639 [Eh]
	 Opposite-Spin Energy      =      -0.9553676841381830 [Eh]
	 Correlation Energy        =      -1.2463412262486468 [Eh]
	 Total Energy              =    -629.8761863607840041 [Eh]

	 ================> DF-SCS-MP2 Energies <==================
	-----------------------------------------------------------
	 SCS Same-Spin Scale       =       0.3333333333333333 [-]
	 SCS Opposite-Spin Scale   =       1.2000000000000000 [-]
	 SCS Same-Spin Energy      =      -0.0969911807034880 [Eh]
	 SCS Opposite-Spin Energy  =      -1.1464412209658195 [Eh]
	 SCS Correlation Energy    =      -1.2434324016693075 [Eh]
	 SCS Total Energy          =    -629.8732775362046823 [Eh]
	-----------------------------------------------------------

  Dipole Moment: [D]
     X:    -0.6580      Y:    -0.0009      Z:    -1.6074     Total:     1.7369

*** Psi4 exiting successfully. Buy a developer a beer!
