                               Psi4 1.4a3.dev225

  ==> Input File <==

--------------------------------------------------------------------------
#psi4
#
memory 32 gb

molecule  {
0 1
  S        1.9015010     0.0014740    -0.5114990
  O        0.2966630    -0.0047940     1.6103990
  C       -0.8837990     0.0013960    -0.4908930
  C       -1.6918460     1.2669440    -0.1967440
  C       -1.6921440    -1.2655900    -0.2038620
  C        0.3525035    -0.0010642     0.3416626
  H       -0.5708550     0.0043180    -1.5417560
  H       -2.5996000     1.2838970    -0.8066260
  H       -1.1130310     2.1686550    -0.4169050
  H       -1.9752560     1.2862630     0.8584890
  H       -2.5999060    -1.2788960    -0.8138230
  H       -1.1135430    -2.1661840    -0.4290990
  H       -1.9755470    -1.2907820     0.8512470
  H        2.6553200    -0.0017420     0.5985790
units angstrom
no_reorient  #important for SAPT in psi4, default
symmetry c1  #important for SAPT in psi4, default
}

set PROPERTIES_ORIGIN ["COM"]
properties('MP2/aug-cc-pvtz', properties = ['dipole'])
--------------------------------------------------------------------------

    Molecular point group: c1
  Charge       = 0
  Multiplicity = 1
  Basis Set: AUG-CC-PVTZ
    Blend: AUG-CC-PVTZ
  Basis Set: (AUG-CC-PVTZ AUX)
    Blend: AUG-CC-PVTZ-JKFIT

    Orbital Energies [Eh]
    ---------------------

    Doubly Occupied:

       1A    -91.988566     2A    -20.552945     3A    -11.372165
       4A    -11.257944     5A    -11.231049     6A    -11.231033
       7A     -8.990688     8A     -6.671886     9A     -6.670820
      10A     -6.670039    11A     -1.363156    12A     -1.107512
      13A     -1.028035    14A     -0.947323    15A     -0.873529
      16A     -0.731547    17A     -0.668597    18A     -0.637376
      19A     -0.599459    20A     -0.594994    21A     -0.554015
      22A     -0.552242    23A     -0.522137    24A     -0.515691
      25A     -0.493427    26A     -0.485874    27A     -0.415539
      28A     -0.395004

  @DF-RHF Final Energy:  -628.62245363810086

   => Energetics <=

    Nuclear Repulsion Energy =            294.9094706162109105
    One-Electron Energy =               -1448.8186649973913518
    Two-Electron Energy =                 525.2867407430795765
    Total Energy =                       -628.6224536381008647
  Basis Set: (AUG-CC-PVTZ AUX)
    Blend: AUG-CC-PVTZ-RI
    Molecular point group: c1

    Geometry (in Angstrom), charge = 0, multiplicity = 1:

       Center              X                  Y                   Z               Mass
    ------------   -----------------  -----------------  -----------------  -----------------
         S            1.813146642894     0.001510056312    -0.522008313657    31.972071174400
         O            0.208308642894    -0.004757943688     1.599889686343    15.994914619570
         C           -0.972153357106     0.001432056312    -0.501402313657    12.000000000000
         C           -1.780200357106     1.266980056312    -0.207253313657    12.000000000000
         C           -1.780498357106    -1.265553943688    -0.214371313657    12.000000000000
         C            0.264149142894    -0.001028143688     0.331153286343    12.000000000000
         H           -0.659209357106     0.004354056312    -1.552265313657     1.007825032230
         H           -2.687954357106     1.283933056312    -0.817135313657     1.007825032230
         H           -1.201385357106     2.168691056312    -0.427414313657     1.007825032230
         H           -2.063610357106     1.286299056312     0.847979686343     1.007825032230
         H           -2.688260357106    -1.278859943688    -0.824332313657     1.007825032230
         H           -1.201897357106    -2.166147943688    -0.439608313657     1.007825032230
         H           -2.063901357106    -1.290745943688     0.840737686343     1.007825032230
         H            2.566965642894    -0.001705943688     0.588069686343     1.007825032230

  Basis Set: AUG-CC-PVTZ
    Blend: AUG-CC-PVTZ
  Basis Set: (AUG-CC-PVTZ AUX)
    Blend: AUG-CC-PVTZ-JKFIT
	 Reference Energy          =    -628.6224536381008647 [Eh]
	 Singles Energy            =      -0.0000000000000000 [Eh]
	 Same-Spin Energy          =      -0.2926644130532569 [Eh]
	 Opposite-Spin Energy      =      -0.9584576282265233 [Eh]
	 Correlation Energy        =      -1.2511220412797801 [Eh]
	 Total Energy              =    -629.8735756793806786 [Eh]

	 ================> DF-SCS-MP2 Energies <==================
	-----------------------------------------------------------
	 SCS Same-Spin Scale       =       0.3333333333333333 [-]
	 SCS Opposite-Spin Scale   =       1.2000000000000000 [-]
	 SCS Same-Spin Energy      =      -0.0975548043510856 [Eh]
	 SCS Opposite-Spin Energy  =      -1.1501491538718278 [Eh]
	 SCS Correlation Energy    =      -1.2477039582229135 [Eh]
	 SCS Total Energy          =    -629.8701575963237929 [Eh]
	-----------------------------------------------------------

  Dipole Moment: [D]
     X:    -0.4666      Y:     0.0055      Z:    -1.8407     Total:     1.8990

*** Psi4 exiting successfully. Buy a developer a beer!
