                               Psi4 1.4a3.dev225

  ==> Input File <==

--------------------------------------------------------------------------
#psi4
#
memory 32 gb

molecule  {
0 1
  S        1.9015010     0.0014740    -0.5114990
  O        0.2966630    -0.0047940     1.6103990
  C       -0.8765559     0.0340970    -0.5923014
  C       -1.6918460     1.2669440    -0.1967440
  C       -1.6921440    -1.2655900    -0.2038620
  C        0.3503050    -0.0012110     0.3916140
  H       -0.5708550     0.0043180    -1.5417560
  H       -2.5996000     1.2838970    -0.8066260
  H       -1.1130310     2.1686550    -0.4169050
  H       -1.9752560     1.2862630     0.8584890
  H       -2.5999060    -1.2788960    -0.8138230
  H       -1.1135430    -2.1661840    -0.4290990
  H       -1.9755470    -1.2907820     0.8512470
  H        2.6553200    -0.0017420     0.5985790
units angstrom
no_reorient  #important for SAPT in psi4, default
symmetry c1  #important for SAPT in psi4, default
}

set PROPERTIES_ORIGIN ["COM"]
properties('MP2/aug-cc-pvtz', properties = ['dipole'])
--------------------------------------------------------------------------

    Molecular point group: c1
  Charge       = 0
  Multiplicity = 1
  Basis Set: AUG-CC-PVTZ
    Blend: AUG-CC-PVTZ
  Basis Set: (AUG-CC-PVTZ AUX)
    Blend: AUG-CC-PVTZ-JKFIT

    Orbital Energies [Eh]
    ---------------------

    Doubly Occupied:

       1A    -91.979812     2A    -20.561939     3A    -11.372118
       4A    -11.257371     5A    -11.232605     6A    -11.230498
       7A     -8.982055     8A     -6.663243     9A     -6.662097
      10A     -6.661334    11A     -1.397071    12A     -1.098439
      13A     -1.017349    14A     -0.942515    15A     -0.863215
      16A     -0.748447    17A     -0.668096    18A     -0.642726
      19A     -0.600630    20A     -0.592522    21A     -0.559035
      22A     -0.555965    23A     -0.529281    24A     -0.528550
      25A     -0.503695    26A     -0.477619    27A     -0.400946
      28A     -0.393061

  @DF-RHF Final Energy:  -628.61809695779232

   => Energetics <=

    Nuclear Repulsion Energy =            293.9878641411581839
    One-Electron Energy =               -1446.9674604728766099
    Two-Electron Energy =                 524.3614993739259944
    Total Energy =                       -628.6180969577923179
  Basis Set: (AUG-CC-PVTZ AUX)
    Blend: AUG-CC-PVTZ-RI
    Molecular point group: c1

    Geometry (in Angstrom), charge = 0, multiplicity = 1:

       Center              X                  Y                   Z               Mass
    ------------   -----------------  -----------------  -----------------  -----------------
         S            1.812564739204    -0.002245129255    -0.516072656087    31.972071174400
         O            0.207726739204    -0.008513129255     1.605825343913    15.994914619570
         C           -0.965492160796     0.030377870745    -0.596875056087    12.000000000000
         C           -1.780782260796     1.263224870745    -0.201317656087    12.000000000000
         C           -1.781080260796    -1.269309129255    -0.208435656087    12.000000000000
         C            0.261368739204    -0.004930129255     0.387040343913    12.000000000000
         H           -0.659791260796     0.000598870745    -1.546329656087     1.007825032230
         H           -2.688536260796     1.280177870745    -0.811199656087     1.007825032230
         H           -1.201967260796     2.164935870745    -0.421478656087     1.007825032230
         H           -2.064192260796     1.282543870745     0.853915343913     1.007825032230
         H           -2.688842260796    -1.282615129255    -0.818396656087     1.007825032230
         H           -1.202479260796    -2.169903129255    -0.433672656087     1.007825032230
         H           -2.064483260796    -1.294501129255     0.846673343913     1.007825032230
         H            2.566383739204    -0.005461129255     0.594005343913     1.007825032230

  Basis Set: AUG-CC-PVTZ
    Blend: AUG-CC-PVTZ
  Basis Set: (AUG-CC-PVTZ AUX)
    Blend: AUG-CC-PVTZ-JKFIT
	 Reference Energy          =    -628.6180969577923179 [Eh]
	 Singles Energy            =      -0.0000000000000000 [Eh]
	 Same-Spin Energy          =      -0.2912052086161536 [Eh]
	 Opposite-Spin Energy      =      -0.9557928279048054 [Eh]
	 Correlation Energy        =      -1.2469980365209590 [Eh]
	 Total Energy              =    -629.8650949943132673 [Eh]

	 ================> DF-SCS-MP2 Energies <==================
	-----------------------------------------------------------
	 SCS Same-Spin Scale       =       0.3333333333333333 [-]
	 SCS Opposite-Spin Scale   =       1.2000000000000000 [-]
	 SCS Same-Spin Energy      =      -0.0970684028720512 [Eh]
	 SCS Opposite-Spin Energy  =      -1.1469513934857665 [Eh]
	 SCS Correlation Energy    =      -1.2440197963578177 [Eh]
	 SCS Total Energy          =    -629.8621167541501791 [Eh]
	-----------------------------------------------------------

  Dipole Moment: [D]
     X:    -0.6560      Y:     0.0226      Z:    -1.5968     Total:     1.7264

*** Psi4 exiting successfully. Buy a developer a beer!
