                               Psi4 1.4a3.dev225

  ==> Input File <==

--------------------------------------------------------------------------
#psi4
#
memory 32 gb

molecule  {
0 1
  S        1.8855032     0.0015528    -0.5384334
  O        0.2966630    -0.0047940     1.6103990
  C       -0.8837990     0.0013960    -0.4908930
  C       -1.6918460     1.2669440    -0.1967440
  C       -1.6921440    -1.2655900    -0.2038620
  C        0.3503050    -0.0012110     0.3916140
  H       -0.5708550     0.0043180    -1.5417560
  H       -2.5996000     1.2838970    -0.8066260
  H       -1.1130310     2.1686550    -0.4169050
  H       -1.9752560     1.2862630     0.8584890
  H       -2.5999060    -1.2788960    -0.8138230
  H       -1.1135430    -2.1661840    -0.4290990
  H       -1.9755470    -1.2907820     0.8512470
  H        2.6553200    -0.0017420     0.5985790
units angstrom
no_reorient  #important for SAPT in psi4, default
symmetry c1  #important for SAPT in psi4, default
}

set PROPERTIES_ORIGIN ["COM"]
properties('MP2/aug-cc-pvtz', properties = ['dipole'])
--------------------------------------------------------------------------

    Molecular point group: c1
  Charge       = 0
  Multiplicity = 1
  Basis Set: AUG-CC-PVTZ
    Blend: AUG-CC-PVTZ
  Basis Set: (AUG-CC-PVTZ AUX)
    Blend: AUG-CC-PVTZ-JKFIT

    Orbital Energies [Eh]
    ---------------------

    Doubly Occupied:

       1A    -91.985227     2A    -20.560963     3A    -11.369506
       4A    -11.257227     5A    -11.230079     6A    -11.230063
       7A     -8.986463     8A     -6.667575     9A     -6.666482
      10A     -6.665739    11A     -1.398202    12A     -1.103549
      13A     -1.017700    14A     -0.946660    15A     -0.864832
      16A     -0.733340    17A     -0.668413    18A     -0.644807
      19A     -0.599230    20A     -0.598227    21A     -0.558486
      22A     -0.555474    23A     -0.529153    24A     -0.516272
      25A     -0.491636    26A     -0.490470    27A     -0.409221
      28A     -0.394743

  @DF-RHF Final Energy:  -628.63004375388209

   => Energetics <=

    Nuclear Repulsion Energy =            294.9774760962702658
    One-Electron Energy =               -1448.9355613896045725
    Two-Electron Energy =                 525.3280415394522151
    Total Energy =                       -628.6300437538820916
  Basis Set: (AUG-CC-PVTZ AUX)
    Blend: AUG-CC-PVTZ-RI
    Molecular point group: c1

    Geometry (in Angstrom), charge = 0, multiplicity = 1:

       Center              X                  Y                   Z               Mass
    ------------   -----------------  -----------------  -----------------  -----------------
         S            1.802319148964     0.001581571853    -0.546426777915    31.972071174400
         O            0.213478948964    -0.004765228147     1.602405622085    15.994914619570
         C           -0.966983051036     0.001424771853    -0.498886377915    12.000000000000
         C           -1.775030051036     1.266972771853    -0.204737377915    12.000000000000
         C           -1.775328051036    -1.265561228147    -0.211855377915    12.000000000000
         C            0.267120948964    -0.001182228147     0.383620622085    12.000000000000
         H           -0.654039051036     0.004346771853    -1.549749377915     1.007825032230
         H           -2.682784051036     1.283925771853    -0.814619377915     1.007825032230
         H           -1.196215051036     2.168683771853    -0.424898377915     1.007825032230
         H           -2.058440051036     1.286291771853     0.850495622085     1.007825032230
         H           -2.683090051036    -1.278867228147    -0.821816377915     1.007825032230
         H           -1.196727051036    -2.166155228147    -0.437092377915     1.007825032230
         H           -2.058731051036    -1.290753228147     0.843253622085     1.007825032230
         H            2.572135948964    -0.001713228147     0.590585622085     1.007825032230

  Basis Set: AUG-CC-PVTZ
    Blend: AUG-CC-PVTZ
  Basis Set: (AUG-CC-PVTZ AUX)
    Blend: AUG-CC-PVTZ-JKFIT
	 Reference Energy          =    -628.6300437538820916 [Eh]
	 Singles Energy            =      -0.0000000000000000 [Eh]
	 Same-Spin Energy          =      -0.2914540624181763 [Eh]
	 Opposite-Spin Energy      =      -0.9560429004558715 [Eh]
	 Correlation Energy        =      -1.2474969628740478 [Eh]
	 Total Energy              =    -629.8775407167561298 [Eh]

	 ================> DF-SCS-MP2 Energies <==================
	-----------------------------------------------------------
	 SCS Same-Spin Scale       =       0.3333333333333333 [-]
	 SCS Opposite-Spin Scale   =       1.2000000000000000 [-]
	 SCS Same-Spin Energy      =      -0.0971513541393921 [Eh]
	 SCS Opposite-Spin Energy  =      -1.1472514805470457 [Eh]
	 SCS Correlation Energy    =      -1.2444028346864378 [Eh]
	 SCS Total Energy          =    -629.8744465885685031 [Eh]
	-----------------------------------------------------------

  Dipole Moment: [D]
     X:    -0.6142      Y:     0.0048      Z:    -1.6070     Total:     1.7203

*** Psi4 exiting successfully. Buy a developer a beer!
