                               Psi4 1.4a3.dev225

  ==> Input File <==

--------------------------------------------------------------------------
#psi4
#
memory 32 gb

molecule  {
0 1
  S        1.9015010     0.0014740    -0.5114990
  O        0.2966630    -0.0047940     1.6103990
  C       -0.8837990     0.0013960    -0.4908930
  C       -1.6918460     1.2669440    -0.1967440
  C       -1.6921440    -1.2655900    -0.2038620
  C        0.3503050    -0.0012110     0.3916140
  H       -0.5708550     0.0043180    -1.5417560
  H       -2.6048583     1.2672225    -0.7989642
  H       -1.1130310     2.1686550    -0.4169050
  H       -1.9752560     1.2862630     0.8584890
  H       -2.5999060    -1.2788960    -0.8138230
  H       -1.1135430    -2.1661840    -0.4290990
  H       -1.9755470    -1.2907820     0.8512470
  H        2.6553200    -0.0017420     0.5985790
units angstrom
no_reorient  #important for SAPT in psi4, default
symmetry c1  #important for SAPT in psi4, default
}

set PROPERTIES_ORIGIN ["COM"]
properties('MP2/aug-cc-pvtz', properties = ['dipole'])
--------------------------------------------------------------------------

    Molecular point group: c1
  Charge       = 0
  Multiplicity = 1
  Basis Set: AUG-CC-PVTZ
    Blend: AUG-CC-PVTZ
  Basis Set: (AUG-CC-PVTZ AUX)
    Blend: AUG-CC-PVTZ-JKFIT

    Orbital Energies [Eh]
    ---------------------

    Doubly Occupied:

       1A    -91.982426     2A    -20.560392     3A    -11.369465
       4A    -11.257777     5A    -11.230403     6A    -11.230386
       7A     -8.984421     8A     -6.665592     9A     -6.664500
      10A     -6.663710    11A     -1.398189    12A     -1.103513
      13A     -1.019762    14A     -0.946853    15A     -0.866453
      16A     -0.733969    17A     -0.669929    18A     -0.645618
      19A     -0.601208    20A     -0.598301    21A     -0.558837
      22A     -0.555329    23A     -0.529709    24A     -0.516860
      25A     -0.492855    26A     -0.490603    27A     -0.409101
      28A     -0.394140

  @DF-RHF Final Energy:  -628.63132129192218

   => Energetics <=

    Nuclear Repulsion Energy =            294.9957686696487826
    One-Electron Energy =               -1448.9735834306920879
    Two-Electron Energy =                 525.3464934691210146
    Total Energy =                       -628.6313212919221769
  Basis Set: (AUG-CC-PVTZ AUX)
    Blend: AUG-CC-PVTZ-RI
    Molecular point group: c1

    Geometry (in Angstrom), charge = 0, multiplicity = 1:

       Center              X                  Y                   Z               Mass
    ------------   -----------------  -----------------  -----------------  -----------------
         S            1.813451185549     0.001688530332    -0.527844524075    31.972071174400
         O            0.208613185549    -0.004579469668     1.594053475925    15.994914619570
         C           -0.971848814451     0.001610530332    -0.507238524075    12.000000000000
         C           -1.779895814451     1.267158530332    -0.213089524075    12.000000000000
         C           -1.780193814451    -1.265375469668    -0.220207524075    12.000000000000
         C            0.262255185549    -0.000996469668     0.375268475925    12.000000000000
         H           -0.658904814451     0.004532530332    -1.558101524075     1.007825032230
         H           -2.692908114451     1.267437030332    -0.815309724075     1.007825032230
         H           -1.201080814451     2.168869530332    -0.433250524075     1.007825032230
         H           -2.063305814451     1.286477530332     0.842143475925     1.007825032230
         H           -2.687955814451    -1.278681469668    -0.830168524075     1.007825032230
         H           -1.201592814451    -2.165969469668    -0.445444524075     1.007825032230
         H           -2.063596814451    -1.290567469668     0.834901475925     1.007825032230
         H            2.567270185549    -0.001527469668     0.582233475925     1.007825032230

  Basis Set: AUG-CC-PVTZ
    Blend: AUG-CC-PVTZ
  Basis Set: (AUG-CC-PVTZ AUX)
    Blend: AUG-CC-PVTZ-JKFIT
	 Reference Energy          =    -628.6313212919221769 [Eh]
	 Singles Energy            =      -0.0000000000000000 [Eh]
	 Same-Spin Energy          =      -0.2912466018601731 [Eh]
	 Opposite-Spin Energy      =      -0.9555817632863287 [Eh]
	 Correlation Energy        =      -1.2468283651465017 [Eh]
	 Total Energy              =    -629.8781496570686613 [Eh]

	 ================> DF-SCS-MP2 Energies <==================
	-----------------------------------------------------------
	 SCS Same-Spin Scale       =       0.3333333333333333 [-]
	 SCS Opposite-Spin Scale   =       1.2000000000000000 [-]
	 SCS Same-Spin Energy      =      -0.0970822006200577 [Eh]
	 SCS Opposite-Spin Energy  =      -1.1466981159435945 [Eh]
	 SCS Correlation Energy    =      -1.2437803165636523 [Eh]
	 SCS Total Energy          =    -629.8751016084858065 [Eh]
	-----------------------------------------------------------

  Dipole Moment: [D]
     X:    -0.6399      Y:     0.0000      Z:    -1.5936     Total:     1.7173

*** Psi4 exiting successfully. Buy a developer a beer!
