                               Psi4 1.4a3.dev225

  ==> Input File <==

--------------------------------------------------------------------------
#psi4
#
memory 32 gb

molecule  {
0 1
  S        1.9015010     0.0014740    -0.5114990
  O        0.2966630    -0.0047940     1.6103990
  C       -0.8837990     0.0013960    -0.4908930
  C       -1.6918460     1.2669440    -0.1967440
  C       -1.6921440    -1.2655900    -0.2038620
  C        0.3494256    -0.0012697     0.4115946
  H       -0.5708550     0.0043180    -1.5417560
  H       -2.5996000     1.2838970    -0.8066260
  H       -1.1130310     2.1686550    -0.4169050
  H       -1.9752560     1.2862630     0.8584890
  H       -2.5999060    -1.2788960    -0.8138230
  H       -1.1135430    -2.1661840    -0.4290990
  H       -1.9755470    -1.2907820     0.8512470
  H        2.6553200    -0.0017420     0.5985790
units angstrom
no_reorient  #important for SAPT in psi4, default
symmetry c1  #important for SAPT in psi4, default
}

set PROPERTIES_ORIGIN ["COM"]
properties('MP2/aug-cc-pvtz', properties = ['dipole'])
--------------------------------------------------------------------------

    Molecular point group: c1
  Charge       = 0
  Multiplicity = 1
  Basis Set: AUG-CC-PVTZ
    Blend: AUG-CC-PVTZ
  Basis Set: (AUG-CC-PVTZ AUX)
    Blend: AUG-CC-PVTZ-JKFIT

    Orbital Energies [Eh]
    ---------------------

    Doubly Occupied:

       1A    -91.979859     2A    -20.563494     3A    -11.368423
       4A    -11.257846     5A    -11.230118     6A    -11.230103
       7A     -8.981819     8A     -6.662979     9A     -6.661877
      10A     -6.661083    11A     -1.413313    12A     -1.101833
      13A     -1.016344    14A     -0.946767    15A     -0.863668
      16A     -0.735371    17A     -0.672133    18A     -0.648151
      19A     -0.601872    20A     -0.600731    21A     -0.560996
      22A     -0.556653    23A     -0.532635    24A     -0.517451
      25A     -0.492370    26A     -0.492096    27A     -0.405787
      28A     -0.393347

  @DF-RHF Final Energy:  -628.63290788403242

   => Energetics <=

    Nuclear Repulsion Energy =            295.0242477025778953
    One-Electron Energy =               -1449.0160688291766746
    Two-Electron Energy =                 525.3589132425663593
    Total Energy =                       -628.6329078840324200
  Basis Set: (AUG-CC-PVTZ AUX)
    Blend: AUG-CC-PVTZ-RI
    Molecular point group: c1

    Geometry (in Angstrom), charge = 0, multiplicity = 1:

       Center              X                  Y                   Z               Mass
    ------------   -----------------  -----------------  -----------------  -----------------
         S            1.813501684199     0.001533761107    -0.530075095732    31.972071174400
         O            0.208663684199    -0.004734238893     1.591822904268    15.994914619570
         C           -0.971798315801     0.001455761107    -0.509469095732    12.000000000000
         C           -1.779845315801     1.267003761107    -0.215320095732    12.000000000000
         C           -1.780143315801    -1.265530238893    -0.222438095732    12.000000000000
         C            0.261426284199    -0.001209938893     0.393018504268    12.000000000000
         H           -0.658854315801     0.004377761107    -1.560332095732     1.007825032230
         H           -2.687599315801     1.283956761107    -0.825202095732     1.007825032230
         H           -1.201030315801     2.168714761107    -0.435481095732     1.007825032230
         H           -2.063255315801     1.286322761107     0.839912904268     1.007825032230
         H           -2.687905315801    -1.278836238893    -0.832399095732     1.007825032230
         H           -1.201542315801    -2.166124238893    -0.447675095732     1.007825032230
         H           -2.063546315801    -1.290722238893     0.832670904268     1.007825032230
         H            2.567320684199    -0.001682238893     0.580002904268     1.007825032230

  Basis Set: AUG-CC-PVTZ
    Blend: AUG-CC-PVTZ
  Basis Set: (AUG-CC-PVTZ AUX)
    Blend: AUG-CC-PVTZ-JKFIT
	 Reference Energy          =    -628.6329078840324200 [Eh]
	 Singles Energy            =      -0.0000000000000000 [Eh]
	 Same-Spin Energy          =      -0.2907058635051490 [Eh]
	 Opposite-Spin Energy      =      -0.9544698224571774 [Eh]
	 Correlation Energy        =      -1.2451756859623264 [Eh]
	 Total Energy              =    -629.8780835699947147 [Eh]

	 ================> DF-SCS-MP2 Energies <==================
	-----------------------------------------------------------
	 SCS Same-Spin Scale       =       0.3333333333333333 [-]
	 SCS Opposite-Spin Scale   =       1.2000000000000000 [-]
	 SCS Same-Spin Energy      =      -0.0969019545017163 [Eh]
	 SCS Opposite-Spin Energy  =      -1.1453637869486128 [Eh]
	 SCS Correlation Energy    =      -1.2422657414503291 [Eh]
	 SCS Total Energy          =    -629.8751736254827165 [Eh]
	-----------------------------------------------------------

  Dipole Moment: [D]
     X:    -0.7123      Y:     0.0045      Z:    -1.4895     Total:     1.6510

*** Psi4 exiting successfully. Buy a developer a beer!
