                               Psi4 1.4a3.dev225

  ==> Input File <==

--------------------------------------------------------------------------
#psi4
#
memory 32 gb

molecule  {
0 1
  S        1.9015010     0.0014740    -0.5114990
  O        0.2966630    -0.0047940     1.6103990
  C       -0.8862267    -0.0058214    -0.4652975
  C       -1.6918460     1.2669440    -0.1967440
  C       -1.6921440    -1.2655900    -0.2038620
  C        0.3503050    -0.0012110     0.3916140
  H       -0.5708550     0.0043180    -1.5417560
  H       -2.5996000     1.2838970    -0.8066260
  H       -1.1130310     2.1686550    -0.4169050
  H       -1.9752560     1.2862630     0.8584890
  H       -2.5999060    -1.2788960    -0.8138230
  H       -1.1135430    -2.1661840    -0.4290990
  H       -1.9755470    -1.2907820     0.8512470
  H        2.6553200    -0.0017420     0.5985790
units angstrom
no_reorient  #important for SAPT in psi4, default
symmetry c1  #important for SAPT in psi4, default
}

set PROPERTIES_ORIGIN ["COM"]
properties('MP2/aug-cc-pvtz', properties = ['dipole'])
--------------------------------------------------------------------------

    Molecular point group: c1
  Charge       = 0
  Multiplicity = 1
  Basis Set: AUG-CC-PVTZ
    Blend: AUG-CC-PVTZ
  Basis Set: (AUG-CC-PVTZ AUX)
    Blend: AUG-CC-PVTZ-JKFIT

    Orbital Energies [Eh]
    ---------------------

    Doubly Occupied:

       1A    -91.983156     2A    -20.560132     3A    -11.368973
       4A    -11.258402     5A    -11.230559     6A    -11.229963
       7A     -8.985079     8A     -6.666245     9A     -6.665167
      10A     -6.664368    11A     -1.398687    12A     -1.104855
      13A     -1.020379    14A     -0.948093    15A     -0.868075
      16A     -0.730765    17A     -0.670615    18A     -0.646198
      19A     -0.601156    20A     -0.600024    21A     -0.559505
      22A     -0.555016    23A     -0.529455    24A     -0.517678
      25A     -0.493502    26A     -0.485542    27A     -0.410906
      28A     -0.394429

  @DF-RHF Final Energy:  -628.63034887463982

   => Energetics <=

    Nuclear Repulsion Energy =            295.2168382182597384
    One-Electron Energy =               -1449.4005236350146788
    Two-Electron Energy =                 525.5533365421151757
    Total Energy =                       -628.6303488746398216
  Basis Set: (AUG-CC-PVTZ AUX)
    Blend: AUG-CC-PVTZ-RI
    Molecular point group: c1

    Geometry (in Angstrom), charge = 0, multiplicity = 1:

       Center              X                  Y                   Z               Mass
    ------------   -----------------  -----------------  -----------------  -----------------
         S            1.813680283391     0.002359530037    -0.530722784554    31.972071174400
         O            0.208842283391    -0.003908469963     1.591175215446    15.994914619570
         C           -0.974047416609    -0.004935869963    -0.484521284554    12.000000000000
         C           -1.779666716609     1.267829530037    -0.215967784554    12.000000000000
         C           -1.779964716609    -1.264704469963    -0.223085784554    12.000000000000
         C            0.262484283391    -0.000325469963     0.372390215446    12.000000000000
         H           -0.658675716609     0.005203530037    -1.560979784554     1.007825032230
         H           -2.687420716609     1.284782530037    -0.825849784554     1.007825032230
         H           -1.200851716609     2.169540530037    -0.436128784554     1.007825032230
         H           -2.063076716609     1.287148530037     0.839265215446     1.007825032230
         H           -2.687726716609    -1.278010469963    -0.833046784554     1.007825032230
         H           -1.201363716609    -2.165298469963    -0.448322784554     1.007825032230
         H           -2.063367716609    -1.289896469963     0.832023215446     1.007825032230
         H            2.567499283391    -0.000856469963     0.579355215446     1.007825032230

  Basis Set: AUG-CC-PVTZ
    Blend: AUG-CC-PVTZ
  Basis Set: (AUG-CC-PVTZ AUX)
    Blend: AUG-CC-PVTZ-JKFIT
	 Reference Energy          =    -628.6303488746398216 [Eh]
	 Singles Energy            =      -0.0000000000000000 [Eh]
	 Same-Spin Energy          =      -0.2913273488278786 [Eh]
	 Opposite-Spin Energy      =      -0.9557561436933220 [Eh]
	 Correlation Energy        =      -1.2470834925212007 [Eh]
	 Total Energy              =    -629.8774323671610773 [Eh]

	 ================> DF-SCS-MP2 Energies <==================
	-----------------------------------------------------------
	 SCS Same-Spin Scale       =       0.3333333333333333 [-]
	 SCS Opposite-Spin Scale   =       1.2000000000000000 [-]
	 SCS Same-Spin Energy      =      -0.0971091162759595 [Eh]
	 SCS Opposite-Spin Energy  =      -1.1469073724319863 [Eh]
	 SCS Correlation Energy    =      -1.2440164887079457 [Eh]
	 SCS Total Energy          =    -629.8743653633478061 [Eh]
	-----------------------------------------------------------

  Dipole Moment: [D]
     X:    -0.6333      Y:     0.0012      Z:    -1.5919     Total:     1.7132

*** Psi4 exiting successfully. Buy a developer a beer!
