                               Psi4 1.4a3.dev225

  ==> Input File <==

--------------------------------------------------------------------------
#psi4
#
memory 32 gb

molecule  {
0 1
  S        1.9015010     0.0014740    -0.5114990
  O        0.2966630    -0.0047940     1.6103990
  C       -0.9594527     0.0292988    -0.5609171
  C       -1.6918460     1.2669440    -0.1967440
  C       -1.6921440    -1.2655900    -0.2038620
  C        0.3503050    -0.0012110     0.3916140
  H       -0.5708550     0.0043180    -1.5417560
  H       -2.5996000     1.2838970    -0.8066260
  H       -1.1130310     2.1686550    -0.4169050
  H       -1.9752560     1.2862630     0.8584890
  H       -2.5999060    -1.2788960    -0.8138230
  H       -1.1135430    -2.1661840    -0.4290990
  H       -1.9755470    -1.2907820     0.8512470
  H        2.6553200    -0.0017420     0.5985790
units angstrom
no_reorient  #important for SAPT in psi4, default
symmetry c1  #important for SAPT in psi4, default
}

set PROPERTIES_ORIGIN ["COM"]
properties('MP2/aug-cc-pvtz', properties = ['dipole'])
--------------------------------------------------------------------------

    Molecular point group: c1
  Charge       = 0
  Multiplicity = 1
  Basis Set: AUG-CC-PVTZ
    Blend: AUG-CC-PVTZ
  Basis Set: (AUG-CC-PVTZ AUX)
    Blend: AUG-CC-PVTZ-JKFIT

    Orbital Energies [Eh]
    ---------------------

    Doubly Occupied:

       1A    -91.981112     2A    -20.560628     3A    -11.369522
       4A    -11.260197     5A    -11.229931     6A    -11.227822
       7A     -8.983154     8A     -6.664331     9A     -6.663234
      10A     -6.662447    11A     -1.395550    12A     -1.102610
      13A     -1.018700    14A     -0.950784    15A     -0.851576
      16A     -0.738806    17A     -0.665973    18A     -0.645622
      19A     -0.605993    20A     -0.592237    21A     -0.561176
      22A     -0.556848    23A     -0.530139    24A     -0.514048
      25A     -0.504694    26A     -0.494415    27A     -0.394316
      28A     -0.393044

  @DF-RHF Final Energy:  -628.62160971925198

   => Energetics <=

    Nuclear Repulsion Energy =            293.8587769267230669
    One-Electron Energy =               -1446.7229570540769146
    Two-Electron Energy =                 524.2425704081018694
    Total Energy =                       -628.6216097192519783
  Basis Set: (AUG-CC-PVTZ AUX)
    Blend: AUG-CC-PVTZ-RI
    Molecular point group: c1

    Geometry (in Angstrom), charge = 0, multiplicity = 1:

       Center              X                  Y                   Z               Mass
    ------------   -----------------  -----------------  -----------------  -----------------
         S            1.822127034295    -0.001691648248    -0.519692891582    31.972071174400
         O            0.217289034295    -0.007959648248     1.602205108418    15.994914619570
         C           -1.038826665705     0.026133151752    -0.569110991582    12.000000000000
         C           -1.771219965705     1.263778351752    -0.204937891582    12.000000000000
         C           -1.771517965705    -1.268755648248    -0.212055891582    12.000000000000
         C            0.270931034295    -0.004376648248     0.383420108418    12.000000000000
         H           -0.650228965705     0.001152351752    -1.549949891582     1.007825032230
         H           -2.678973965705     1.280731351752    -0.814819891582     1.007825032230
         H           -1.192404965705     2.165489351752    -0.425098891582     1.007825032230
         H           -2.054629965705     1.283097351752     0.850295108418     1.007825032230
         H           -2.679279965705    -1.282061648248    -0.822016891582     1.007825032230
         H           -1.192916965705    -2.169349648248    -0.437292891582     1.007825032230
         H           -2.054920965705    -1.293947648248     0.843053108418     1.007825032230
         H            2.575946034295    -0.004907648248     0.590385108418     1.007825032230

  Basis Set: AUG-CC-PVTZ
    Blend: AUG-CC-PVTZ
  Basis Set: (AUG-CC-PVTZ AUX)
    Blend: AUG-CC-PVTZ-JKFIT
	 Reference Energy          =    -628.6216097192519783 [Eh]
	 Singles Energy            =      -0.0000000000000000 [Eh]
	 Same-Spin Energy          =      -0.2914384512525128 [Eh]
	 Opposite-Spin Energy      =      -0.9558667970105430 [Eh]
	 Correlation Energy        =      -1.2473052482630558 [Eh]
	 Total Energy              =    -629.8689149675150247 [Eh]

	 ================> DF-SCS-MP2 Energies <==================
	-----------------------------------------------------------
	 SCS Same-Spin Scale       =       0.3333333333333333 [-]
	 SCS Opposite-Spin Scale   =       1.2000000000000000 [-]
	 SCS Same-Spin Energy      =      -0.0971461504175043 [Eh]
	 SCS Opposite-Spin Energy  =      -1.1470401564126516 [Eh]
	 SCS Correlation Energy    =      -1.2441863068301557 [Eh]
	 SCS Total Energy          =    -629.8657960260820801 [Eh]
	-----------------------------------------------------------

  Dipole Moment: [D]
     X:    -0.5954      Y:     0.0241      Z:    -1.5611     Total:     1.6710

*** Psi4 exiting successfully. Buy a developer a beer!
