                               Psi4 1.4a3.dev225

  ==> Input File <==

--------------------------------------------------------------------------
#psi4
#
memory 32 gb

molecule  {
0 1
  S        1.9015010     0.0014740    -0.5114990
  O        0.2966630    -0.0047940     1.6103990
  C       -0.8837990     0.0013960    -0.4908930
  C       -1.6918460     1.2669440    -0.1967440
  C       -1.6921440    -1.2655900    -0.2038620
  C        0.3459080    -0.0015047     0.4915169
  H       -0.5708550     0.0043180    -1.5417560
  H       -2.5996000     1.2838970    -0.8066260
  H       -1.1130310     2.1686550    -0.4169050
  H       -1.9752560     1.2862630     0.8584890
  H       -2.5999060    -1.2788960    -0.8138230
  H       -1.1135430    -2.1661840    -0.4290990
  H       -1.9755470    -1.2907820     0.8512470
  H        2.6553200    -0.0017420     0.5985790
units angstrom
no_reorient  #important for SAPT in psi4, default
symmetry c1  #important for SAPT in psi4, default
}

set PROPERTIES_ORIGIN ["COM"]
properties('MP2/aug-cc-pvtz', properties = ['dipole'])
--------------------------------------------------------------------------

    Molecular point group: c1
  Charge       = 0
  Multiplicity = 1
  Basis Set: AUG-CC-PVTZ
    Blend: AUG-CC-PVTZ
  Basis Set: (AUG-CC-PVTZ AUX)
    Blend: AUG-CC-PVTZ-JKFIT

    Orbital Energies [Eh]
    ---------------------

    Doubly Occupied:

       1A    -91.968275     2A    -20.576333     3A    -11.363686
       4A    -11.257749     5A    -11.229434     6A    -11.229418
       7A     -8.970226     8A     -6.651344     9A     -6.650196
      10A     -6.649391    11A     -1.479334    12A     -1.095730
      13A     -1.002048    14A     -0.946382    15A     -0.853018
      16A     -0.744133    17A     -0.688174    18A     -0.654536
      19A     -0.620997    20A     -0.609561    21A     -0.566527
      22A     -0.562247    23A     -0.543438    24A     -0.518401
      25A     -0.495061    26A     -0.490087    27A     -0.388400
      28A     -0.387734

  @DF-RHF Final Energy:  -628.62390769233673

   => Energetics <=

    Nuclear Repulsion Energy =            295.3110392614904072
    One-Electron Energy =               -1449.4861748962337060
    Two-Electron Energy =                 525.5512279424066264
    Total Energy =                       -628.6239076923367293
  Basis Set: (AUG-CC-PVTZ AUX)
    Blend: AUG-CC-PVTZ-RI
    Molecular point group: c1

    Geometry (in Angstrom), charge = 0, multiplicity = 1:

       Center              X                  Y                   Z               Mass
    ------------   -----------------  -----------------  -----------------  -----------------
         S            1.813907445690     0.001560868779    -0.539294276894    31.972071174400
         O            0.209069445690    -0.004707131221     1.582603723106    15.994914619570
         C           -0.971392554310     0.001482868779    -0.518688276894    12.000000000000
         C           -1.779439554310     1.267030868779    -0.224539276894    12.000000000000
         C           -1.779737554310    -1.265503131221    -0.231657276894    12.000000000000
         C            0.258314445690    -0.001417831221     0.463721623106    12.000000000000
         H           -0.658448554310     0.004404868779    -1.569551276894     1.007825032230
         H           -2.687193554310     1.283983868779    -0.834421276894     1.007825032230
         H           -1.200624554310     2.168741868779    -0.444700276894     1.007825032230
         H           -2.062849554310     1.286349868779     0.830693723106     1.007825032230
         H           -2.687499554310    -1.278809131221    -0.841618276894     1.007825032230
         H           -1.201136554310    -2.166097131221    -0.456894276894     1.007825032230
         H           -2.063140554310    -1.290695131221     0.823451723106     1.007825032230
         H            2.567726445690    -0.001655131221     0.570783723106     1.007825032230

  Basis Set: AUG-CC-PVTZ
    Blend: AUG-CC-PVTZ
  Basis Set: (AUG-CC-PVTZ AUX)
    Blend: AUG-CC-PVTZ-JKFIT
	 Reference Energy          =    -628.6239076923367293 [Eh]
	 Singles Energy            =      -0.0000000000000000 [Eh]
	 Same-Spin Energy          =      -0.2888641255593923 [Eh]
	 Opposite-Spin Energy      =      -0.9505228198969028 [Eh]
	 Correlation Energy        =      -1.2393869454562951 [Eh]
	 Total Energy              =    -629.8632946377930466 [Eh]

	 ================> DF-SCS-MP2 Energies <==================
	-----------------------------------------------------------
	 SCS Same-Spin Scale       =       0.3333333333333333 [-]
	 SCS Opposite-Spin Scale   =       1.2000000000000000 [-]
	 SCS Same-Spin Energy      =      -0.0962880418531308 [Eh]
	 SCS Opposite-Spin Energy  =      -1.1406273838762833 [Eh]
	 SCS Correlation Energy    =      -1.2369154257294139 [Eh]
	 SCS Total Energy          =    -629.8608231180661505 [Eh]
	-----------------------------------------------------------

  Dipole Moment: [D]
     X:    -1.0461      Y:     0.0030      Z:    -0.9976     Total:     1.4455

*** Psi4 exiting successfully. Buy a developer a beer!
