                               Psi4 1.4a3.dev225

  ==> Input File <==

--------------------------------------------------------------------------
#psi4
#
memory 32 gb

molecule  {
0 1
  S        1.9015010     0.0014740    -0.5114990
  O        0.2966630    -0.0047940     1.6103990
  C       -0.8837990     0.0013960    -0.4908930
  C       -1.6918460     1.2669440    -0.1967440
  C       -1.6921440    -1.2655900    -0.2038620
  C        0.3503050    -0.0012110     0.3916140
  H       -0.5708550     0.0043180    -1.5417560
  H       -2.5996000     1.2838970    -0.8066260
  H       -1.1130310     2.1686550    -0.4169050
  H       -1.9752560     1.2862630     0.8584890
  H       -2.5999060    -1.2788960    -0.8138230
  H       -1.1029642    -2.1826500    -0.4332171
  H       -1.9755470    -1.2907820     0.8512470
  H        2.6553200    -0.0017420     0.5985790
units angstrom
no_reorient  #important for SAPT in psi4, default
symmetry c1  #important for SAPT in psi4, default
}

set PROPERTIES_ORIGIN ["COM"]
properties('MP2/aug-cc-pvtz', properties = ['dipole'])
--------------------------------------------------------------------------

    Molecular point group: c1
  Charge       = 0
  Multiplicity = 1
  Basis Set: AUG-CC-PVTZ
    Blend: AUG-CC-PVTZ
  Basis Set: (AUG-CC-PVTZ AUX)
    Blend: AUG-CC-PVTZ-JKFIT

    Orbital Energies [Eh]
    ---------------------

    Doubly Occupied:

       1A    -91.982465     2A    -20.560474     3A    -11.369584
       4A    -11.258076     5A    -11.232772     6A    -11.230528
       7A     -8.984457     8A     -6.665628     9A     -6.664538
      10A     -6.663746    11A     -1.398267    12A     -1.103319
      13A     -1.019707    14A     -0.945722    15A     -0.866099
      16A     -0.733916    17A     -0.670112    18A     -0.644970
      19A     -0.599660    20A     -0.598264    21A     -0.558705
      22A     -0.555487    23A     -0.528607    24A     -0.517083
      25A     -0.492836    26A     -0.489889    27A     -0.409205
      28A     -0.394159

  @DF-RHF Final Energy:  -628.63085952565575

   => Energetics <=

    Nuclear Repulsion Energy =            294.8973033818022600
    One-Electron Energy =               -1448.7797732855292452
    Two-Electron Energy =                 525.2516103780712911
    Total Energy =                       -628.6308595256557510
  Basis Set: (AUG-CC-PVTZ AUX)
    Blend: AUG-CC-PVTZ-RI
    Molecular point group: c1

    Geometry (in Angstrom), charge = 0, multiplicity = 1:

       Center              X                  Y                   Z               Mass
    ------------   -----------------  -----------------  -----------------  -----------------
         S            1.813297757794     0.001686510412    -0.527730401943    31.972071174400
         O            0.208459757794    -0.004581489588     1.594167598057    15.994914619570
         C           -0.972002242206     0.001608510412    -0.507124401943    12.000000000000
         C           -1.780049242206     1.267156510412    -0.212975401943    12.000000000000
         C           -1.780347242206    -1.265377489588    -0.220093401943    12.000000000000
         C            0.262101757794    -0.000998489588     0.375382598057    12.000000000000
         H           -0.659058242206     0.004530510412    -1.557987401943     1.007825032230
         H           -2.687803242206     1.284109510412    -0.822857401943     1.007825032230
         H           -1.201234242206     2.168867510412    -0.433136401943     1.007825032230
         H           -2.063459242206     1.286475510412     0.842257598057     1.007825032230
         H           -2.688109242206    -1.278683489588    -0.830054401943     1.007825032230
         H           -1.191167442206    -2.182437489588    -0.449448501943     1.007825032230
         H           -2.063750242206    -1.290569489588     0.835015598057     1.007825032230
         H            2.567116757794    -0.001529489588     0.582347598057     1.007825032230

  Basis Set: AUG-CC-PVTZ
    Blend: AUG-CC-PVTZ
  Basis Set: (AUG-CC-PVTZ AUX)
    Blend: AUG-CC-PVTZ-JKFIT
	 Reference Energy          =    -628.6308595256557510 [Eh]
	 Singles Energy            =      -0.0000000000000000 [Eh]
	 Same-Spin Energy          =      -0.2912279783520163 [Eh]
	 Opposite-Spin Energy      =      -0.9556851727683038 [Eh]
	 Correlation Energy        =      -1.2469131511203200 [Eh]
	 Total Energy              =    -629.8777726767760896 [Eh]

	 ================> DF-SCS-MP2 Energies <==================
	-----------------------------------------------------------
	 SCS Same-Spin Scale       =       0.3333333333333333 [-]
	 SCS Opposite-Spin Scale   =       1.2000000000000000 [-]
	 SCS Same-Spin Energy      =      -0.0970759927840054 [Eh]
	 SCS Opposite-Spin Energy  =      -1.1468222073219645 [Eh]
	 SCS Correlation Energy    =      -1.2438982001059700 [Eh]
	 SCS Total Energy          =    -629.8747577257616967 [Eh]
	-----------------------------------------------------------

  Dipole Moment: [D]
     X:    -0.6406      Y:     0.0163      Z:    -1.5958     Total:     1.7197

*** Psi4 exiting successfully. Buy a developer a beer!
