                               Psi4 1.4a3.dev225

  ==> Input File <==

--------------------------------------------------------------------------
#psi4
#
memory 32 gb

molecule  {
0 1
  S        1.9015010     0.0014740    -0.5114990
  O        0.2966630    -0.0047940     1.6103990
  C       -0.8837990     0.0013960    -0.4908930
  C       -1.6918460     1.2669440    -0.1967440
  C       -1.7101890    -1.2579010    -0.2219829
  C        0.3503050    -0.0012110     0.3916140
  H       -0.5708550     0.0043180    -1.5417560
  H       -2.5996000     1.2838970    -0.8066260
  H       -1.1130310     2.1686550    -0.4169050
  H       -1.9752560     1.2862630     0.8584890
  H       -2.5999060    -1.2788960    -0.8138230
  H       -1.1135430    -2.1661840    -0.4290990
  H       -1.9755470    -1.2907820     0.8512470
  H        2.6553200    -0.0017420     0.5985790
units angstrom
no_reorient  #important for SAPT in psi4, default
symmetry c1  #important for SAPT in psi4, default
}

set PROPERTIES_ORIGIN ["COM"]
properties('MP2/aug-cc-pvtz', properties = ['dipole'])
--------------------------------------------------------------------------

    Molecular point group: c1
  Charge       = 0
  Multiplicity = 1
  Basis Set: AUG-CC-PVTZ
    Blend: AUG-CC-PVTZ
  Basis Set: (AUG-CC-PVTZ AUX)
    Blend: AUG-CC-PVTZ-JKFIT

    Orbital Energies [Eh]
    ---------------------

    Doubly Occupied:

       1A    -91.982727     2A    -20.560827     3A    -11.369968
       4A    -11.257749     5A    -11.230300     6A    -11.230101
       7A     -8.984706     8A     -6.665875     9A     -6.664787
      10A     -6.663994    11A     -1.398461    12A     -1.103349
      13A     -1.020040    14A     -0.946406    15A     -0.867083
      16A     -0.733841    17A     -0.670411    18A     -0.645320
      19A     -0.600313    20A     -0.599430    21A     -0.561378
      22A     -0.552681    23A     -0.531278    24A     -0.518156
      25A     -0.490921    26A     -0.488422    27A     -0.410002
      28A     -0.394298

  @DF-RHF Final Energy:  -628.63056712153502

   => Energetics <=

    Nuclear Repulsion Energy =            294.8639463358609873
    One-Electron Energy =               -1448.7033789215035995
    Two-Electron Energy =                 525.2088654641074754
    Total Energy =                       -628.6305671215350230
  Basis Set: (AUG-CC-PVTZ AUX)
    Blend: AUG-CC-PVTZ-RI
    Molecular point group: c1

    Geometry (in Angstrom), charge = 0, multiplicity = 1:

       Center              X                  Y                   Z               Mass
    ------------   -----------------  -----------------  -----------------  -----------------
         S            1.815481767056     0.000640049966    -0.525680019126    31.972071174400
         O            0.210643767056    -0.005627950034     1.596217980874    15.994914619570
         C           -0.969818232944     0.000562049966    -0.505074019126    12.000000000000
         C           -1.777865232944     1.266110049966    -0.210925019126    12.000000000000
         C           -1.796208232944    -1.258734950034    -0.236163919126    12.000000000000
         C            0.264285767056    -0.002044950034     0.377432980874    12.000000000000
         H           -0.656874232944     0.003484049966    -1.555937019126     1.007825032230
         H           -2.685619232944     1.283063049966    -0.820807019126     1.007825032230
         H           -1.199050232944     2.167821049966    -0.431086019126     1.007825032230
         H           -2.061275232944     1.285429049966     0.844307980874     1.007825032230
         H           -2.685925232944    -1.279729950034    -0.828004019126     1.007825032230
         H           -1.199562232944    -2.167017950034    -0.443280019126     1.007825032230
         H           -2.061566232944    -1.291615950034     0.837065980874     1.007825032230
         H            2.569300767056    -0.002575950034     0.584397980874     1.007825032230

  Basis Set: AUG-CC-PVTZ
    Blend: AUG-CC-PVTZ
  Basis Set: (AUG-CC-PVTZ AUX)
    Blend: AUG-CC-PVTZ-JKFIT
	 Reference Energy          =    -628.6305671215350230 [Eh]
	 Singles Energy            =      -0.0000000000000000 [Eh]
	 Same-Spin Energy          =      -0.2912204740435353 [Eh]
	 Opposite-Spin Energy      =      -0.9555995710964439 [Eh]
	 Correlation Energy        =      -1.2468200451399793 [Eh]
	 Total Energy              =    -629.8773871666750210 [Eh]

	 ================> DF-SCS-MP2 Energies <==================
	-----------------------------------------------------------
	 SCS Same-Spin Scale       =       0.3333333333333333 [-]
	 SCS Opposite-Spin Scale   =       1.2000000000000000 [-]
	 SCS Same-Spin Energy      =      -0.0970734913478451 [Eh]
	 SCS Opposite-Spin Energy  =      -1.1467194853157325 [Eh]
	 SCS Correlation Energy    =      -1.2437929766635776 [Eh]
	 SCS Total Energy          =    -629.8743600981986219 [Eh]
	-----------------------------------------------------------

  Dipole Moment: [D]
     X:    -0.6316      Y:     0.0066      Z:    -1.6010     Total:     1.7211

*** Psi4 exiting successfully. Buy a developer a beer!
