                               Psi4 1.4a3.dev225

  ==> Input File <==

--------------------------------------------------------------------------
#psi4
#
memory 32 gb

molecule  {
0 1
  S        1.9015010     0.0014740    -0.5114990
  O        0.2966630    -0.0047940     1.6103990
  C       -0.8837990     0.0013960    -0.4908930
  C       -1.6918460     1.2669440    -0.1967440
  C       -1.6921440    -1.2655900    -0.2038620
  C        0.3503050    -0.0012110     0.3916140
  H       -0.5708550     0.0043180    -1.5417560
  H       -2.5996000     1.2838970    -0.8066260
  H       -1.2188586     2.0037908    -0.3766519
  H       -1.9752560     1.2862630     0.8584890
  H       -2.5999060    -1.2788960    -0.8138230
  H       -1.1135430    -2.1661840    -0.4290990
  H       -1.9755470    -1.2907820     0.8512470
  H        2.6553200    -0.0017420     0.5985790
units angstrom
no_reorient  #important for SAPT in psi4, default
symmetry c1  #important for SAPT in psi4, default
}

set PROPERTIES_ORIGIN ["COM"]
properties('MP2/aug-cc-pvtz', properties = ['dipole'])
--------------------------------------------------------------------------

    Molecular point group: c1
  Charge       = 0
  Multiplicity = 1
  Basis Set: AUG-CC-PVTZ
    Blend: AUG-CC-PVTZ
  Basis Set: (AUG-CC-PVTZ AUX)
    Blend: AUG-CC-PVTZ-JKFIT

    Orbital Energies [Eh]
    ---------------------

    Doubly Occupied:

       1A    -91.982476     2A    -20.560330     3A    -11.369301
       4A    -11.256456     5A    -11.229092     6A    -11.205577
       7A     -8.984474     8A     -6.665644     9A     -6.664552
      10A     -6.663763    11A     -1.398141    12A     -1.106883
      13A     -1.021213    14A     -0.965024    15A     -0.871080
      16A     -0.735956    17A     -0.672569    18A     -0.654608
      19A     -0.615014    20A     -0.597619    21A     -0.561105
      22A     -0.556192    23A     -0.534449    24A     -0.516466
      25A     -0.497466    26A     -0.490782    27A     -0.408962
      28A     -0.394223

  @DF-RHF Final Energy:  -628.59728956566107

   => Energetics <=

    Nuclear Repulsion Energy =            295.9413993216923018
    One-Electron Energy =               -1450.7185457651730758
    Two-Electron Energy =                 526.1798568778198160
    Total Energy =                       -628.5972895656610717
  Basis Set: (AUG-CC-PVTZ AUX)
    Blend: AUG-CC-PVTZ-RI
    Molecular point group: c1

    Geometry (in Angstrom), charge = 0, multiplicity = 1:

       Center              X                  Y                   Z               Mass
    ------------   -----------------  -----------------  -----------------  -----------------
         S            1.814425487782     0.003124172776    -0.528160264329    31.972071174400
         O            0.209587487782    -0.003143827224     1.593737735671    15.994914619570
         C           -0.970874512218     0.003046172776    -0.507554264329    12.000000000000
         C           -1.778921512218     1.268594172776    -0.213405264329    12.000000000000
         C           -1.779219512218    -1.263939827224    -0.220523264329    12.000000000000
         C            0.263229487782     0.000439172776     0.374952735671    12.000000000000
         H           -0.657930512218     0.005968172776    -1.558417264329     1.007825032230
         H           -2.686675512218     1.285547172776    -0.823287264329     1.007825032230
         H           -1.305934112218     2.005440972776    -0.393313164329     1.007825032230
         H           -2.062331512218     1.287913172776     0.841827735671     1.007825032230
         H           -2.686981512218    -1.277245827224    -0.830484264329     1.007825032230
         H           -1.200618512218    -2.164533827224    -0.445760264329     1.007825032230
         H           -2.062622512218    -1.289131827224     0.834585735671     1.007825032230
         H            2.568244487782    -0.000091827224     0.581917735671     1.007825032230

  Basis Set: AUG-CC-PVTZ
    Blend: AUG-CC-PVTZ
  Basis Set: (AUG-CC-PVTZ AUX)
    Blend: AUG-CC-PVTZ-JKFIT
	 Reference Energy          =    -628.5972895656610717 [Eh]
	 Singles Energy            =      -0.0000000000000000 [Eh]
	 Same-Spin Energy          =      -0.2913694521379441 [Eh]
	 Opposite-Spin Energy      =      -0.9549826556756691 [Eh]
	 Correlation Energy        =      -1.2463521078136131 [Eh]
	 Total Energy              =    -629.8436416734747354 [Eh]

	 ================> DF-SCS-MP2 Energies <==================
	-----------------------------------------------------------
	 SCS Same-Spin Scale       =       0.3333333333333333 [-]
	 SCS Opposite-Spin Scale   =       1.2000000000000000 [-]
	 SCS Same-Spin Energy      =      -0.0971231507126480 [Eh]
	 SCS Opposite-Spin Energy  =      -1.1459791868108029 [Eh]
	 SCS Correlation Energy    =      -1.2431023375234509 [Eh]
	 SCS Total Energy          =    -629.8403919031844680 [Eh]
	-----------------------------------------------------------

  Dipole Moment: [D]
     X:    -0.6192      Y:     0.0872      Z:    -1.6086     Total:     1.7258

*** Psi4 exiting successfully. Buy a developer a beer!
