                               Psi4 1.4a3.dev225

  ==> Input File <==

--------------------------------------------------------------------------
#psi4
#
memory 32 gb

molecule  {
0 1
  S        1.9015010     0.0014740    -0.5114990
  O        0.2966630    -0.0047940     1.6103990
  C       -0.8837990     0.0013960    -0.4908930
  C       -1.6918460     1.2669440    -0.1967440
  C       -1.6921440    -1.2655900    -0.2038620
  C        0.3503050    -0.0012110     0.3916140
  H       -0.5708550     0.0043180    -1.5417560
  H       -2.5996000     1.2838970    -0.8066260
  H       -1.1130310     2.1686550    -0.4169050
  H       -1.9752560     1.2862630     0.8584890
  H       -2.5999060    -1.2788960    -0.8138230
  H       -1.1056618    -2.1270069    -0.5363978
  H       -1.9755470    -1.2907820     0.8512470
  H        2.6553200    -0.0017420     0.5985790
units angstrom
no_reorient  #important for SAPT in psi4, default
symmetry c1  #important for SAPT in psi4, default
}

set PROPERTIES_ORIGIN ["COM"]
properties('MP2/aug-cc-pvtz', properties = ['dipole'])
--------------------------------------------------------------------------

    Molecular point group: c1
  Charge       = 0
  Multiplicity = 1
  Basis Set: AUG-CC-PVTZ
    Blend: AUG-CC-PVTZ
  Basis Set: (AUG-CC-PVTZ AUX)
    Blend: AUG-CC-PVTZ-JKFIT

    Orbital Energies [Eh]
    ---------------------

    Doubly Occupied:

       1A    -91.982503     2A    -20.560446     3A    -11.369460
       4A    -11.257211     5A    -11.230660     6A    -11.229834
       7A     -8.984497     8A     -6.665669     9A     -6.664578
      10A     -6.663788    11A     -1.398213    12A     -1.103701
      13A     -1.019812    14A     -0.947037    15A     -0.866043
      16A     -0.733093    17A     -0.671205    18A     -0.644102
      19A     -0.602623    20A     -0.598431    21A     -0.560184
      22A     -0.557805    23A     -0.526270    24A     -0.516736
      25A     -0.494869    26A     -0.487280    27A     -0.409167
      28A     -0.394213

  @DF-RHF Final Energy:  -628.63004667714881

   => Energetics <=

    Nuclear Repulsion Energy =            295.0233993795528704
    One-Electron Energy =               -1449.0280340370520662
    Two-Electron Energy =                 525.3745879803502703
    Total Energy =                       -628.6300466771488118
  Basis Set: (AUG-CC-PVTZ AUX)
    Blend: AUG-CC-PVTZ-RI
    Molecular point group: c1

    Geometry (in Angstrom), charge = 0, multiplicity = 1:

       Center              X                  Y                   Z               Mass
    ------------   -----------------  -----------------  -----------------  -----------------
         S            1.813323891791     0.001147447332    -0.526730800808    31.972071174400
         O            0.208485891791    -0.005120552668     1.595167199192    15.994914619570
         C           -0.971976108209     0.001069447332    -0.506124800808    12.000000000000
         C           -1.780023108209     1.266617447332    -0.211975800808    12.000000000000
         C           -1.780321108209    -1.265916552668    -0.219093800808    12.000000000000
         C            0.262127891791    -0.001537552668     0.376382199192    12.000000000000
         H           -0.659032108209     0.003991447332    -1.556987800808     1.007825032230
         H           -2.687777108209     1.283570447332    -0.821857800808     1.007825032230
         H           -1.201208108209     2.168328447332    -0.432136800808     1.007825032230
         H           -2.063433108209     1.285936447332     0.843257199192     1.007825032230
         H           -2.688083108209    -1.279222552668    -0.829054800808     1.007825032230
         H           -1.193838908209    -2.127333452668    -0.551629600808     1.007825032230
         H           -2.063724108209    -1.291108552668     0.836015199192     1.007825032230
         H            2.567142891791    -0.002068552668     0.583347199192     1.007825032230

  Basis Set: AUG-CC-PVTZ
    Blend: AUG-CC-PVTZ
  Basis Set: (AUG-CC-PVTZ AUX)
    Blend: AUG-CC-PVTZ-JKFIT
	 Reference Energy          =    -628.6300466771488118 [Eh]
	 Singles Energy            =      -0.0000000000000000 [Eh]
	 Same-Spin Energy          =      -0.2913016492654585 [Eh]
	 Opposite-Spin Energy      =      -0.9557043805730525 [Eh]
	 Correlation Energy        =      -1.2470060298385111 [Eh]
	 Total Energy              =    -629.8770527069873424 [Eh]

	 ================> DF-SCS-MP2 Energies <==================
	-----------------------------------------------------------
	 SCS Same-Spin Scale       =       0.3333333333333333 [-]
	 SCS Opposite-Spin Scale   =       1.2000000000000000 [-]
	 SCS Same-Spin Energy      =      -0.0971005497551528 [Eh]
	 SCS Opposite-Spin Energy  =      -1.1468452566876630 [Eh]
	 SCS Correlation Energy    =      -1.2439458064428159 [Eh]
	 SCS Total Energy          =    -629.8739924835916781 [Eh]
	-----------------------------------------------------------

  Dipole Moment: [D]
     X:    -0.6426      Y:     0.0110      Z:    -1.6283     Total:     1.7506

*** Psi4 exiting successfully. Buy a developer a beer!
