                               Psi4 1.4a3.dev225

  ==> Input File <==

--------------------------------------------------------------------------
#psi4
#
memory 32 gb

molecule  {
0 1
  S        1.9015010     0.0014740    -0.5114990
  O        0.2966630    -0.0047940     1.6103990
  C       -0.8837990     0.0013960    -0.4908930
  C       -1.6918460     1.2669440    -0.1967440
  C       -1.6921440    -1.2655900    -0.2038620
  C        0.3547020    -0.0009173     0.2917111
  H       -0.5708550     0.0043180    -1.5417560
  H       -2.5996000     1.2838970    -0.8066260
  H       -1.1130310     2.1686550    -0.4169050
  H       -1.9752560     1.2862630     0.8584890
  H       -2.5999060    -1.2788960    -0.8138230
  H       -1.1135430    -2.1661840    -0.4290990
  H       -1.9755470    -1.2907820     0.8512470
  H        2.6553200    -0.0017420     0.5985790
units angstrom
no_reorient  #important for SAPT in psi4, default
symmetry c1  #important for SAPT in psi4, default
}

set PROPERTIES_ORIGIN ["COM"]
properties('MP2/aug-cc-pvtz', properties = ['dipole'])
--------------------------------------------------------------------------

    Molecular point group: c1
  Charge       = 0
  Multiplicity = 1
  Basis Set: AUG-CC-PVTZ
    Blend: AUG-CC-PVTZ
  Basis Set: (AUG-CC-PVTZ AUX)
    Blend: AUG-CC-PVTZ-JKFIT

    Orbital Energies [Eh]
    ---------------------

    Doubly Occupied:

       1A    -91.994217     2A    -20.545390     3A    -11.374463
       4A    -11.257988     5A    -11.231864     6A    -11.231848
       7A     -8.996522     8A     -6.677749     9A     -6.676700
      10A     -6.675937    11A     -1.331761    12A     -1.111461
      13A     -1.035949    14A     -0.947799    15A     -0.880661
      16A     -0.730143    17A     -0.669988    18A     -0.629562
      19A     -0.598488    20A     -0.593901    21A     -0.553058
      22A     -0.545749    23A     -0.517849    24A     -0.514524
      25A     -0.492472    26A     -0.479736    27A     -0.418670
      28A     -0.393947

  @DF-RHF Final Energy:  -628.60764645324559

   => Energetics <=

    Nuclear Repulsion Energy =            294.8871921883346658
    One-Electron Energy =               -1448.7728794152485534
    Two-Electron Energy =                 525.2780407736682946
    Total Energy =                       -628.6076464532455930
  Basis Set: (AUG-CC-PVTZ AUX)
    Blend: AUG-CC-PVTZ-RI
    Molecular point group: c1

    Geometry (in Angstrom), charge = 0, multiplicity = 1:

       Center              X                  Y                   Z               Mass
    ------------   -----------------  -----------------  -----------------  -----------------
         S            1.812893041962     0.001493111132    -0.516246318222    31.972071174400
         O            0.208055041962    -0.004774888868     1.605651681778    15.994914619570
         C           -0.972406958038     0.001415111132    -0.495640318222    12.000000000000
         C           -1.780453958038     1.266963111132    -0.201491318222    12.000000000000
         C           -1.780751958038    -1.265570888868    -0.208609318222    12.000000000000
         C            0.266094041962    -0.000898188868     0.286963781778    12.000000000000
         H           -0.659462958038     0.004337111132    -1.546503318222     1.007825032230
         H           -2.688207958038     1.283916111132    -0.811373318222     1.007825032230
         H           -1.201638958038     2.168674111132    -0.421652318222     1.007825032230
         H           -2.063863958038     1.286282111132     0.853741681778     1.007825032230
         H           -2.688513958038    -1.278876888868    -0.818570318222     1.007825032230
         H           -1.202150958038    -2.166164888868    -0.433846318222     1.007825032230
         H           -2.064154958038    -1.290762888868     0.846499681778     1.007825032230
         H            2.566712041962    -0.001722888868     0.593831681778     1.007825032230

  Basis Set: AUG-CC-PVTZ
    Blend: AUG-CC-PVTZ
  Basis Set: (AUG-CC-PVTZ AUX)
    Blend: AUG-CC-PVTZ-JKFIT
	 Reference Energy          =    -628.6076464532455930 [Eh]
	 Singles Energy            =      -0.0000000000000000 [Eh]
	 Same-Spin Energy          =      -0.2942430564840358 [Eh]
	 Opposite-Spin Energy      =      -0.9615499857277874 [Eh]
	 Correlation Energy        =      -1.2557930422118231 [Eh]
	 Total Energy              =    -629.8634394954574418 [Eh]

	 ================> DF-SCS-MP2 Energies <==================
	-----------------------------------------------------------
	 SCS Same-Spin Scale       =       0.3333333333333333 [-]
	 SCS Opposite-Spin Scale   =       1.2000000000000000 [-]
	 SCS Same-Spin Energy      =      -0.0980810188280119 [Eh]
	 SCS Opposite-Spin Energy  =      -1.1538599828733449 [Eh]
	 SCS Correlation Energy    =      -1.2519410017013568 [Eh]
	 SCS Total Energy          =    -629.8595874549469045 [Eh]
	-----------------------------------------------------------

  Dipole Moment: [D]
     X:    -0.3166      Y:     0.0061      Z:    -2.0472     Total:     2.0716

*** Psi4 exiting successfully. Buy a developer a beer!
