                               Psi4 1.4a3.dev225

  ==> Input File <==

--------------------------------------------------------------------------
#psi4
#
memory 32 gb

molecule  {
0 1
  S        1.9874048     0.0009846    -0.3444082
  O        0.2966630    -0.0047940     1.6103990
  C       -0.8837990     0.0013960    -0.4908930
  C       -1.6918460     1.2669440    -0.1967440
  C       -1.6921440    -1.2655900    -0.2038620
  C        0.3503050    -0.0012110     0.3916140
  H       -0.5708550     0.0043180    -1.5417560
  H       -2.5996000     1.2838970    -0.8066260
  H       -1.1130310     2.1686550    -0.4169050
  H       -1.9752560     1.2862630     0.8584890
  H       -2.5999060    -1.2788960    -0.8138230
  H       -1.1135430    -2.1661840    -0.4290990
  H       -1.9755470    -1.2907820     0.8512470
  H        2.6553200    -0.0017420     0.5985790
units angstrom
no_reorient  #important for SAPT in psi4, default
symmetry c1  #important for SAPT in psi4, default
}

set PROPERTIES_ORIGIN ["COM"]
properties('MP2/aug-cc-pvtz', properties = ['dipole'])
--------------------------------------------------------------------------

    Molecular point group: c1
  Charge       = 0
  Multiplicity = 1
  Basis Set: AUG-CC-PVTZ
    Blend: AUG-CC-PVTZ
  Basis Set: (AUG-CC-PVTZ AUX)
    Blend: AUG-CC-PVTZ-JKFIT

    Orbital Energies [Eh]
    ---------------------

    Doubly Occupied:

       1A    -91.963219     2A    -20.557921     3A    -11.370881
       4A    -11.262497     5A    -11.232437     6A    -11.232422
       7A     -8.971878     8A     -6.653965     9A     -6.651757
      10A     -6.650806    11A     -1.399495    12A     -1.103917
      13A     -1.038775    14A     -0.948851    15A     -0.877089
      16A     -0.742301    17A     -0.685824    18A     -0.648070
      19A     -0.611081    20A     -0.599619    21A     -0.558219
      22A     -0.557358    23A     -0.530703    24A     -0.519137
      25A     -0.497427    26A     -0.492775    27A     -0.407012
      28A     -0.390828

  @DF-RHF Final Energy:  -628.60680995200369

   => Energetics <=

    Nuclear Repulsion Energy =            295.3455443735137465
    One-Electron Energy =               -1449.5921787079785190
    Two-Electron Energy =                 525.6398243824610290
    Total Energy =                       -628.6068099520036867
  Basis Set: (AUG-CC-PVTZ AUX)
    Blend: AUG-CC-PVTZ-RI
    Molecular point group: c1

    Geometry (in Angstrom), charge = 0, multiplicity = 1:

       Center              X                  Y                   Z               Mass
    ------------   -----------------  -----------------  -----------------  -----------------
         S            1.872902685213     0.001188000356    -0.412032570784    31.972071174400
         O            0.182160885213    -0.004590599644     1.542774629216    15.994914619570
         C           -0.998301114787     0.001599400356    -0.558517370784    12.000000000000
         C           -1.806348114787     1.267147400356    -0.264368370784    12.000000000000
         C           -1.806646114787    -1.265386599644    -0.271486370784    12.000000000000
         C            0.235802885213    -0.001007599644     0.323989629216    12.000000000000
         H           -0.685357114787     0.004521400356    -1.609380370784     1.007825032230
         H           -2.714102114787     1.284100400356    -0.874250370784     1.007825032230
         H           -1.227533114787     2.168858400356    -0.484529370784     1.007825032230
         H           -2.089758114787     1.286466400356     0.790864629216     1.007825032230
         H           -2.714408114787    -1.278692599644    -0.881447370784     1.007825032230
         H           -1.228045114787    -2.165980599644    -0.496723370784     1.007825032230
         H           -2.090049114787    -1.290578599644     0.783622629216     1.007825032230
         H            2.540817885213    -0.001538599644     0.530954629216     1.007825032230

  Basis Set: AUG-CC-PVTZ
    Blend: AUG-CC-PVTZ
  Basis Set: (AUG-CC-PVTZ AUX)
    Blend: AUG-CC-PVTZ-JKFIT
	 Reference Energy          =    -628.6068099520036867 [Eh]
	 Singles Energy            =      -0.0000000000000000 [Eh]
	 Same-Spin Energy          =      -0.2902929103394207 [Eh]
	 Opposite-Spin Energy      =      -0.9538417341641663 [Eh]
	 Correlation Energy        =      -1.2441346445035870 [Eh]
	 Total Energy              =    -629.8509445965072473 [Eh]

	 ================> DF-SCS-MP2 Energies <==================
	-----------------------------------------------------------
	 SCS Same-Spin Scale       =       0.3333333333333333 [-]
	 SCS Opposite-Spin Scale   =       1.2000000000000000 [-]
	 SCS Same-Spin Energy      =      -0.0967643034464735 [Eh]
	 SCS Opposite-Spin Energy  =      -1.1446100809969995 [Eh]
	 SCS Correlation Energy    =      -1.2413743844434730 [Eh]
	 SCS Total Energy          =    -629.8481843364471615 [Eh]
	-----------------------------------------------------------

  Dipole Moment: [D]
     X:    -0.8531      Y:     0.0046      Z:    -1.5260     Total:     1.7482

*** Psi4 exiting successfully. Buy a developer a beer!
