                               Psi4 1.4a3.dev225

  ==> Input File <==

--------------------------------------------------------------------------
#psi4
#
memory 32 gb

molecule  {
0 1
  S        1.9015010     0.0014740    -0.5114990
  O        0.3392308    -0.0047977     1.6115286
  C       -0.8837990     0.0013960    -0.4908930
  C       -1.6918460     1.2669440    -0.1967440
  C       -1.6921440    -1.2655900    -0.2038620
  C        0.3503050    -0.0012110     0.3916140
  H       -0.5708550     0.0043180    -1.5417560
  H       -2.5996000     1.2838970    -0.8066260
  H       -1.1130310     2.1686550    -0.4169050
  H       -1.9752560     1.2862630     0.8584890
  H       -2.5999060    -1.2788960    -0.8138230
  H       -1.1135430    -2.1661840    -0.4290990
  H       -1.9755470    -1.2907820     0.8512470
  H        2.6553200    -0.0017420     0.5985790
units angstrom
no_reorient  #important for SAPT in psi4, default
symmetry c1  #important for SAPT in psi4, default
}

set PROPERTIES_ORIGIN ["COM"]
properties('MP2/aug-cc-pvtz', properties = ['dipole'])
--------------------------------------------------------------------------

    Molecular point group: c1
  Charge       = 0
  Multiplicity = 1
  Basis Set: AUG-CC-PVTZ
    Blend: AUG-CC-PVTZ
  Basis Set: (AUG-CC-PVTZ AUX)
    Blend: AUG-CC-PVTZ-JKFIT

    Orbital Energies [Eh]
    ---------------------

    Doubly Occupied:

       1A    -91.979906     2A    -20.560670     3A    -11.370020
       4A    -11.259759     5A    -11.231572     6A    -11.231557
       7A     -8.982027     8A     -6.663196     9A     -6.662132
      10A     -6.661336    11A     -1.398520    12A     -1.105012
      13A     -1.018017    14A     -0.948073    15A     -0.867406
      16A     -0.734995    17A     -0.670167    18A     -0.645642
      19A     -0.601012    20A     -0.598956    21A     -0.559917
      22A     -0.556603    23A     -0.530488    24A     -0.517242
      25A     -0.493727    26A     -0.492103    27A     -0.408074
      28A     -0.392201

  @DF-RHF Final Energy:  -628.63133232011455

   => Energetics <=

    Nuclear Repulsion Energy =            294.9023286851412422
    One-Electron Energy =               -1448.7866632224008754
    Two-Electron Energy =                 525.2530022171451947
    Total Energy =                       -628.6313323201145522
  Basis Set: (AUG-CC-PVTZ AUX)
    Blend: AUG-CC-PVTZ-RI
    Molecular point group: c1

    Geometry (in Angstrom), charge = 0, multiplicity = 1:

       Center              X                  Y                   Z               Mass
    ------------   -----------------  -----------------  -----------------  -----------------
         S            1.806855294909     0.001527558844    -0.527943977529    31.972071174400
         O            0.244585094909    -0.004744141156     1.595083622471    15.994914619570
         C           -0.978444705091     0.001449558844    -0.507337977529    12.000000000000
         C           -1.786491705091     1.266997558844    -0.213188977529    12.000000000000
         C           -1.786789705091    -1.265536441156    -0.220306977529    12.000000000000
         C            0.255659294909    -0.001157441156     0.375169022471    12.000000000000
         H           -0.665500705091     0.004371558844    -1.558200977529     1.007825032230
         H           -2.694245705091     1.283950558844    -0.823070977529     1.007825032230
         H           -1.207676705091     2.168708558844    -0.433349977529     1.007825032230
         H           -2.069901705091     1.286316558844     0.842044022471     1.007825032230
         H           -2.694551705091    -1.278842441156    -0.830267977529     1.007825032230
         H           -1.208188705091    -2.166130441156    -0.445543977529     1.007825032230
         H           -2.070192705091    -1.290728441156     0.834802022471     1.007825032230
         H            2.560674294909    -0.001688441156     0.582134022471     1.007825032230

  Basis Set: AUG-CC-PVTZ
    Blend: AUG-CC-PVTZ
  Basis Set: (AUG-CC-PVTZ AUX)
    Blend: AUG-CC-PVTZ-JKFIT
	 Reference Energy          =    -628.6313323201145522 [Eh]
	 Singles Energy            =      -0.0000000000000000 [Eh]
	 Same-Spin Energy          =      -0.2911567836032927 [Eh]
	 Opposite-Spin Energy      =      -0.9554005460635298 [Eh]
	 Correlation Energy        =      -1.2465573296668224 [Eh]
	 Total Energy              =    -629.8778896497814230 [Eh]

	 ================> DF-SCS-MP2 Energies <==================
	-----------------------------------------------------------
	 SCS Same-Spin Scale       =       0.3333333333333333 [-]
	 SCS Opposite-Spin Scale   =       1.2000000000000000 [-]
	 SCS Same-Spin Energy      =      -0.0970522612010976 [Eh]
	 SCS Opposite-Spin Energy  =      -1.1464806552762357 [Eh]
	 SCS Correlation Energy    =      -1.2435329164773332 [Eh]
	 SCS Total Energy          =    -629.8748652365918588 [Eh]
	-----------------------------------------------------------

  Dipole Moment: [D]
     X:    -0.7737      Y:     0.0048      Z:    -1.5887     Total:     1.7671

*** Psi4 exiting successfully. Buy a developer a beer!
