                               Psi4 1.4a3.dev225

  ==> Input File <==

--------------------------------------------------------------------------
#psi4
#
memory 32 gb

molecule  {
0 1
  S        1.9015010     0.0014740    -0.5114990
  O        0.2966630    -0.0047940     1.6103990
  C       -0.8837990     0.0013960    -0.4908930
  C       -1.6918460     1.2669440    -0.1967440
  C       -1.7627921    -1.2325422    -0.2768148
  C        0.3503050    -0.0012110     0.3916140
  H       -0.5708550     0.0043180    -1.5417560
  H       -2.5996000     1.2838970    -0.8066260
  H       -1.1130310     2.1686550    -0.4169050
  H       -1.9752560     1.2862630     0.8584890
  H       -2.5999060    -1.2788960    -0.8138230
  H       -1.1135430    -2.1661840    -0.4290990
  H       -1.9755470    -1.2907820     0.8512470
  H        2.6553200    -0.0017420     0.5985790
units angstrom
no_reorient  #important for SAPT in psi4, default
symmetry c1  #important for SAPT in psi4, default
}

set PROPERTIES_ORIGIN ["COM"]
properties('MP2/aug-cc-pvtz', properties = ['dipole'])
--------------------------------------------------------------------------

    Molecular point group: c1
  Charge       = 0
  Multiplicity = 1
  Basis Set: AUG-CC-PVTZ
    Blend: AUG-CC-PVTZ
  Basis Set: (AUG-CC-PVTZ AUX)
    Blend: AUG-CC-PVTZ-JKFIT

    Orbital Energies [Eh]
    ---------------------

    Doubly Occupied:

       1A    -91.983711     2A    -20.562147     3A    -11.371543
       4A    -11.258074     5A    -11.231535     6A    -11.229517
       7A     -8.985644     8A     -6.666808     9A     -6.665727
      10A     -6.664929    11A     -1.399360    12A     -1.103555
      13A     -1.021145    14A     -0.945928    15A     -0.870023
      16A     -0.733868    17A     -0.672491    18A     -0.644930
      19A     -0.611091    20A     -0.596039    21A     -0.568618
      22A     -0.544504    23A     -0.535447    24A     -0.519453
      25A     -0.484953    26A     -0.478327    27A     -0.412418
      28A     -0.394863

  @DF-RHF Final Energy:  -628.61754695659874

   => Energetics <=

    Nuclear Repulsion Energy =            294.5473675852979909
    One-Electron Energy =               -1448.0165297869039023
    Two-Electron Energy =                 524.8516152450072241
    Total Energy =                       -628.6175469565987441
  Basis Set: (AUG-CC-PVTZ AUX)
    Blend: AUG-CC-PVTZ-RI
    Molecular point group: c1

    Geometry (in Angstrom), charge = 0, multiplicity = 1:

       Center              X                  Y                   Z               Mass
    ------------   -----------------  -----------------  -----------------  -----------------
         S            1.821549629325    -0.002285133259    -0.519355060766    31.972071174400
         O            0.216711629325    -0.008553133259     1.602542939234    15.994914619570
         C           -0.963750370675    -0.002363133259    -0.498749060766    12.000000000000
         C           -1.771797370675     1.263184866741    -0.204600060766    12.000000000000
         C           -1.842743470675    -1.236301333259    -0.284670860766    12.000000000000
         C            0.270353629325    -0.004970133259     0.383757939234    12.000000000000
         H           -0.650806370675     0.000558866741    -1.549612060766     1.007825032230
         H           -2.679551370675     1.280137866741    -0.814482060766     1.007825032230
         H           -1.192982370675     2.164895866741    -0.424761060766     1.007825032230
         H           -2.055207370675     1.282503866741     0.850632939234     1.007825032230
         H           -2.679857370675    -1.282655133259    -0.821679060766     1.007825032230
         H           -1.193494370675    -2.169943133259    -0.436955060766     1.007825032230
         H           -2.055498370675    -1.294541133259     0.843390939234     1.007825032230
         H            2.575368629325    -0.005501133259     0.590722939234     1.007825032230

  Basis Set: AUG-CC-PVTZ
    Blend: AUG-CC-PVTZ
  Basis Set: (AUG-CC-PVTZ AUX)
    Blend: AUG-CC-PVTZ-JKFIT
	 Reference Energy          =    -628.6175469565987441 [Eh]
	 Singles Energy            =      -0.0000000000000000 [Eh]
	 Same-Spin Energy          =      -0.2913507258953699 [Eh]
	 Opposite-Spin Energy      =      -0.9562006483482695 [Eh]
	 Correlation Energy        =      -1.2475513742436393 [Eh]
	 Total Energy              =    -629.8650983308423292 [Eh]

	 ================> DF-SCS-MP2 Energies <==================
	-----------------------------------------------------------
	 SCS Same-Spin Scale       =       0.3333333333333333 [-]
	 SCS Opposite-Spin Scale   =       1.2000000000000000 [-]
	 SCS Same-Spin Energy      =      -0.0971169086317900 [Eh]
	 SCS Opposite-Spin Energy  =      -1.1474407780179232 [Eh]
	 SCS Correlation Energy    =      -1.2445576866497132 [Eh]
	 SCS Total Energy          =    -629.8621046432484718 [Eh]
	-----------------------------------------------------------

  Dipole Moment: [D]
     X:    -0.5966      Y:     0.0230      Z:    -1.6071     Total:     1.7144

*** Psi4 exiting successfully. Buy a developer a beer!
