                               Psi4 1.4a3.dev225

  ==> Input File <==

--------------------------------------------------------------------------
#psi4
#
memory 32 gb

molecule  {
0 1
  S        1.9015010     0.0014740    -0.5114990
  O        0.2966630    -0.0047940     1.6103990
  C       -0.8837990     0.0013960    -0.4908930
  C       -1.6918460     1.2669440    -0.1967440
  C       -1.6921440    -1.2655900    -0.2038620
  C        0.3503050    -0.0012110     0.3916140
  H       -0.5708550     0.0043180    -1.5417560
  H       -2.5996000     1.2838970    -0.8066260
  H       -1.1130310     2.1686550    -0.4169050
  H       -1.9752560     1.2862630     0.8584890
  H       -2.5999060    -1.2788960    -0.8138230
  H       -1.1135430    -2.1661840    -0.4290990
  H       -1.9755470    -1.2907820     0.8512470
  H        2.5991419    -0.0015023     0.5158508
units angstrom
no_reorient  #important for SAPT in psi4, default
symmetry c1  #important for SAPT in psi4, default
}

set PROPERTIES_ORIGIN ["COM"]
properties('MP2/aug-cc-pvtz', properties = ['dipole'])
--------------------------------------------------------------------------

    Molecular point group: c1
  Charge       = 0
  Multiplicity = 1
  Basis Set: AUG-CC-PVTZ
    Blend: AUG-CC-PVTZ
  Basis Set: (AUG-CC-PVTZ AUX)
    Blend: AUG-CC-PVTZ-JKFIT

    Orbital Energies [Eh]
    ---------------------

    Doubly Occupied:

       1A    -91.975032     2A    -20.561032     3A    -11.369765
       4A    -11.257642     5A    -11.230328     6A    -11.230312
       7A     -8.980027     8A     -6.661471     9A     -6.660071
      10A     -6.659134    11A     -1.398774    12A     -1.103863
      13A     -1.031041    14A     -0.946889    15A     -0.870628
      16A     -0.735914    17A     -0.674274    18A     -0.648552
      19A     -0.603925    20A     -0.598453    21A     -0.560932
      22A     -0.555707    23A     -0.529476    24A     -0.521594
      25A     -0.493908    26A     -0.490779    27A     -0.409595
      28A     -0.395094

  @DF-RHF Final Energy:  -628.62658761904106

   => Energetics <=

    Nuclear Repulsion Energy =            295.5873996407185587
    One-Electron Energy =               -1450.1195566669914570
    Two-Electron Energy =                 525.9055694072318374
    Total Energy =                       -628.6265876190410609
  Basis Set: (AUG-CC-PVTZ AUX)
    Blend: AUG-CC-PVTZ-RI
    Molecular point group: c1

    Geometry (in Angstrom), charge = 0, multiplicity = 1:

       Center              X                  Y                   Z               Mass
    ------------   -----------------  -----------------  -----------------  -----------------
         S            1.813944489916     0.001524667774    -0.526968837569    31.972071174400
         O            0.209106489916    -0.004743332226     1.594929162431    15.994914619570
         C           -0.971355510084     0.001446667774    -0.506362837569    12.000000000000
         C           -1.779402510084     1.266994667774    -0.212213837569    12.000000000000
         C           -1.779700510084    -1.265539332226    -0.219331837569    12.000000000000
         C            0.262748489916    -0.001160332226     0.376144162431    12.000000000000
         H           -0.658411510084     0.004368667774    -1.557225837569     1.007825032230
         H           -2.687156510084     1.283947667774    -0.822095837569     1.007825032230
         H           -1.200587510084     2.168705667774    -0.432374837569     1.007825032230
         H           -2.062812510084     1.286313667774     0.843019162431     1.007825032230
         H           -2.687462510084    -1.278845332226    -0.829292837569     1.007825032230
         H           -1.201099510084    -2.166133332226    -0.444568837569     1.007825032230
         H           -2.063103510084    -1.290731332226     0.835777162431     1.007825032230
         H            2.511585389916    -0.001451632226     0.500380962431     1.007825032230

  Basis Set: AUG-CC-PVTZ
    Blend: AUG-CC-PVTZ
  Basis Set: (AUG-CC-PVTZ AUX)
    Blend: AUG-CC-PVTZ-JKFIT
	 Reference Energy          =    -628.6265876190410609 [Eh]
	 Singles Energy            =      -0.0000000000000000 [Eh]
	 Same-Spin Energy          =      -0.2911852102770001 [Eh]
	 Opposite-Spin Energy      =      -0.9551584169811197 [Eh]
	 Correlation Energy        =      -1.2463436272581196 [Eh]
	 Total Energy              =    -629.8729312462992311 [Eh]

	 ================> DF-SCS-MP2 Energies <==================
	-----------------------------------------------------------
	 SCS Same-Spin Scale       =       0.3333333333333333 [-]
	 SCS Opposite-Spin Scale   =       1.2000000000000000 [-]
	 SCS Same-Spin Energy      =      -0.0970617367590000 [Eh]
	 SCS Opposite-Spin Energy  =      -1.1461901003773436 [Eh]
	 SCS Correlation Energy    =      -1.2432518371363437 [Eh]
	 SCS Total Energy          =    -629.8698394561773739 [Eh]
	-----------------------------------------------------------

  Dipole Moment: [D]
     X:    -0.6560      Y:     0.0049      Z:    -1.6193     Total:     1.7472

*** Psi4 exiting successfully. Buy a developer a beer!
