                               Psi4 1.4a3.dev225

  ==> Input File <==

--------------------------------------------------------------------------
#psi4
#
memory 32 gb

molecule  {
0 1
  S        1.9015010     0.0014740    -0.5114990
  O        0.2966630    -0.0047940     1.6103990
  C       -0.8837990     0.0013960    -0.4908930
  C       -1.6918460     1.2669440    -0.1967440
  C       -1.6738528    -1.2728931    -0.1858286
  C        0.3503050    -0.0012110     0.3916140
  H       -0.5708550     0.0043180    -1.5417560
  H       -2.5996000     1.2838970    -0.8066260
  H       -1.1130310     2.1686550    -0.4169050
  H       -1.9752560     1.2862630     0.8584890
  H       -2.5999060    -1.2788960    -0.8138230
  H       -1.1135430    -2.1661840    -0.4290990
  H       -1.9755470    -1.2907820     0.8512470
  H        2.6553200    -0.0017420     0.5985790
units angstrom
no_reorient  #important for SAPT in psi4, default
symmetry c1  #important for SAPT in psi4, default
}

set PROPERTIES_ORIGIN ["COM"]
properties('MP2/aug-cc-pvtz', properties = ['dipole'])
--------------------------------------------------------------------------

    Molecular point group: c1
  Charge       = 0
  Multiplicity = 1
  Basis Set: AUG-CC-PVTZ
    Blend: AUG-CC-PVTZ
  Basis Set: (AUG-CC-PVTZ AUX)
    Blend: AUG-CC-PVTZ-JKFIT

    Orbital Energies [Eh]
    ---------------------

    Doubly Occupied:

       1A    -91.982231     2A    -20.560105     3A    -11.369168
       4A    -11.258120     5A    -11.230634     6A    -11.230618
       7A     -8.984237     8A     -6.665410     9A     -6.664317
      10A     -6.663527    11A     -1.398069    12A     -1.103622
      13A     -1.019525    14A     -0.947548    15A     -0.865991
      16A     -0.734207    17A     -0.670109    18A     -0.645725
      19A     -0.602437    20A     -0.597188    21A     -0.558845
      22A     -0.556148    23A     -0.527359    24A     -0.515049
      25A     -0.494711    26A     -0.492358    27A     -0.408315
      28A     -0.394058

  @DF-RHF Final Energy:  -628.63059772019176

   => Energetics <=

    Nuclear Repulsion Energy =            295.1009806971574108
    One-Electron Energy =               -1449.1838903478469547
    Two-Electron Energy =                 525.4523119304977854
    Total Energy =                       -628.6305977201917585
  Basis Set: (AUG-CC-PVTZ AUX)
    Blend: AUG-CC-PVTZ-RI
    Molecular point group: c1

    Geometry (in Angstrom), charge = 0, multiplicity = 1:

       Center              X                  Y                   Z               Mass
    ------------   -----------------  -----------------  -----------------  -----------------
         S            1.811290320983     0.002369415686    -0.529850482707    31.972071174400
         O            0.206452320983    -0.003898584314     1.592047517293    15.994914619570
         C           -0.974009679017     0.002291415686    -0.509244482707    12.000000000000
         C           -1.782056679017     1.267839415686    -0.215095482707    12.000000000000
         C           -1.764063479017    -1.271997684314    -0.204180082707    12.000000000000
         C            0.260094320983    -0.000315584314     0.373262517293    12.000000000000
         H           -0.661065679017     0.005213415686    -1.560107482707     1.007825032230
         H           -2.689810679017     1.284792415686    -0.824977482707     1.007825032230
         H           -1.203241679017     2.169550415686    -0.435256482707     1.007825032230
         H           -2.065466679017     1.287158415686     0.840137517293     1.007825032230
         H           -2.690116679017    -1.278000584314    -0.832174482707     1.007825032230
         H           -1.203753679017    -2.165288584314    -0.447450482707     1.007825032230
         H           -2.065757679017    -1.289886584314     0.832895517293     1.007825032230
         H            2.565109320983    -0.000846584314     0.580227517293     1.007825032230

  Basis Set: AUG-CC-PVTZ
    Blend: AUG-CC-PVTZ
  Basis Set: (AUG-CC-PVTZ AUX)
    Blend: AUG-CC-PVTZ-JKFIT
	 Reference Energy          =    -628.6305977201917585 [Eh]
	 Singles Energy            =      -0.0000000000000000 [Eh]
	 Same-Spin Energy          =      -0.2912700948277794 [Eh]
	 Opposite-Spin Energy      =      -0.9555945793441565 [Eh]
	 Correlation Energy        =      -1.2468646741719360 [Eh]
	 Total Energy              =    -629.8774623943636470 [Eh]

	 ================> DF-SCS-MP2 Energies <==================
	-----------------------------------------------------------
	 SCS Same-Spin Scale       =       0.3333333333333333 [-]
	 SCS Opposite-Spin Scale   =       1.2000000000000000 [-]
	 SCS Same-Spin Energy      =      -0.0970900316092598 [Eh]
	 SCS Opposite-Spin Energy  =      -1.1467134952129878 [Eh]
	 SCS Correlation Energy    =      -1.2438035268222476 [Eh]
	 SCS Total Energy          =    -629.8744012470140206 [Eh]
	-----------------------------------------------------------

  Dipole Moment: [D]
     X:    -0.6411      Y:     0.0046      Z:    -1.5933     Total:     1.7175

*** Psi4 exiting successfully. Buy a developer a beer!
