                               Psi4 1.4a3.dev225

  ==> Input File <==

--------------------------------------------------------------------------
#psi4
#
memory 32 gb

molecule  {
0 1
  S        1.9015010     0.0014740    -0.5114990
  O        0.2966630    -0.0047940     1.6103990
  C       -0.8837990     0.0013960    -0.4908930
  C       -1.6918460     1.2669440    -0.1967440
  C       -1.6921440    -1.2655900    -0.2038620
  C        0.3503050    -0.0012110     0.3916140
  H       -0.5708550     0.0043180    -1.5417560
  H       -2.6098385     1.2505478    -0.7911190
  H       -1.1130310     2.1686550    -0.4169050
  H       -1.9752560     1.2862630     0.8584890
  H       -2.5999060    -1.2788960    -0.8138230
  H       -1.1135430    -2.1661840    -0.4290990
  H       -1.9755470    -1.2907820     0.8512470
  H        2.6553200    -0.0017420     0.5985790
units angstrom
no_reorient  #important for SAPT in psi4, default
symmetry c1  #important for SAPT in psi4, default
}

set PROPERTIES_ORIGIN ["COM"]
properties('MP2/aug-cc-pvtz', properties = ['dipole'])
--------------------------------------------------------------------------

    Molecular point group: c1
  Charge       = 0
  Multiplicity = 1
  Basis Set: AUG-CC-PVTZ
    Blend: AUG-CC-PVTZ
  Basis Set: (AUG-CC-PVTZ AUX)
    Blend: AUG-CC-PVTZ-JKFIT

    Orbital Energies [Eh]
    ---------------------

    Doubly Occupied:

       1A    -91.982388     2A    -20.560331     3A    -11.369386
       4A    -11.257679     5A    -11.230455     6A    -11.230430
       7A     -8.984384     8A     -6.665556     9A     -6.664464
      10A     -6.663674    11A     -1.398133    12A     -1.103585
      13A     -1.019764    14A     -0.946805    15A     -0.866456
      16A     -0.733939    17A     -0.669718    18A     -0.645725
      19A     -0.601729    20A     -0.598134    21A     -0.558986
      22A     -0.554930    23A     -0.530090    24A     -0.516713
      25A     -0.492896    26A     -0.490451    27A     -0.409027
      28A     -0.394115

  @DF-RHF Final Energy:  -628.63120483072873

   => Energetics <=

    Nuclear Repulsion Energy =            295.0119826816491582
    One-Electron Energy =               -1449.0064845201911794
    Two-Electron Energy =                 525.3632970078132303
    Total Energy =                       -628.6312048307287341
  Basis Set: (AUG-CC-PVTZ AUX)
    Blend: AUG-CC-PVTZ-RI
    Molecular point group: c1

    Geometry (in Angstrom), charge = 0, multiplicity = 1:

       Center              X                  Y                   Z               Mass
    ------------   -----------------  -----------------  -----------------  -----------------
         S            1.813499433076     0.001850072646    -0.527920527347    31.972071174400
         O            0.208661433076    -0.004417927354     1.593977472653    15.994914619570
         C           -0.971800566924     0.001772072646    -0.507314527347    12.000000000000
         C           -1.779847566924     1.267320072646    -0.213165527347    12.000000000000
         C           -1.780145566924    -1.265213927354    -0.220283527347    12.000000000000
         C            0.262303433076    -0.000834927354     0.375192472653    12.000000000000
         H           -0.658856566924     0.004694072646    -1.558177527347     1.007825032230
         H           -2.697840066924     1.250923872646    -0.807540527347     1.007825032230
         H           -1.201032566924     2.169031072646    -0.433326527347     1.007825032230
         H           -2.063257566924     1.286639072646     0.842067472653     1.007825032230
         H           -2.687907566924    -1.278519927354    -0.830244527347     1.007825032230
         H           -1.201544566924    -2.165807927354    -0.445520527347     1.007825032230
         H           -2.063548566924    -1.290405927354     0.834825472653     1.007825032230
         H            2.567318433076    -0.001365927354     0.582157472653     1.007825032230

  Basis Set: AUG-CC-PVTZ
    Blend: AUG-CC-PVTZ
  Basis Set: (AUG-CC-PVTZ AUX)
    Blend: AUG-CC-PVTZ-JKFIT
	 Reference Energy          =    -628.6312048307287341 [Eh]
	 Singles Energy            =      -0.0000000000000000 [Eh]
	 Same-Spin Energy          =      -0.2912648597434074 [Eh]
	 Opposite-Spin Energy      =      -0.9556086362855647 [Eh]
	 Correlation Energy        =      -1.2468734960289720 [Eh]
	 Total Energy              =    -629.8780783267577590 [Eh]

	 ================> DF-SCS-MP2 Energies <==================
	-----------------------------------------------------------
	 SCS Same-Spin Scale       =       0.3333333333333333 [-]
	 SCS Opposite-Spin Scale   =       1.2000000000000000 [-]
	 SCS Same-Spin Energy      =      -0.0970882865811358 [Eh]
	 SCS Opposite-Spin Energy  =      -1.1467303635426775 [Eh]
	 SCS Correlation Energy    =      -1.2438186501238133 [Eh]
	 SCS Total Energy          =    -629.8750234808525192 [Eh]
	-----------------------------------------------------------

  Dipole Moment: [D]
     X:    -0.6420      Y:    -0.0046      Z:    -1.5896     Total:     1.7143

*** Psi4 exiting successfully. Buy a developer a beer!
