                               Psi4 1.4a3.dev225

  ==> Input File <==

--------------------------------------------------------------------------
#psi4
#
memory 32 gb

molecule  {
0 1
  S        1.9015010     0.0014740    -0.5114990
  O        0.2966630    -0.0047940     1.6103990
  C       -0.8837990     0.0013960    -0.4908930
  C       -1.6918460     1.2669440    -0.1967440
  C       -1.6921440    -1.2655900    -0.2038620
  C        0.3503050    -0.0012110     0.3916140
  H       -0.5708550     0.0043180    -1.5417560
  H       -2.5996000     1.2838970    -0.8066260
  H       -1.1130310     2.1686550    -0.4169050
  H       -1.9752560     1.2862630     0.8584890
  H       -2.5999060    -1.2788960    -0.8138230
  H       -1.1135430    -2.1661840    -0.4290990
  H       -1.9755470    -1.2907820     0.8512470
  H        2.7114981    -0.0019817     0.6813072
units angstrom
no_reorient  #important for SAPT in psi4, default
symmetry c1  #important for SAPT in psi4, default
}

set PROPERTIES_ORIGIN ["COM"]
properties('MP2/aug-cc-pvtz', properties = ['dipole'])
--------------------------------------------------------------------------

    Molecular point group: c1
  Charge       = 0
  Multiplicity = 1
  Basis Set: AUG-CC-PVTZ
    Blend: AUG-CC-PVTZ
  Basis Set: (AUG-CC-PVTZ AUX)
    Blend: AUG-CC-PVTZ-JKFIT

    Orbital Energies [Eh]
    ---------------------

    Doubly Occupied:

       1A    -91.988722     2A    -20.559950     3A    -11.369396
       4A    -11.258180     5A    -11.230424     6A    -11.230409
       7A     -8.988558     8A     -6.669589     9A     -6.668532
      10A     -6.667865    11A     -1.397772    12A     -1.103279
      13A     -1.011510    14A     -0.946969    15A     -0.862950
      16A     -0.732587    17A     -0.667401    18A     -0.642481
      19A     -0.598259    20A     -0.597792    21A     -0.556356
      22A     -0.555690    23A     -0.529163    24A     -0.511484
      25A     -0.490713    26A     -0.490593    27A     -0.408817
      28A     -0.393446

  @DF-RHF Final Energy:  -628.62579425493880

   => Energetics <=

    Nuclear Repulsion Energy =            294.4424604966512220
    One-Electron Energy =               -1447.8787314067910756
    Two-Electron Energy =                 524.8104766552011142
    Total Energy =                       -628.6257942549387963
  Basis Set: (AUG-CC-PVTZ AUX)
    Blend: AUG-CC-PVTZ-RI
    Molecular point group: c1

    Geometry (in Angstrom), charge = 0, multiplicity = 1:

       Center              X                  Y                   Z               Mass
    ------------   -----------------  -----------------  -----------------  -----------------
         S            1.812855997736     0.001529312138    -0.528571757546    31.972071174400
         O            0.208017997736    -0.004738687862     1.593326242454    15.994914619570
         C           -0.972444002264     0.001451312138    -0.507965757546    12.000000000000
         C           -1.780491002264     1.266999312138    -0.213816757546    12.000000000000
         C           -1.780789002264    -1.265534687862    -0.220934757546    12.000000000000
         C            0.261659997736    -0.001155687862     0.374541242454    12.000000000000
         H           -0.659500002264     0.004373312138    -1.558828757546     1.007825032230
         H           -2.688245002264     1.283952312138    -0.823698757546     1.007825032230
         H           -1.201676002264     2.168710312138    -0.433977757546     1.007825032230
         H           -2.063901002264     1.286318312138     0.841416242454     1.007825032230
         H           -2.688551002264    -1.278840687862    -0.830895757546     1.007825032230
         H           -1.202188002264    -2.166128687862    -0.446171757546     1.007825032230
         H           -2.064192002264    -1.290726687862     0.834174242454     1.007825032230
         H            2.622853097736    -0.001926387862     0.664234442454     1.007825032230

  Basis Set: AUG-CC-PVTZ
    Blend: AUG-CC-PVTZ
  Basis Set: (AUG-CC-PVTZ AUX)
    Blend: AUG-CC-PVTZ-JKFIT
	 Reference Energy          =    -628.6257942549387963 [Eh]
	 Singles Energy            =      -0.0000000000000000 [Eh]
	 Same-Spin Energy          =      -0.2913487966900806 [Eh]
	 Opposite-Spin Energy      =      -0.9563053254724931 [Eh]
	 Correlation Energy        =      -1.2476541221625737 [Eh]
	 Total Energy              =    -629.8734483771013402 [Eh]

	 ================> DF-SCS-MP2 Energies <==================
	-----------------------------------------------------------
	 SCS Same-Spin Scale       =       0.3333333333333333 [-]
	 SCS Opposite-Spin Scale   =       1.2000000000000000 [-]
	 SCS Same-Spin Energy      =      -0.0971162655633602 [Eh]
	 SCS Opposite-Spin Energy  =      -1.1475663905669917 [Eh]
	 SCS Correlation Energy    =      -1.2446826561303519 [Eh]
	 SCS Total Energy          =    -629.8704769110692041 [Eh]
	-----------------------------------------------------------

  Dipole Moment: [D]
     X:    -0.6251      Y:     0.0047      Z:    -1.5732     Total:     1.6929

*** Psi4 exiting successfully. Buy a developer a beer!
