                               Psi4 1.4a3.dev225

  ==> Input File <==

--------------------------------------------------------------------------
#psi4
#
memory 32 gb

molecule  {
0 1
  S        1.9015010     0.0014740    -0.5114990
  O        0.2966630    -0.0047940     1.6103990
  C       -0.8837990     0.0013960    -0.4908930
  C       -1.6918460     1.2669440    -0.1967440
  C       -1.6921440    -1.2655900    -0.2038620
  C        0.3503050    -0.0012110     0.3916140
  H       -0.5651468     0.0043713    -1.5609240
  H       -2.5996000     1.2838970    -0.8066260
  H       -1.1130310     2.1686550    -0.4169050
  H       -1.9752560     1.2862630     0.8584890
  H       -2.5999060    -1.2788960    -0.8138230
  H       -1.1135430    -2.1661840    -0.4290990
  H       -1.9755470    -1.2907820     0.8512470
  H        2.6553200    -0.0017420     0.5985790
units angstrom
no_reorient  #important for SAPT in psi4, default
symmetry c1  #important for SAPT in psi4, default
}

set PROPERTIES_ORIGIN ["COM"]
properties('MP2/aug-cc-pvtz', properties = ['dipole'])
--------------------------------------------------------------------------

    Molecular point group: c1
  Charge       = 0
  Multiplicity = 1
  Basis Set: AUG-CC-PVTZ
    Blend: AUG-CC-PVTZ
  Basis Set: (AUG-CC-PVTZ AUX)
    Blend: AUG-CC-PVTZ-JKFIT

    Orbital Energies [Eh]
    ---------------------

    Doubly Occupied:

       1A    -91.982430     2A    -20.560603     3A    -11.369735
       4A    -11.260298     5A    -11.230545     6A    -11.230529
       7A     -8.984414     8A     -6.665583     9A     -6.664490
      10A     -6.663700    11A     -1.398395    12A     -1.102652
      13A     -1.019731    14A     -0.947064    15A     -0.865912
      16A     -0.731950    17A     -0.669333    18A     -0.645625
      19A     -0.600635    20A     -0.598483    21A     -0.558808
      22A     -0.555791    23A     -0.529408    24A     -0.516805
      25A     -0.490955    26A     -0.490908    27A     -0.409275
      28A     -0.394121

  @DF-RHF Final Energy:  -628.63080488408889

   => Energetics <=

    Nuclear Repulsion Energy =            294.8829388944552079
    One-Electron Energy =               -1448.7511353623497143
    Two-Electron Energy =                 525.2373915838055609
    Total Energy =                       -628.6308048840888887
  Basis Set: (AUG-CC-PVTZ AUX)
    Blend: AUG-CC-PVTZ-RI
    Molecular point group: c1

    Geometry (in Angstrom), charge = 0, multiplicity = 1:

       Center              X                  Y                   Z               Mass
    ------------   -----------------  -----------------  -----------------  -----------------
         S            1.813344943530     0.001526473592    -0.527584600479    31.972071174400
         O            0.208506943530    -0.004741526408     1.594313399521    15.994914619570
         C           -0.971955056470     0.001448473592    -0.506978600479    12.000000000000
         C           -1.780002056470     1.266996473592    -0.212829600479    12.000000000000
         C           -1.780300056470    -1.265537526408    -0.219947600479    12.000000000000
         C            0.262148943530    -0.001158526408     0.375528399521    12.000000000000
         H           -0.653302856470     0.004423773592    -1.577009600479     1.007825032230
         H           -2.687756056470     1.283949473592    -0.822711600479     1.007825032230
         H           -1.201187056470     2.168707473592    -0.432990600479     1.007825032230
         H           -2.063412056470     1.286315473592     0.842403399521     1.007825032230
         H           -2.688062056470    -1.278843526408    -0.829908600479     1.007825032230
         H           -1.201699056470    -2.166131526408    -0.445184600479     1.007825032230
         H           -2.063703056470    -1.290729526408     0.835161399521     1.007825032230
         H            2.567163943530    -0.001689526408     0.582493399521     1.007825032230

  Basis Set: AUG-CC-PVTZ
    Blend: AUG-CC-PVTZ
  Basis Set: (AUG-CC-PVTZ AUX)
    Blend: AUG-CC-PVTZ-JKFIT
	 Reference Energy          =    -628.6308048840888887 [Eh]
	 Singles Energy            =      -0.0000000000000000 [Eh]
	 Same-Spin Energy          =      -0.2912546019737053 [Eh]
	 Opposite-Spin Energy      =      -0.9557128964214459 [Eh]
	 Correlation Energy        =      -1.2469674983951511 [Eh]
	 Total Energy              =    -629.8777723824840677 [Eh]

	 ================> DF-SCS-MP2 Energies <==================
	-----------------------------------------------------------
	 SCS Same-Spin Scale       =       0.3333333333333333 [-]
	 SCS Opposite-Spin Scale   =       1.2000000000000000 [-]
	 SCS Same-Spin Energy      =      -0.0970848673245684 [Eh]
	 SCS Opposite-Spin Energy  =      -1.1468554757057350 [Eh]
	 SCS Correlation Energy    =      -1.2439403430303033 [Eh]
	 SCS Total Energy          =    -629.8747452271192060 [Eh]
	-----------------------------------------------------------

  Dipole Moment: [D]
     X:    -0.6432      Y:     0.0048      Z:    -1.5884     Total:     1.7137

*** Psi4 exiting successfully. Buy a developer a beer!
