                               Psi4 1.4a3.dev225

  ==> Input File <==

--------------------------------------------------------------------------
#psi4
#
memory 32 gb

molecule  {
0 1
  S        1.9015010     0.0014740    -0.5114990
  O        0.2966630    -0.0047940     1.6103990
  C       -0.8837990     0.0013960    -0.4908930
  C       -1.6918460     1.2669440    -0.1967440
  C       -1.6393128    -1.1827833    -0.2226215
  C        0.3503050    -0.0012110     0.3916140
  H       -0.5708550     0.0043180    -1.5417560
  H       -2.5996000     1.2838970    -0.8066260
  H       -1.1130310     2.1686550    -0.4169050
  H       -1.9752560     1.2862630     0.8584890
  H       -2.5999060    -1.2788960    -0.8138230
  H       -1.1135430    -2.1661840    -0.4290990
  H       -1.9755470    -1.2907820     0.8512470
  H        2.6553200    -0.0017420     0.5985790
units angstrom
no_reorient  #important for SAPT in psi4, default
symmetry c1  #important for SAPT in psi4, default
}

set PROPERTIES_ORIGIN ["COM"]
properties('MP2/aug-cc-pvtz', properties = ['dipole'])
--------------------------------------------------------------------------

    Molecular point group: c1
  Charge       = 0
  Multiplicity = 1
  Basis Set: AUG-CC-PVTZ
    Blend: AUG-CC-PVTZ
  Basis Set: (AUG-CC-PVTZ AUX)
    Blend: AUG-CC-PVTZ-JKFIT

    Orbital Energies [Eh]
    ---------------------

    Doubly Occupied:

       1A    -91.983176     2A    -20.561603     3A    -11.370571
       4A    -11.254021     5A    -11.234371     6A    -11.230731
       7A     -8.985150     8A     -6.666320     9A     -6.665231
      10A     -6.664437    11A     -1.399502    12A     -1.118842
      13A     -1.021870    14A     -0.946688    15A     -0.862964
      16A     -0.738126    17A     -0.673946    18A     -0.651330
      19A     -0.605748    20A     -0.599490    21A     -0.559302
      22A     -0.549267    23A     -0.523935    24A     -0.512463
      25A     -0.503729    26A     -0.478925    27A     -0.409296
      28A     -0.394691

  @DF-RHF Final Energy:  -628.61964433318531

   => Energetics <=

    Nuclear Repulsion Energy =            296.6605063734120904
    One-Electron Energy =               -1452.2288525453445800
    Two-Electron Energy =                 526.9487018387471835
    Total Energy =                       -628.6196443331853061
  Basis Set: (AUG-CC-PVTZ AUX)
    Blend: AUG-CC-PVTZ-RI
    Molecular point group: c1

    Geometry (in Angstrom), charge = 0, multiplicity = 1:

       Center              X                  Y                   Z               Mass
    ------------   -----------------  -----------------  -----------------  -----------------
         S            1.807306069812    -0.008024911938    -0.525606355467    31.972071174400
         O            0.202468069812    -0.014292911938     1.596291644533    15.994914619570
         C           -0.977993930188    -0.008102911938    -0.505000355467    12.000000000000
         C           -1.786040930188     1.257445088062    -0.210851355467    12.000000000000
         C           -1.733507730188    -1.192282211938    -0.236728855467    12.000000000000
         C            0.256110069812    -0.010709911938     0.377506644533    12.000000000000
         H           -0.665049930188    -0.005180911938    -1.555863355467     1.007825032230
         H           -2.693794930188     1.274398088062    -0.820733355467     1.007825032230
         H           -1.207225930188     2.159156088062    -0.431012355467     1.007825032230
         H           -2.069450930188     1.276764088062     0.844381644533     1.007825032230
         H           -2.694100930188    -1.288394911938    -0.827930355467     1.007825032230
         H           -1.207737930188    -2.175682911938    -0.443206355467     1.007825032230
         H           -2.069741930188    -1.300280911938     0.837139644533     1.007825032230
         H            2.561125069812    -0.011240911938     0.584471644533     1.007825032230

  Basis Set: AUG-CC-PVTZ
    Blend: AUG-CC-PVTZ
  Basis Set: (AUG-CC-PVTZ AUX)
    Blend: AUG-CC-PVTZ-JKFIT
	 Reference Energy          =    -628.6196443331853061 [Eh]
	 Singles Energy            =      -0.0000000000000000 [Eh]
	 Same-Spin Energy          =      -0.2923352517225902 [Eh]
	 Opposite-Spin Energy      =      -0.9569396049328113 [Eh]
	 Correlation Energy        =      -1.2492748566554015 [Eh]
	 Total Energy              =    -629.8689191898406534 [Eh]

	 ================> DF-SCS-MP2 Energies <==================
	-----------------------------------------------------------
	 SCS Same-Spin Scale       =       0.3333333333333333 [-]
	 SCS Opposite-Spin Scale   =       1.2000000000000000 [-]
	 SCS Same-Spin Energy      =      -0.0974450839075301 [Eh]
	 SCS Opposite-Spin Energy  =      -1.1483275259193735 [Eh]
	 SCS Correlation Energy    =      -1.2457726098269035 [Eh]
	 SCS Total Energy          =    -629.8654169430121783 [Eh]
	-----------------------------------------------------------

  Dipole Moment: [D]
     X:    -0.5905      Y:     0.0274      Z:    -1.5786     Total:     1.6856

*** Psi4 exiting successfully. Buy a developer a beer!
