                               Psi4 1.4a3.dev225

  ==> Input File <==

--------------------------------------------------------------------------
#psi4
#
memory 32 gb

molecule  {
0 1
  S        1.9015010     0.0014740    -0.5114990
  O        0.3179420    -0.0047964     1.6111496
  C       -0.8837990     0.0013960    -0.4908930
  C       -1.6918460     1.2669440    -0.1967440
  C       -1.6921440    -1.2655900    -0.2038620
  C        0.3503050    -0.0012110     0.3916140
  H       -0.5708550     0.0043180    -1.5417560
  H       -2.5996000     1.2838970    -0.8066260
  H       -1.1130310     2.1686550    -0.4169050
  H       -1.9752560     1.2862630     0.8584890
  H       -2.5999060    -1.2788960    -0.8138230
  H       -1.1135430    -2.1661840    -0.4290990
  H       -1.9755470    -1.2907820     0.8512470
  H        2.6553200    -0.0017420     0.5985790
units angstrom
no_reorient  #important for SAPT in psi4, default
symmetry c1  #important for SAPT in psi4, default
}

set PROPERTIES_ORIGIN ["COM"]
properties('MP2/aug-cc-pvtz', properties = ['dipole'])
--------------------------------------------------------------------------

    Molecular point group: c1
  Charge       = 0
  Multiplicity = 1
  Basis Set: AUG-CC-PVTZ
    Blend: AUG-CC-PVTZ
  Basis Set: (AUG-CC-PVTZ AUX)
    Blend: AUG-CC-PVTZ-JKFIT

    Orbital Energies [Eh]
    ---------------------

    Doubly Occupied:

       1A    -91.981189     2A    -20.560566     3A    -11.369778
       4A    -11.258818     5A    -11.230967     6A    -11.230951
       7A     -8.983246     8A     -6.664417     9A     -6.663339
      10A     -6.662545    11A     -1.398368    12A     -1.104232
      13A     -1.018897    14A     -0.947493    15A     -0.866930
      16A     -0.734498    17A     -0.670145    18A     -0.645583
      19A     -0.600943    20A     -0.598639    21A     -0.559317
      22A     -0.556140    23A     -0.529896    24A     -0.517110
      25A     -0.493285    26A     -0.491417    27A     -0.408661
      28A     -0.393190

  @DF-RHF Final Energy:  -628.63142784590013

   => Energetics <=

    Nuclear Repulsion Energy =            294.9378282118551056
    One-Electron Energy =               -1448.8573979679144941
    Two-Electron Energy =                 525.2881419101593110
    Total Energy =                       -628.6314278459001343
  Basis Set: (AUG-CC-PVTZ AUX)
    Blend: AUG-CC-PVTZ-RI
    Molecular point group: c1

    Geometry (in Angstrom), charge = 0, multiplicity = 1:

       Center              X                  Y                   Z               Mass
    ------------   -----------------  -----------------  -----------------  -----------------
         S            1.810128522760     0.001527358964    -0.527885704947    31.972071174400
         O            0.226569522760    -0.004743041036     1.594762895053    15.994914619570
         C           -0.975171477240     0.001449358964    -0.507279704947    12.000000000000
         C           -1.783218477240     1.266997358964    -0.213130704947    12.000000000000
         C           -1.783516477240    -1.265536641036    -0.220248704947    12.000000000000
         C            0.258932522760    -0.001157641036     0.375227295053    12.000000000000
         H           -0.662227477240     0.004371358964    -1.558142704947     1.007825032230
         H           -2.690972477240     1.283950358964    -0.823012704947     1.007825032230
         H           -1.204403477240     2.168708358964    -0.433291704947     1.007825032230
         H           -2.066628477240     1.286316358964     0.842102295053     1.007825032230
         H           -2.691278477240    -1.278842641036    -0.830209704947     1.007825032230
         H           -1.204915477240    -2.166130641036    -0.445485704947     1.007825032230
         H           -2.066919477240    -1.290728641036     0.834860295053     1.007825032230
         H            2.563947522760    -0.001688641036     0.582192295053     1.007825032230

  Basis Set: AUG-CC-PVTZ
    Blend: AUG-CC-PVTZ
  Basis Set: (AUG-CC-PVTZ AUX)
    Blend: AUG-CC-PVTZ-JKFIT
	 Reference Energy          =    -628.6314278459001343 [Eh]
	 Singles Energy            =      -0.0000000000000000 [Eh]
	 Same-Spin Energy          =      -0.2911916177691432 [Eh]
	 Opposite-Spin Energy      =      -0.9554743911926213 [Eh]
	 Correlation Energy        =      -1.2466660089617645 [Eh]
	 Total Energy              =    -629.8780938548618451 [Eh]

	 ================> DF-SCS-MP2 Energies <==================
	-----------------------------------------------------------
	 SCS Same-Spin Scale       =       0.3333333333333333 [-]
	 SCS Opposite-Spin Scale   =       1.2000000000000000 [-]
	 SCS Same-Spin Energy      =      -0.0970638725897144 [Eh]
	 SCS Opposite-Spin Energy  =      -1.1465692694311456 [Eh]
	 SCS Correlation Energy    =      -1.2436331420208599 [Eh]
	 SCS Total Energy          =    -629.8750609879209605 [Eh]
	-----------------------------------------------------------

  Dipole Moment: [D]
     X:    -0.7056      Y:     0.0048      Z:    -1.5937     Total:     1.7430

*** Psi4 exiting successfully. Buy a developer a beer!
