                               Psi4 1.4a3.dev225

  ==> Input File <==

--------------------------------------------------------------------------
#psi4
#
memory 32 gb

molecule  {
0 1
  S        1.9015010     0.0014740    -0.5114990
  O        0.2966630    -0.0047940     1.6103990
  C       -0.8837990     0.0013960    -0.4908930
  C       -1.6918460     1.2669440    -0.1967440
  C       -1.6921440    -1.2655900    -0.2038620
  C        0.3503050    -0.0012110     0.3916140
  H       -0.5708550     0.0043180    -1.5417560
  H       -2.6189586     1.2172187    -0.7748879
  H       -1.1130310     2.1686550    -0.4169050
  H       -1.9752560     1.2862630     0.8584890
  H       -2.5999060    -1.2788960    -0.8138230
  H       -1.1135430    -2.1661840    -0.4290990
  H       -1.9755470    -1.2907820     0.8512470
  H        2.6553200    -0.0017420     0.5985790
units angstrom
no_reorient  #important for SAPT in psi4, default
symmetry c1  #important for SAPT in psi4, default
}

set PROPERTIES_ORIGIN ["COM"]
properties('MP2/aug-cc-pvtz', properties = ['dipole'])
--------------------------------------------------------------------------

    Molecular point group: c1
  Charge       = 0
  Multiplicity = 1
  Basis Set: AUG-CC-PVTZ
    Blend: AUG-CC-PVTZ
  Basis Set: (AUG-CC-PVTZ AUX)
    Blend: AUG-CC-PVTZ-JKFIT

    Orbital Energies [Eh]
    ---------------------

    Doubly Occupied:

       1A    -91.982310     2A    -20.560205     3A    -11.369223
       4A    -11.257493     5A    -11.230567     6A    -11.230517
       7A     -8.984310     8A     -6.665482     9A     -6.664389
      10A     -6.663600    11A     -1.398017    12A     -1.103747
      13A     -1.019772    14A     -0.946727    15A     -0.866477
      16A     -0.733883    17A     -0.669312    18A     -0.645988
      19A     -0.603025    20A     -0.597634    21A     -0.559343
      22A     -0.554053    23A     -0.530761    24A     -0.516399
      25A     -0.492978    26A     -0.490057    27A     -0.408864
      28A     -0.394064

  @DF-RHF Final Energy:  -628.63075957779961

   => Energetics <=

    Nuclear Repulsion Energy =            295.0459642988677160
    One-Electron Energy =               -1449.0750545073635749
    Two-Electron Energy =                 525.3983306306961367
    Total Energy =                       -628.6307595777996085
  Basis Set: (AUG-CC-PVTZ AUX)
    Blend: AUG-CC-PVTZ-RI
    Molecular point group: c1

    Geometry (in Angstrom), charge = 0, multiplicity = 1:

       Center              X                  Y                   Z               Mass
    ------------   -----------------  -----------------  -----------------  -----------------
         S            1.813587787412     0.002172960611    -0.528077772122    31.972071174400
         O            0.208749787412    -0.004095039389     1.593820227878    15.994914619570
         C           -0.971712212588     0.002094960611    -0.507471772122    12.000000000000
         C           -1.779759212588     1.267642960611    -0.213322772122    12.000000000000
         C           -1.780057212588    -1.264891039389    -0.220440772122    12.000000000000
         C            0.262391787412    -0.000512039389     0.375035227878    12.000000000000
         H           -0.658768212588     0.005016960611    -1.558334772122     1.007825032230
         H           -2.706871812588     1.217917660611    -0.791466672122     1.007825032230
         H           -1.200944212588     2.169353960611    -0.433483772122     1.007825032230
         H           -2.063169212588     1.286961960611     0.841910227878     1.007825032230
         H           -2.687819212588    -1.278197039389    -0.830401772122     1.007825032230
         H           -1.201456212588    -2.165485039389    -0.445677772122     1.007825032230
         H           -2.063460212588    -1.290083039389     0.834668227878     1.007825032230
         H            2.567406787412    -0.001043039389     0.582000227878     1.007825032230

  Basis Set: AUG-CC-PVTZ
    Blend: AUG-CC-PVTZ
  Basis Set: (AUG-CC-PVTZ AUX)
    Blend: AUG-CC-PVTZ-JKFIT
	 Reference Energy          =    -628.6307595777996085 [Eh]
	 Singles Energy            =      -0.0000000000000000 [Eh]
	 Same-Spin Energy          =      -0.2913121614675738 [Eh]
	 Opposite-Spin Energy      =      -0.9556764155558884 [Eh]
	 Correlation Energy        =      -1.2469885770234623 [Eh]
	 Total Energy              =    -629.8777481548230526 [Eh]

	 ================> DF-SCS-MP2 Energies <==================
	-----------------------------------------------------------
	 SCS Same-Spin Scale       =       0.3333333333333333 [-]
	 SCS Opposite-Spin Scale   =       1.2000000000000000 [-]
	 SCS Same-Spin Energy      =      -0.0971040538225246 [Eh]
	 SCS Opposite-Spin Energy  =      -1.1468116986670660 [Eh]
	 SCS Correlation Energy    =      -1.2439157524895905 [Eh]
	 SCS Total Energy          =    -629.8746753302891648 [Eh]
	-----------------------------------------------------------

  Dipole Moment: [D]
     X:    -0.6457      Y:    -0.0137      Z:    -1.5815     Total:     1.7083

*** Psi4 exiting successfully. Buy a developer a beer!
