                               Psi4 1.4a3.dev225

  ==> Input File <==

--------------------------------------------------------------------------
#psi4
#
memory 32 gb

molecule  {
0 1
  S        1.9015010     0.0014740    -0.5114990
  O        0.2966630    -0.0047940     1.6103990
  C       -0.8837990     0.0013960    -0.4908930
  C       -1.6918460     1.2669440    -0.1967440
  C       -1.6921440    -1.2655900    -0.2038620
  C        0.3665734    -0.0012454     0.4032475
  H       -0.5708550     0.0043180    -1.5417560
  H       -2.5996000     1.2838970    -0.8066260
  H       -1.1130310     2.1686550    -0.4169050
  H       -1.9752560     1.2862630     0.8584890
  H       -2.5999060    -1.2788960    -0.8138230
  H       -1.1135430    -2.1661840    -0.4290990
  H       -1.9755470    -1.2907820     0.8512470
  H        2.6553200    -0.0017420     0.5985790
units angstrom
no_reorient  #important for SAPT in psi4, default
symmetry c1  #important for SAPT in psi4, default
}

set PROPERTIES_ORIGIN ["COM"]
properties('MP2/aug-cc-pvtz', properties = ['dipole'])
--------------------------------------------------------------------------

    Molecular point group: c1
  Charge       = 0
  Multiplicity = 1
  Basis Set: AUG-CC-PVTZ
    Blend: AUG-CC-PVTZ
  Basis Set: (AUG-CC-PVTZ AUX)
    Blend: AUG-CC-PVTZ-JKFIT

    Orbital Energies [Eh]
    ---------------------

    Doubly Occupied:

       1A    -91.982896     2A    -20.561105     3A    -11.367933
       4A    -11.257430     5A    -11.229170     6A    -11.229154
       7A     -8.985060     8A     -6.666231     9A     -6.665118
      10A     -6.664317    11A     -1.405424    12A     -1.099877
      13A     -1.021951    14A     -0.945631    15A     -0.861950
      16A     -0.733923    17A     -0.669712    18A     -0.646776
      19A     -0.601870    20A     -0.598028    21A     -0.560361
      22A     -0.555195    23A     -0.530754    24A     -0.516355
      25A     -0.491785    26A     -0.490814    27A     -0.407438
      28A     -0.395407

  @DF-RHF Final Energy:  -628.63216651543803

   => Energetics <=

    Nuclear Repulsion Energy =            294.9984937532877893
    One-Electron Energy =               -1448.9779889296748934
    Two-Electron Energy =                 525.3473286609489605
    Total Energy =                       -628.6321665154380298
  Basis Set: (AUG-CC-PVTZ AUX)
    Blend: AUG-CC-PVTZ-RI
    Molecular point group: c1

    Geometry (in Angstrom), charge = 0, multiplicity = 1:

       Center              X                  Y                   Z               Mass
    ------------   -----------------  -----------------  -----------------  -----------------
         S            1.811523654604     0.001530958058    -0.529112242723    31.972071174400
         O            0.206685654604    -0.004737041942     1.592785757277    15.994914619570
         C           -0.973776345396     0.001452958058    -0.508506242723    12.000000000000
         C           -1.781823345396     1.267000958058    -0.214357242723    12.000000000000
         C           -1.782121345396    -1.265533041942    -0.221475242723    12.000000000000
         C            0.276596054604    -0.001188441942     0.385634257277    12.000000000000
         H           -0.660832345396     0.004374958058    -1.559369242723     1.007825032230
         H           -2.689577345396     1.283953958058    -0.824239242723     1.007825032230
         H           -1.203008345396     2.168711958058    -0.434518242723     1.007825032230
         H           -2.065233345396     1.286319958058     0.840875757277     1.007825032230
         H           -2.689883345396    -1.278839041942    -0.831436242723     1.007825032230
         H           -1.203520345396    -2.166127041942    -0.446712242723     1.007825032230
         H           -2.065524345396    -1.290725041942     0.833633757277     1.007825032230
         H            2.565342654604    -0.001685041942     0.580965757277     1.007825032230

  Basis Set: AUG-CC-PVTZ
    Blend: AUG-CC-PVTZ
  Basis Set: (AUG-CC-PVTZ AUX)
    Blend: AUG-CC-PVTZ-JKFIT
	 Reference Energy          =    -628.6321665154380298 [Eh]
	 Singles Energy            =      -0.0000000000000000 [Eh]
	 Same-Spin Energy          =      -0.2909102963861709 [Eh]
	 Opposite-Spin Energy      =      -0.9549002495819512 [Eh]
	 Correlation Energy        =      -1.2458105459681221 [Eh]
	 Total Energy              =    -629.8779770614061135 [Eh]

	 ================> DF-SCS-MP2 Energies <==================
	-----------------------------------------------------------
	 SCS Same-Spin Scale       =       0.3333333333333333 [-]
	 SCS Opposite-Spin Scale   =       1.2000000000000000 [-]
	 SCS Same-Spin Energy      =      -0.0969700987953903 [Eh]
	 SCS Opposite-Spin Energy  =      -1.1458802994983415 [Eh]
	 SCS Correlation Energy    =      -1.2428503982937318 [Eh]
	 SCS Total Energy          =    -629.8750169137317698 [Eh]
	-----------------------------------------------------------

  Dipole Moment: [D]
     X:    -0.5458      Y:     0.0047      Z:    -1.5696     Total:     1.6618

*** Psi4 exiting successfully. Buy a developer a beer!
