                               Psi4 1.4a3.dev225

  ==> Input File <==

--------------------------------------------------------------------------
#psi4
#
memory 32 gb

molecule  {
0 1
  S        1.9015010     0.0014740    -0.5114990
  O        0.2966630    -0.0047940     1.6103990
  C       -0.8837990     0.0013960    -0.4908930
  C       -1.6918460     1.2669440    -0.1967440
  C       -1.6921440    -1.2655900    -0.2038620
  C        0.3503050    -0.0012110     0.3916140
  H       -0.5708550     0.0043180    -1.5417560
  H       -2.5996000     1.2838970    -0.8066260
  H       -1.1130310     2.1686550    -0.4169050
  H       -1.9752560     1.2862630     0.8584890
  H       -2.5999060    -1.2788960    -0.8138230
  H       -1.1154762    -2.1717643    -0.4109437
  H       -1.9755470    -1.2907820     0.8512470
  H        2.6553200    -0.0017420     0.5985790
units angstrom
no_reorient  #important for SAPT in psi4, default
symmetry c1  #important for SAPT in psi4, default
}

set PROPERTIES_ORIGIN ["COM"]
properties('MP2/aug-cc-pvtz', properties = ['dipole'])
--------------------------------------------------------------------------

    Molecular point group: c1
  Charge       = 0
  Multiplicity = 1
  Basis Set: AUG-CC-PVTZ
    Blend: AUG-CC-PVTZ
  Basis Set: (AUG-CC-PVTZ AUX)
    Blend: AUG-CC-PVTZ-JKFIT

    Orbital Energies [Eh]
    ---------------------

    Doubly Occupied:

       1A    -91.982457     2A    -20.560455     3A    -11.369561
       4A    -11.257998     5A    -11.230429     6A    -11.230296
       7A     -8.984450     8A     -6.665621     9A     -6.664530
      10A     -6.663739    11A     -1.398254    12A     -1.103415
      13A     -1.019756    14A     -0.946912    15A     -0.866536
      16A     -0.734173    17A     -0.670000    18A     -0.645765
      19A     -0.600643    20A     -0.598285    21A     -0.558888
      22A     -0.554927    23A     -0.529804    24A     -0.517041
      25A     -0.492514    26A     -0.491034    27A     -0.409173
      28A     -0.394156

  @DF-RHF Final Energy:  -628.63134253791657

   => Energetics <=

    Nuclear Repulsion Energy =            294.9737331655754815
    One-Electron Energy =               -1448.9285246127028586
    Two-Electron Energy =                 525.3234489092106969
    Total Energy =                       -628.6313425379165665
  Basis Set: (AUG-CC-PVTZ AUX)
    Blend: AUG-CC-PVTZ-RI
    Molecular point group: c1

    Geometry (in Angstrom), charge = 0, multiplicity = 1:

       Center              X                  Y                   Z               Mass
    ------------   -----------------  -----------------  -----------------  -----------------
         S            1.813418972415     0.001581051173    -0.527946183731    31.972071174400
         O            0.208580972415    -0.004686948827     1.593951816269    15.994914619570
         C           -0.971881027585     0.001503051173    -0.507340183731    12.000000000000
         C           -1.779928027585     1.267051051173    -0.213191183731    12.000000000000
         C           -1.780226027585    -1.265482948827    -0.220309183731    12.000000000000
         C            0.262222972415    -0.001103948827     0.375166816269    12.000000000000
         H           -0.658937027585     0.004425051173    -1.558203183731     1.007825032230
         H           -2.687682027585     1.284004051173    -0.823073183731     1.007825032230
         H           -1.201113027585     2.168762051173    -0.433352183731     1.007825032230
         H           -2.063338027585     1.286370051173     0.842041816269     1.007825032230
         H           -2.687988027585    -1.278788948827    -0.830270183731     1.007825032230
         H           -1.203558227585    -2.171657248827    -0.427390883731     1.007825032230
         H           -2.063629027585    -1.290674948827     0.834799816269     1.007825032230
         H            2.567237972415    -0.001634948827     0.582131816269     1.007825032230

  Basis Set: AUG-CC-PVTZ
    Blend: AUG-CC-PVTZ
  Basis Set: (AUG-CC-PVTZ AUX)
    Blend: AUG-CC-PVTZ-JKFIT
	 Reference Energy          =    -628.6313425379165665 [Eh]
	 Singles Energy            =      -0.0000000000000000 [Eh]
	 Same-Spin Energy          =      -0.2912315511990438 [Eh]
	 Opposite-Spin Energy      =      -0.9555518576050958 [Eh]
	 Correlation Energy        =      -1.2467834088041396 [Eh]
	 Total Energy              =    -629.8781259467207292 [Eh]

	 ================> DF-SCS-MP2 Energies <==================
	-----------------------------------------------------------
	 SCS Same-Spin Scale       =       0.3333333333333333 [-]
	 SCS Opposite-Spin Scale   =       1.2000000000000000 [-]
	 SCS Same-Spin Energy      =      -0.0970771837330146 [Eh]
	 SCS Opposite-Spin Energy  =      -1.1466622291261148 [Eh]
	 SCS Correlation Energy    =      -1.2437394128591295 [Eh]
	 SCS Total Energy          =    -629.8750819507756660 [Eh]
	-----------------------------------------------------------

  Dipole Moment: [D]
     X:    -0.6371      Y:     0.0040      Z:    -1.5919     Total:     1.7147

*** Psi4 exiting successfully. Buy a developer a beer!
