                               Psi4 1.4a3.dev225

  ==> Input File <==

--------------------------------------------------------------------------
#psi4
#
memory 32 gb

molecule  {
0 1
  S        1.9015010     0.0014740    -0.5114990
  O        0.2966630    -0.0047940     1.6103990
  C       -0.8837990     0.0013960    -0.4908930
  C       -1.6918460     1.2669440    -0.1967440
  C       -1.6921440    -1.2655900    -0.2038620
  C        0.4316469    -0.0013828     0.4497816
  H       -0.5708550     0.0043180    -1.5417560
  H       -2.5996000     1.2838970    -0.8066260
  H       -1.1130310     2.1686550    -0.4169050
  H       -1.9752560     1.2862630     0.8584890
  H       -2.5999060    -1.2788960    -0.8138230
  H       -1.1135430    -2.1661840    -0.4290990
  H       -1.9755470    -1.2907820     0.8512470
  H        2.6553200    -0.0017420     0.5985790
units angstrom
no_reorient  #important for SAPT in psi4, default
symmetry c1  #important for SAPT in psi4, default
}

set PROPERTIES_ORIGIN ["COM"]
properties('MP2/aug-cc-pvtz', properties = ['dipole'])
--------------------------------------------------------------------------

    Molecular point group: c1
  Charge       = 0
  Multiplicity = 1
  Basis Set: AUG-CC-PVTZ
    Blend: AUG-CC-PVTZ
  Basis Set: (AUG-CC-PVTZ AUX)
    Blend: AUG-CC-PVTZ-JKFIT

    Orbital Energies [Eh]
    ---------------------

    Doubly Occupied:

       1A    -91.985178     2A    -20.563681     3A    -11.362143
       4A    -11.254287     5A    -11.224651     6A    -11.224635
       7A     -8.987962     8A     -6.669128     9A     -6.667921
      10A     -6.667072    11A     -1.433941    12A     -1.087643
      13A     -1.030670    14A     -0.940652    15A     -0.844800
      16A     -0.734198    17A     -0.669321    18A     -0.652058
      19A     -0.604986    20A     -0.600137    21A     -0.565527
      22A     -0.554112    23A     -0.535212    24A     -0.516316
      25A     -0.488954    26A     -0.487417    27A     -0.400545
      28A     -0.395860

  @DF-RHF Final Energy:  -628.62645284710936

   => Energetics <=

    Nuclear Repulsion Energy =            295.0959432602574566
    One-Electron Energy =               -1449.1467767592166638
    Two-Electron Energy =                 525.4243806518499014
    Total Energy =                       -628.6264528471093627
  Basis Set: (AUG-CC-PVTZ AUX)
    Blend: AUG-CC-PVTZ-RI
    Molecular point group: c1

    Geometry (in Angstrom), charge = 0, multiplicity = 1:

       Center              X                  Y                   Z               Mass
    ------------   -----------------  -----------------  -----------------  -----------------
         S            1.804017309249     0.001546807395    -0.534480034917    31.972071174400
         O            0.199179309249    -0.004721192605     1.587417965083    15.994914619570
         C           -0.981282690751     0.001468807395    -0.513874034917    12.000000000000
         C           -1.789329690751     1.267016807395    -0.219725034917    12.000000000000
         C           -1.789627690751    -1.265517192605    -0.226843034917    12.000000000000
         C            0.334163209249    -0.001309992605     0.426800565083    12.000000000000
         H           -0.668338690751     0.004390807395    -1.564737034917     1.007825032230
         H           -2.697083690751     1.283969807395    -0.829607034917     1.007825032230
         H           -1.210514690751     2.168727807395    -0.439886034917     1.007825032230
         H           -2.072739690751     1.286335807395     0.835507965083     1.007825032230
         H           -2.697389690751    -1.278823192605    -0.836804034917     1.007825032230
         H           -1.211026690751    -2.166111192605    -0.452080034917     1.007825032230
         H           -2.073030690751    -1.290709192605     0.828265965083     1.007825032230
         H            2.557836309249    -0.001669192605     0.575597965083     1.007825032230

  Basis Set: AUG-CC-PVTZ
    Blend: AUG-CC-PVTZ
  Basis Set: (AUG-CC-PVTZ AUX)
    Blend: AUG-CC-PVTZ-JKFIT
	 Reference Energy          =    -628.6264528471093627 [Eh]
	 Singles Energy            =      -0.0000000000000000 [Eh]
	 Same-Spin Energy          =      -0.2900378650374769 [Eh]
	 Opposite-Spin Energy      =      -0.9530238145867784 [Eh]
	 Correlation Energy        =      -1.2430616796242553 [Eh]
	 Total Energy              =    -629.8695145267336102 [Eh]

	 ================> DF-SCS-MP2 Energies <==================
	-----------------------------------------------------------
	 SCS Same-Spin Scale       =       0.3333333333333333 [-]
	 SCS Opposite-Spin Scale   =       1.2000000000000000 [-]
	 SCS Same-Spin Energy      =      -0.0966792883458256 [Eh]
	 SCS Opposite-Spin Energy  =      -1.1436285775041342 [Eh]
	 SCS Correlation Energy    =      -1.2403078658499598 [Eh]
	 SCS Total Energy          =    -629.8667607129593762 [Eh]
	-----------------------------------------------------------

  Dipole Moment: [D]
     X:    -0.1736      Y:     0.0043      Z:    -1.4509     Total:     1.4613

*** Psi4 exiting successfully. Buy a developer a beer!
