                               Psi4 1.4a3.dev225

  ==> Input File <==

--------------------------------------------------------------------------
#psi4
#
memory 32 gb

molecule  {
0 1
  S        1.9015010     0.0014740    -0.5114990
  O        0.2966630    -0.0047940     1.6103990
  C       -0.9986419     0.0408918    -0.5952978
  C       -1.6918460     1.2669440    -0.1967440
  C       -1.6921440    -1.2655900    -0.2038620
  C        0.3503050    -0.0012110     0.3916140
  H       -0.5708550     0.0043180    -1.5417560
  H       -2.5996000     1.2838970    -0.8066260
  H       -1.1130310     2.1686550    -0.4169050
  H       -1.9752560     1.2862630     0.8584890
  H       -2.5999060    -1.2788960    -0.8138230
  H       -1.1135430    -2.1661840    -0.4290990
  H       -1.9755470    -1.2907820     0.8512470
  H        2.6553200    -0.0017420     0.5985790
units angstrom
no_reorient  #important for SAPT in psi4, default
symmetry c1  #important for SAPT in psi4, default
}

set PROPERTIES_ORIGIN ["COM"]
properties('MP2/aug-cc-pvtz', properties = ['dipole'])
--------------------------------------------------------------------------

    Molecular point group: c1
  Charge       = 0
  Multiplicity = 1
  Basis Set: AUG-CC-PVTZ
    Blend: AUG-CC-PVTZ
  Basis Set: (AUG-CC-PVTZ AUX)
    Blend: AUG-CC-PVTZ-JKFIT

    Orbital Energies [Eh]
    ---------------------

    Doubly Occupied:

       1A    -91.980030     2A    -20.560281     3A    -11.368232
       4A    -11.262483     5A    -11.230431     6A    -11.227501
       7A     -8.982104     8A     -6.663283     9A     -6.662179
      10A     -6.661393    11A     -1.394016    12A     -1.103498
      13A     -1.017726    14A     -0.953077    15A     -0.846232
      16A     -0.740096    17A     -0.663856    18A     -0.646390
      19A     -0.608225    20A     -0.589973    21A     -0.564866
      22A     -0.556021    23A     -0.531516    24A     -0.519705
      25A     -0.503708    26A     -0.492897    27A     -0.392383
      28A     -0.384516

  @DF-RHF Final Energy:  -628.61012261590622

   => Energetics <=

    Nuclear Repulsion Energy =            293.3039135733304761
    One-Electron Energy =               -1445.6148330356732004
    Two-Electron Energy =                 523.7007968464365604
    Total Energy =                       -628.6101226159062207
  Basis Set: (AUG-CC-PVTZ AUX)
    Blend: AUG-CC-PVTZ-RI
    Molecular point group: c1

    Geometry (in Angstrom), charge = 0, multiplicity = 1:

       Center              X                  Y                   Z               Mass
    ------------   -----------------  -----------------  -----------------  -----------------
         S            1.826647579053    -0.003028921665    -0.515727015954    31.972071174400
         O            0.221809579053    -0.009296921665     1.606170984046    15.994914619570
         C           -1.073495320947     0.036388878335    -0.599525815954    12.000000000000
         C           -1.766699420947     1.262441078335    -0.200972015954    12.000000000000
         C           -1.766997420947    -1.270092921665    -0.208090015954    12.000000000000
         C            0.275451579053    -0.005713921665     0.387385984046    12.000000000000
         H           -0.645708420947    -0.000184921665    -1.545984015954     1.007825032230
         H           -2.674453420947     1.279394078335    -0.810854015954     1.007825032230
         H           -1.187884420947     2.164152078335    -0.421133015954     1.007825032230
         H           -2.050109420947     1.281760078335     0.854260984046     1.007825032230
         H           -2.674759420947    -1.283398921665    -0.818051015954     1.007825032230
         H           -1.188396420947    -2.170686921665    -0.433327015954     1.007825032230
         H           -2.050400420947    -1.295284921665     0.847018984046     1.007825032230
         H            2.580466579053    -0.006244921665     0.594350984046     1.007825032230

  Basis Set: AUG-CC-PVTZ
    Blend: AUG-CC-PVTZ
  Basis Set: (AUG-CC-PVTZ AUX)
    Blend: AUG-CC-PVTZ-JKFIT
	 Reference Energy          =    -628.6101226159062207 [Eh]
	 Singles Energy            =      -0.0000000000000000 [Eh]
	 Same-Spin Energy          =      -0.2918753759037465 [Eh]
	 Opposite-Spin Energy      =      -0.9566534258503359 [Eh]
	 Correlation Energy        =      -1.2485288017540823 [Eh]
	 Total Energy              =    -629.8586514176603259 [Eh]

	 ================> DF-SCS-MP2 Energies <==================
	-----------------------------------------------------------
	 SCS Same-Spin Scale       =       0.3333333333333333 [-]
	 SCS Opposite-Spin Scale   =       1.2000000000000000 [-]
	 SCS Same-Spin Energy      =      -0.0972917919679155 [Eh]
	 SCS Opposite-Spin Energy  =      -1.1479841110204030 [Eh]
	 SCS Correlation Energy    =      -1.2452759029883185 [Eh]
	 SCS Total Energy          =    -629.8553985188945035 [Eh]
	-----------------------------------------------------------

  Dipole Moment: [D]
     X:    -0.5942      Y:     0.0354      Z:    -1.5452     Total:     1.6559

*** Psi4 exiting successfully. Buy a developer a beer!
