                               Psi4 1.4a3.dev225

  ==> Input File <==

--------------------------------------------------------------------------
#psi4
#
memory 32 gb

molecule  {
0 1
  S        1.9015010     0.0014740    -0.5114990
  O        0.2966630    -0.0047940     1.6103990
  C       -0.8837990     0.0013960    -0.4908930
  C       -1.6918460     1.2669440    -0.1967440
  C       -1.6921440    -1.2655900    -0.2038620
  C        0.3481065    -0.0013578     0.4415654
  H       -0.5708550     0.0043180    -1.5417560
  H       -2.5996000     1.2838970    -0.8066260
  H       -1.1130310     2.1686550    -0.4169050
  H       -1.9752560     1.2862630     0.8584890
  H       -2.5999060    -1.2788960    -0.8138230
  H       -1.1135430    -2.1661840    -0.4290990
  H       -1.9755470    -1.2907820     0.8512470
  H        2.6553200    -0.0017420     0.5985790
units angstrom
no_reorient  #important for SAPT in psi4, default
symmetry c1  #important for SAPT in psi4, default
}

set PROPERTIES_ORIGIN ["COM"]
properties('MP2/aug-cc-pvtz', properties = ['dipole'])
--------------------------------------------------------------------------

    Molecular point group: c1
  Charge       = 0
  Multiplicity = 1
  Basis Set: AUG-CC-PVTZ
    Blend: AUG-CC-PVTZ
  Basis Set: (AUG-CC-PVTZ AUX)
    Blend: AUG-CC-PVTZ-JKFIT

    Orbital Energies [Eh]
    ---------------------

    Doubly Occupied:

       1A    -91.975747     2A    -20.568158     3A    -11.366687
       4A    -11.257799     5A    -11.229809     6A    -11.229793
       7A     -8.977680     8A     -6.658825     9A     -6.657705
      10A     -6.656907    11A     -1.437013    12A     -1.099466
      13A     -1.011103    14A     -0.946585    15A     -0.859563
      16A     -0.737967    17A     -0.676819    18A     -0.651109
      19A     -0.606045    20A     -0.604105    21A     -0.563793
      22A     -0.558511    23A     -0.537442    24A     -0.517985
      25A     -0.493602    26A     -0.491594    27A     -0.399927
      28A     -0.391658

  @DF-RHF Final Energy:  -628.63263559236918

   => Energetics <=

    Nuclear Repulsion Energy =            295.1098993156880965
    One-Electron Energy =               -1449.1582753489312836
    Two-Electron Energy =                 525.4157404408739467
    Total Energy =                       -628.6326355923691835
  Basis Set: (AUG-CC-PVTZ AUX)
    Blend: AUG-CC-PVTZ-RI
    Molecular point group: c1

    Geometry (in Angstrom), charge = 0, multiplicity = 1:

       Center              X                  Y                   Z               Mass
    ------------   -----------------  -----------------  -----------------  -----------------
         S            1.813653844758     0.001543923600    -0.533532281458    31.972071174400
         O            0.208815844758    -0.004724076400     1.588365718542    15.994914619570
         C           -0.971646155242     0.001465923600    -0.512926281458    12.000000000000
         C           -1.779693155242     1.267013923600    -0.218777281458    12.000000000000
         C           -1.779991155242    -1.265520076400    -0.225895281458    12.000000000000
         C            0.260259344758    -0.001287876400     0.419532118542    12.000000000000
         H           -0.658702155242     0.004387923600    -1.563789281458     1.007825032230
         H           -2.687447155242     1.283966923600    -0.828659281458     1.007825032230
         H           -1.200878155242     2.168724923600    -0.438938281458     1.007825032230
         H           -2.063103155242     1.286332923600     0.836455718542     1.007825032230
         H           -2.687753155242    -1.278826076400    -0.835856281458     1.007825032230
         H           -1.201390155242    -2.166114076400    -0.451132281458     1.007825032230
         H           -2.063394155242    -1.290712076400     0.829213718542     1.007825032230
         H            2.567472844758    -0.001672076400     0.576545718542     1.007825032230

  Basis Set: AUG-CC-PVTZ
    Blend: AUG-CC-PVTZ
  Basis Set: (AUG-CC-PVTZ AUX)
    Blend: AUG-CC-PVTZ-JKFIT
	 Reference Energy          =    -628.6326355923691835 [Eh]
	 Singles Energy            =      -0.0000000000000000 [Eh]
	 Same-Spin Energy          =      -0.2899677333681107 [Eh]
	 Opposite-Spin Energy      =      -0.9529143087573850 [Eh]
	 Correlation Energy        =      -1.2428820421254958 [Eh]
	 Total Energy              =    -629.8755176344947131 [Eh]

	 ================> DF-SCS-MP2 Energies <==================
	-----------------------------------------------------------
	 SCS Same-Spin Scale       =       0.3333333333333333 [-]
	 SCS Opposite-Spin Scale   =       1.2000000000000000 [-]
	 SCS Same-Spin Energy      =      -0.0966559111227036 [Eh]
	 SCS Opposite-Spin Energy  =      -1.1434971705088619 [Eh]
	 SCS Correlation Energy    =      -1.2401530816315653 [Eh]
	 SCS Total Energy          =    -629.8727886740007307 [Eh]
	-----------------------------------------------------------

  Dipole Moment: [D]
     X:    -0.8308      Y:     0.0040      Z:    -1.3160     Total:     1.5563

*** Psi4 exiting successfully. Buy a developer a beer!
