                               Psi4 1.4a3.dev225

  ==> Input File <==

--------------------------------------------------------------------------
#psi4
#
memory 32 gb

molecule  {
0 1
  S        1.9015010     0.0014740    -0.5114990
  O        0.2966630    -0.0047940     1.6103990
  C       -0.8837990     0.0013960    -0.4908930
  C       -1.6918460     1.2669440    -0.1967440
  C       -1.6921440    -1.2655900    -0.2038620
  C        0.3503050    -0.0012110     0.3916140
  H       -0.5708550     0.0043180    -1.5417560
  H       -2.5996000     1.2838970    -0.8066260
  H       -1.1130310     2.1686550    -0.4169050
  H       -1.9752560     1.2862630     0.8584890
  H       -2.5999060    -1.2788960    -0.8138230
  H       -1.1135430    -2.1661840    -0.4290990
  H       -1.9755470    -1.2907820     0.8512470
  H        2.6272309    -0.0016222     0.5572149
units angstrom
no_reorient  #important for SAPT in psi4, default
symmetry c1  #important for SAPT in psi4, default
}

set PROPERTIES_ORIGIN ["COM"]
properties('MP2/aug-cc-pvtz', properties = ['dipole'])
--------------------------------------------------------------------------

    Molecular point group: c1
  Charge       = 0
  Multiplicity = 1
  Basis Set: AUG-CC-PVTZ
    Blend: AUG-CC-PVTZ
  Basis Set: (AUG-CC-PVTZ AUX)
    Blend: AUG-CC-PVTZ-JKFIT

    Orbital Energies [Eh]
    ---------------------

    Doubly Occupied:

       1A    -91.978905     2A    -20.560732     3A    -11.369644
       4A    -11.257751     5A    -11.230337     6A    -11.230321
       7A     -8.982273     8A     -6.663552     9A     -6.662365
      10A     -6.661498    11A     -1.398502    12A     -1.103613
      13A     -1.024978    14A     -0.946895    15A     -0.868464
      16A     -0.734889    17A     -0.672026    18A     -0.647079
      19A     -0.602414    20A     -0.598387    21A     -0.559868
      22A     -0.555689    23A     -0.529383    24A     -0.519448
      25A     -0.493447    26A     -0.490747    27A     -0.409373
      28A     -0.394602

  @DF-RHF Final Energy:  -628.63061359386643

   => Energetics <=

    Nuclear Repulsion Energy =            295.2740220009737868
    One-Electron Energy =               -1449.5149043548469763
    Two-Electron Energy =                 525.6102687600066474
    Total Energy =                       -628.6306135938664283
  Basis Set: (AUG-CC-PVTZ AUX)
    Blend: AUG-CC-PVTZ-RI
    Molecular point group: c1

    Geometry (in Angstrom), charge = 0, multiplicity = 1:

       Center              X                  Y                   Z               Mass
    ------------   -----------------  -----------------  -----------------  -----------------
         S            1.813672367355     0.001525829349    -0.527369567564    31.972071174400
         O            0.208834367355    -0.004742170651     1.594528432436    15.994914619570
         C           -0.971627632645     0.001447829349    -0.506763567564    12.000000000000
         C           -1.779674632645     1.266995829349    -0.212614567564    12.000000000000
         C           -1.779972632645    -1.265538170651    -0.219732567564    12.000000000000
         C            0.262476367355    -0.001159170651     0.375743432436    12.000000000000
         H           -0.658683632645     0.004369829349    -1.557626567564     1.007825032230
         H           -2.687428632645     1.283948829349    -0.822496567564     1.007825032230
         H           -1.200859632645     2.168706829349    -0.432775567564     1.007825032230
         H           -2.063084632645     1.286314829349     0.842618432436     1.007825032230
         H           -2.687734632645    -1.278844170651    -0.829693567564     1.007825032230
         H           -1.201371632645    -2.166132170651    -0.444969567564     1.007825032230
         H           -2.063375632645    -1.290730170651     0.835376432436     1.007825032230
         H            2.539402267355    -0.001570370651     0.541344332436     1.007825032230

  Basis Set: AUG-CC-PVTZ
    Blend: AUG-CC-PVTZ
  Basis Set: (AUG-CC-PVTZ AUX)
    Blend: AUG-CC-PVTZ-JKFIT
	 Reference Energy          =    -628.6306135938664283 [Eh]
	 Singles Energy            =      -0.0000000000000000 [Eh]
	 Same-Spin Energy          =      -0.2911986529093006 [Eh]
	 Opposite-Spin Energy      =      -0.9553132899994552 [Eh]
	 Correlation Energy        =      -1.2465119429087559 [Eh]
	 Total Energy              =    -629.8771255367752246 [Eh]

	 ================> DF-SCS-MP2 Energies <==================
	-----------------------------------------------------------
	 SCS Same-Spin Scale       =       0.3333333333333333 [-]
	 SCS Opposite-Spin Scale   =       1.2000000000000000 [-]
	 SCS Same-Spin Energy      =      -0.0970662176364335 [Eh]
	 SCS Opposite-Spin Energy  =      -1.1463759479993463 [Eh]
	 SCS Correlation Energy    =      -1.2434421656357797 [Eh]
	 SCS Total Energy          =    -629.8740557595021983 [Eh]
	-----------------------------------------------------------

  Dipole Moment: [D]
     X:    -0.6462      Y:     0.0048      Z:    -1.6088     Total:     1.7337

*** Psi4 exiting successfully. Buy a developer a beer!
