                               Psi4 1.4a3.dev225

  ==> Input File <==

--------------------------------------------------------------------------
#psi4
#
memory 32 gb

molecule  {
0 1
  S        1.9015010     0.0014740    -0.5114990
  O        0.4243551    -0.0047921     1.6093295
  C       -0.8837990     0.0013960    -0.4908930
  C       -1.6918460     1.2669440    -0.1967440
  C       -1.6921440    -1.2655900    -0.2038620
  C        0.3503050    -0.0012110     0.3916140
  H       -0.5708550     0.0043180    -1.5417560
  H       -2.5996000     1.2838970    -0.8066260
  H       -1.1130310     2.1686550    -0.4169050
  H       -1.9752560     1.2862630     0.8584890
  H       -2.5999060    -1.2788960    -0.8138230
  H       -1.1135430    -2.1661840    -0.4290990
  H       -1.9755470    -1.2907820     0.8512470
  H        2.6553200    -0.0017420     0.5985790
units angstrom
no_reorient  #important for SAPT in psi4, default
symmetry c1  #important for SAPT in psi4, default
}

set PROPERTIES_ORIGIN ["COM"]
properties('MP2/aug-cc-pvtz', properties = ['dipole'])
--------------------------------------------------------------------------

    Molecular point group: c1
  Charge       = 0
  Multiplicity = 1
  Basis Set: AUG-CC-PVTZ
    Blend: AUG-CC-PVTZ
  Basis Set: (AUG-CC-PVTZ AUX)
    Blend: AUG-CC-PVTZ-JKFIT

    Orbital Energies [Eh]
    ---------------------

    Doubly Occupied:

       1A    -91.974671     2A    -20.560976     3A    -11.371063
       4A    -11.263527     5A    -11.233943     6A    -11.233927
       7A     -8.977053     8A     -6.658212     9A     -6.657211
      10A     -6.656397    11A     -1.399410    12A     -1.108054
      13A     -1.014337    14A     -0.950371    15A     -0.869307
      16A     -0.737000    17A     -0.670472    18A     -0.645871
      19A     -0.601069    20A     -0.600318    21A     -0.562396
      22A     -0.558487    23A     -0.532816    24A     -0.518042
      25A     -0.495181    26A     -0.494791    27A     -0.404935
      28A     -0.388093

  @DF-RHF Final Energy:  -628.62937702724162

   => Energetics <=

    Nuclear Repulsion Energy =            294.8280164523554845
    One-Electron Energy =               -1448.6389278183871738
    Two-Electron Energy =                 525.1815343387900157
    Total Energy =                       -628.6293770272416168
  Basis Set: (AUG-CC-PVTZ AUX)
    Blend: AUG-CC-PVTZ-RI
    Molecular point group: c1

    Geometry (in Angstrom), charge = 0, multiplicity = 1:

       Center              X                  Y                   Z               Mass
    ------------   -----------------  -----------------  -----------------  -----------------
         S            1.793767134490     0.001526697824    -0.527605858173    31.972071174400
         O            0.316621234490    -0.004739402176     1.593222641827    15.994914619570
         C           -0.991532865510     0.001448697824    -0.506999858173    12.000000000000
         C           -1.799579865510     1.266996697824    -0.212850858173    12.000000000000
         C           -1.799877865510    -1.265537302176    -0.219968858173    12.000000000000
         C            0.242571134490    -0.001158302176     0.375507141827    12.000000000000
         H           -0.678588865510     0.004370697824    -1.557862858173     1.007825032230
         H           -2.707333865510     1.283949697824    -0.822732858173     1.007825032230
         H           -1.220764865510     2.168707697824    -0.433011858173     1.007825032230
         H           -2.082989865510     1.286315697824     0.842382141827     1.007825032230
         H           -2.707639865510    -1.278843302176    -0.829929858173     1.007825032230
         H           -1.221276865510    -2.166131302176    -0.445205858173     1.007825032230
         H           -2.083280865510    -1.290729302176     0.835140141827     1.007825032230
         H            2.547586134490    -0.001689302176     0.582472141827     1.007825032230

  Basis Set: AUG-CC-PVTZ
    Blend: AUG-CC-PVTZ
  Basis Set: (AUG-CC-PVTZ AUX)
    Blend: AUG-CC-PVTZ-JKFIT
	 Reference Energy          =    -628.6293770272416168 [Eh]
	 Singles Energy            =      -0.0000000000000000 [Eh]
	 Same-Spin Energy          =      -0.2910710796088298 [Eh]
	 Opposite-Spin Energy      =      -0.9552180349697748 [Eh]
	 Correlation Energy        =      -1.2462891145786046 [Eh]
	 Total Energy              =    -629.8756661418202611 [Eh]

	 ================> DF-SCS-MP2 Energies <==================
	-----------------------------------------------------------
	 SCS Same-Spin Scale       =       0.3333333333333333 [-]
	 SCS Opposite-Spin Scale   =       1.2000000000000000 [-]
	 SCS Same-Spin Energy      =      -0.0970236932029433 [Eh]
	 SCS Opposite-Spin Energy  =      -1.1462616419637297 [Eh]
	 SCS Correlation Energy    =      -1.2432853351666731 [Eh]
	 SCS Total Energy          =    -629.8726623624082777 [Eh]
	-----------------------------------------------------------

  Dipole Moment: [D]
     X:    -1.0478      Y:     0.0047      Z:    -1.5560     Total:     1.8759

*** Psi4 exiting successfully. Buy a developer a beer!
