                               Psi4 1.4a3.dev225

  ==> Input File <==

--------------------------------------------------------------------------
#psi4
#
memory 32 gb

molecule  {
0 1
  S        1.9015010     0.0014740    -0.5114990
  O        0.2966630    -0.0047940     1.6103990
  C       -0.8837990     0.0013960    -0.4908930
  C       -1.6918460     1.2669440    -0.1967440
  C       -1.7027102    -1.2821513    -0.2001101
  C        0.3503050    -0.0012110     0.3916140
  H       -0.5708550     0.0043180    -1.5417560
  H       -2.5996000     1.2838970    -0.8066260
  H       -1.1130310     2.1686550    -0.4169050
  H       -1.9752560     1.2862630     0.8584890
  H       -2.5999060    -1.2788960    -0.8138230
  H       -1.1135430    -2.1661840    -0.4290990
  H       -1.9755470    -1.2907820     0.8512470
  H        2.6553200    -0.0017420     0.5985790
units angstrom
no_reorient  #important for SAPT in psi4, default
symmetry c1  #important for SAPT in psi4, default
}

set PROPERTIES_ORIGIN ["COM"]
properties('MP2/aug-cc-pvtz', properties = ['dipole'])
--------------------------------------------------------------------------

    Molecular point group: c1
  Charge       = 0
  Multiplicity = 1
  Basis Set: AUG-CC-PVTZ
    Blend: AUG-CC-PVTZ
  Basis Set: (AUG-CC-PVTZ AUX)
    Blend: AUG-CC-PVTZ-JKFIT

    Orbital Energies [Eh]
    ---------------------

    Doubly Occupied:

       1A    -91.982330     2A    -20.560219     3A    -11.369365
       4A    -11.258515     5A    -11.230312     6A    -11.229905
       7A     -8.984326     8A     -6.665497     9A     -6.664406
      10A     -6.663615    11A     -1.398005    12A     -1.100958
      13A     -1.019361    14A     -0.947169    15A     -0.866991
      16A     -0.733280    17A     -0.669555    18A     -0.644627
      19A     -0.601145    20A     -0.597465    21A     -0.559557
      22A     -0.556981    23A     -0.530954    24A     -0.517680
      25A     -0.494076    26A     -0.487029    27A     -0.408999
      28A     -0.394059

  @DF-RHF Final Energy:  -628.63126386364684

   => Energetics <=

    Nuclear Repulsion Energy =            294.6571222839311304
    One-Electron Energy =               -1448.3040083475448228
    Two-Electron Energy =                 525.0156221999668560
    Total Energy =                       -628.6312638636468364
  Basis Set: (AUG-CC-PVTZ AUX)
    Blend: AUG-CC-PVTZ-RI
    Molecular point group: c1

    Geometry (in Angstrom), charge = 0, multiplicity = 1:

       Center              X                  Y                   Z               Mass
    ------------   -----------------  -----------------  -----------------  -----------------
         S            1.814619074015     0.003437365721    -0.528203085976    31.972071174400
         O            0.209781074015    -0.002830634279     1.593694914024    15.994914619570
         C           -0.970680925985     0.003359365721    -0.507597085976    12.000000000000
         C           -1.778727925985     1.268907365721    -0.213448085976    12.000000000000
         C           -1.789592125985    -1.280187934279    -0.216814185976    12.000000000000
         C            0.263423074015     0.000752365721     0.374909914024    12.000000000000
         H           -0.657736925985     0.006281365721    -1.558460085976     1.007825032230
         H           -2.686481925985     1.285860365721    -0.823330085976     1.007825032230
         H           -1.199912925985     2.170618365721    -0.433609085976     1.007825032230
         H           -2.062137925985     1.288226365721     0.841784914024     1.007825032230
         H           -2.686787925985    -1.276932634279    -0.830527085976     1.007825032230
         H           -1.200424925985    -2.164220634279    -0.445803085976     1.007825032230
         H           -2.062428925985    -1.288818634279     0.834542914024     1.007825032230
         H            2.568438074015     0.000221365721     0.581874914024     1.007825032230

  Basis Set: AUG-CC-PVTZ
    Blend: AUG-CC-PVTZ
  Basis Set: (AUG-CC-PVTZ AUX)
    Blend: AUG-CC-PVTZ-JKFIT
	 Reference Energy          =    -628.6312638636468364 [Eh]
	 Singles Energy            =      -0.0000000000000000 [Eh]
	 Same-Spin Energy          =      -0.2911068452358343 [Eh]
	 Opposite-Spin Energy      =      -0.9554455824148846 [Eh]
	 Correlation Energy        =      -1.2465524276507189 [Eh]
	 Total Energy              =    -629.8778162912975631 [Eh]

	 ================> DF-SCS-MP2 Energies <==================
	-----------------------------------------------------------
	 SCS Same-Spin Scale       =       0.3333333333333333 [-]
	 SCS Opposite-Spin Scale   =       1.2000000000000000 [-]
	 SCS Same-Spin Energy      =      -0.0970356150786114 [Eh]
	 SCS Opposite-Spin Energy  =      -1.1465346988978615 [Eh]
	 SCS Correlation Energy    =      -1.2435703139764729 [Eh]
	 SCS Total Energy          =    -629.8748341776232564 [Eh]
	-----------------------------------------------------------

  Dipole Moment: [D]
     X:    -0.6461      Y:     0.0021      Z:    -1.6015     Total:     1.7269

*** Psi4 exiting successfully. Buy a developer a beer!
