                               Psi4 1.4a3.dev225

  ==> Input File <==

--------------------------------------------------------------------------
#psi4
#
memory 32 gb

molecule  {
0 1
  S        1.9015010     0.0014740    -0.5114990
  O        0.2966630    -0.0047940     1.6103990
  C       -0.8837990     0.0013960    -0.4908930
  C       -1.6918460     1.2669440    -0.1967440
  C       -1.6921440    -1.2655900    -0.2038620
  C        0.5129888    -0.0015547     0.5079491
  H       -0.5708550     0.0043180    -1.5417560
  H       -2.5996000     1.2838970    -0.8066260
  H       -1.1130310     2.1686550    -0.4169050
  H       -1.9752560     1.2862630     0.8584890
  H       -2.5999060    -1.2788960    -0.8138230
  H       -1.1135430    -2.1661840    -0.4290990
  H       -1.9755470    -1.2907820     0.8512470
  H        2.6553200    -0.0017420     0.5985790
units angstrom
no_reorient  #important for SAPT in psi4, default
symmetry c1  #important for SAPT in psi4, default
}

set PROPERTIES_ORIGIN ["COM"]
properties('MP2/aug-cc-pvtz', properties = ['dipole'])
--------------------------------------------------------------------------

    Molecular point group: c1
  Charge       = 0
  Multiplicity = 1
  Basis Set: AUG-CC-PVTZ
    Blend: AUG-CC-PVTZ
  Basis Set: (AUG-CC-PVTZ AUX)
    Blend: AUG-CC-PVTZ-JKFIT

    Orbital Energies [Eh]
    ---------------------

    Doubly Occupied:

       1A    -91.990001     2A    -20.568042     3A    -11.357776
       4A    -11.246739     5A    -11.219040     6A    -11.219023
       7A     -8.993330     8A     -6.674471     9A     -6.673141
      10A     -6.672215    11A     -1.468869    12A     -1.077324
      13A     -1.040248    14A     -0.934319    15A     -0.825803
      16A     -0.736282    17A     -0.672583    18A     -0.658676
      19A     -0.611408    20A     -0.606502    21A     -0.568816
      22A     -0.552652    23A     -0.535287    24A     -0.521949
      25A     -0.483769    26A     -0.481145    27A     -0.407721
      28A     -0.372324

  @DF-RHF Final Energy:  -628.60144727281477

   => Energetics <=

    Nuclear Repulsion Energy =            295.2313709777301938
    One-Electron Energy =               -1449.3267256684746371
    Two-Electron Energy =                 525.4939074179296767
    Total Energy =                       -628.6014472728147666
  Basis Set: (AUG-CC-PVTZ AUX)
    Blend: AUG-CC-PVTZ-RI
    Molecular point group: c1

    Geometry (in Angstrom), charge = 0, multiplicity = 1:

       Center              X                  Y                   Z               Mass
    ------------   -----------------  -----------------  -----------------  -----------------
         S            1.794634374672     0.001566636369    -0.541189760741    31.972071174400
         O            0.189796374672    -0.004701363631     1.580708239259    15.994914619570
         C           -0.990665625328     0.001488636369    -0.520583760741    12.000000000000
         C           -1.798712625328     1.267036636369    -0.226434760741    12.000000000000
         C           -1.799010625328    -1.265497363631    -0.233552760741    12.000000000000
         C            0.406122174672    -0.001462063631     0.478258339259    12.000000000000
         H           -0.677721625328     0.004410636369    -1.571446760741     1.007825032230
         H           -2.706466625328     1.283989636369    -0.836316760741     1.007825032230
         H           -1.219897625328     2.168747636369    -0.446595760741     1.007825032230
         H           -2.082122625328     1.286355636369     0.828798239259     1.007825032230
         H           -2.706772625328    -1.278803363631    -0.843513760741     1.007825032230
         H           -1.220409625328    -2.166091363631    -0.458789760741     1.007825032230
         H           -2.082413625328    -1.290689363631     0.821556239259     1.007825032230
         H            2.548453374672    -0.001649363631     0.568888239259     1.007825032230

  Basis Set: AUG-CC-PVTZ
    Blend: AUG-CC-PVTZ
  Basis Set: (AUG-CC-PVTZ AUX)
    Blend: AUG-CC-PVTZ-JKFIT
	 Reference Energy          =    -628.6014472728147666 [Eh]
	 Singles Energy            =      -0.0000000000000000 [Eh]
	 Same-Spin Energy          =      -0.2898414337248437 [Eh]
	 Opposite-Spin Energy      =      -0.9523534723333182 [Eh]
	 Correlation Energy        =      -1.2421949060581619 [Eh]
	 Total Energy              =    -629.8436421788729831 [Eh]

	 ================> DF-SCS-MP2 Energies <==================
	-----------------------------------------------------------
	 SCS Same-Spin Scale       =       0.3333333333333333 [-]
	 SCS Opposite-Spin Scale   =       1.2000000000000000 [-]
	 SCS Same-Spin Energy      =      -0.0966138112416146 [Eh]
	 SCS Opposite-Spin Energy  =      -1.1428241667999819 [Eh]
	 SCS Correlation Energy    =      -1.2394379780415965 [Eh]
	 SCS Total Energy          =    -629.8408852508563314 [Eh]
	-----------------------------------------------------------

  Dipole Moment: [D]
     X:     0.3309      Y:     0.0038      Z:    -1.2762     Total:     1.3184

*** Psi4 exiting successfully. Buy a developer a beer!
