                               Psi4 1.4a3.dev225

  ==> Input File <==

--------------------------------------------------------------------------
#psi4
#
memory 32 gb

molecule  {
0 1
  S        1.9015010     0.0014740    -0.5114990
  O        0.2966630    -0.0047940     1.6103990
  C       -0.8837990     0.0013960    -0.4908930
  C       -1.6918460     1.2669440    -0.1967440
  C       -1.6921440    -1.2655900    -0.2038620
  C        0.3503050    -0.0012110     0.3916140
  H       -0.5708550     0.0043180    -1.5417560
  H       -2.5996000     1.2838970    -0.8066260
  H       -1.1394879     2.1274389    -0.4068417
  H       -1.9752560     1.2862630     0.8584890
  H       -2.5999060    -1.2788960    -0.8138230
  H       -1.1135430    -2.1661840    -0.4290990
  H       -1.9755470    -1.2907820     0.8512470
  H        2.6553200    -0.0017420     0.5985790
units angstrom
no_reorient  #important for SAPT in psi4, default
symmetry c1  #important for SAPT in psi4, default
}

set PROPERTIES_ORIGIN ["COM"]
properties('MP2/aug-cc-pvtz', properties = ['dipole'])
--------------------------------------------------------------------------

    Molecular point group: c1
  Charge       = 0
  Multiplicity = 1
  Basis Set: AUG-CC-PVTZ
    Blend: AUG-CC-PVTZ
  Basis Set: (AUG-CC-PVTZ AUX)
    Blend: AUG-CC-PVTZ-JKFIT

    Orbital Energies [Eh]
    ---------------------

    Doubly Occupied:

       1A    -91.982461     2A    -20.560402     3A    -11.369453
       4A    -11.257426     5A    -11.229944     6A    -11.224185
       7A     -8.984455     8A     -6.665626     9A     -6.664535
      10A     -6.663744    11A     -1.398199    12A     -1.103903
      13A     -1.019949    14A     -0.950344    15A     -0.867446
      16A     -0.734293    17A     -0.670334    18A     -0.647199
      19A     -0.604422    20A     -0.598142    21A     -0.559011
      22A     -0.556030    23A     -0.530906    24A     -0.516818
      25A     -0.493747    26A     -0.491462    27A     -0.409093
      28A     -0.394177

  @DF-RHF Final Energy:  -628.63036201008390

   => Energetics <=

    Nuclear Repulsion Energy =            295.1961721165905601
    One-Electron Energy =               -1449.3576530189247933
    Two-Electron Energy =                 525.5311188922503334
    Total Energy =                       -628.6303620100838998
  Basis Set: (AUG-CC-PVTZ AUX)
    Blend: AUG-CC-PVTZ-RI
    Molecular point group: c1

    Geometry (in Angstrom), charge = 0, multiplicity = 1:

       Center              X                  Y                   Z               Mass
    ------------   -----------------  -----------------  -----------------  -----------------
         S            1.813656554815     0.001926286145    -0.527867789493    31.972071174400
         O            0.208818554815    -0.004341713855     1.594030210507    15.994914619570
         C           -0.971643445185     0.001848286145    -0.507261789493    12.000000000000
         C           -1.779690445185     1.267396286145    -0.213112789493    12.000000000000
         C           -1.779988445185    -1.265137713855    -0.220230789493    12.000000000000
         C            0.262460554815    -0.000758713855     0.375245210507    12.000000000000
         H           -0.658699445185     0.004770286145    -1.558124789493     1.007825032230
         H           -2.687444445185     1.284349286145    -0.822994789493     1.007825032230
         H           -1.227332345185     2.127891186145    -0.423210489493     1.007825032230
         H           -2.063100445185     1.286715286145     0.842120210507     1.007825032230
         H           -2.687750445185    -1.278443713855    -0.830191789493     1.007825032230
         H           -1.201387445185    -2.165731713855    -0.445467789493     1.007825032230
         H           -2.063391445185    -1.290329713855     0.834878210507     1.007825032230
         H            2.567475554815    -0.001289713855     0.582210210507     1.007825032230

  Basis Set: AUG-CC-PVTZ
    Blend: AUG-CC-PVTZ
  Basis Set: (AUG-CC-PVTZ AUX)
    Blend: AUG-CC-PVTZ-JKFIT
	 Reference Energy          =    -628.6303620100838998 [Eh]
	 Singles Energy            =      -0.0000000000000000 [Eh]
	 Same-Spin Energy          =      -0.2912464753141938 [Eh]
	 Opposite-Spin Energy      =      -0.9552886377064889 [Eh]
	 Correlation Energy        =      -1.2465351130206828 [Eh]
	 Total Energy              =    -629.8768971231045271 [Eh]

	 ================> DF-SCS-MP2 Energies <==================
	-----------------------------------------------------------
	 SCS Same-Spin Scale       =       0.3333333333333333 [-]
	 SCS Opposite-Spin Scale   =       1.2000000000000000 [-]
	 SCS Same-Spin Energy      =      -0.0970821584380646 [Eh]
	 SCS Opposite-Spin Energy  =      -1.1463463652477865 [Eh]
	 SCS Correlation Energy    =      -1.2434285236858511 [Eh]
	 SCS Total Energy          =    -629.8737905337698066 [Eh]
	-----------------------------------------------------------

  Dipole Moment: [D]
     X:    -0.6312      Y:     0.0310      Z:    -1.6012     Total:     1.7214

*** Psi4 exiting successfully. Buy a developer a beer!
