                               Psi4 1.4a3.dev225

  ==> Input File <==

--------------------------------------------------------------------------
#psi4
#
memory 32 gb

molecule  {
0 1
  S        1.9015010     0.0014740    -0.5114990
  O        0.2966630    -0.0047940     1.6103990
  C       -0.8837990     0.0013960    -0.4908930
  C       -1.6918460     1.2669440    -0.1967440
  C       -1.6815778    -1.2490287    -0.2076139
  C        0.3503050    -0.0012110     0.3916140
  H       -0.5708550     0.0043180    -1.5417560
  H       -2.5996000     1.2838970    -0.8066260
  H       -1.1130310     2.1686550    -0.4169050
  H       -1.9752560     1.2862630     0.8584890
  H       -2.5999060    -1.2788960    -0.8138230
  H       -1.1135430    -2.1661840    -0.4290990
  H       -1.9755470    -1.2907820     0.8512470
  H        2.6553200    -0.0017420     0.5985790
units angstrom
no_reorient  #important for SAPT in psi4, default
symmetry c1  #important for SAPT in psi4, default
}

set PROPERTIES_ORIGIN ["COM"]
properties('MP2/aug-cc-pvtz', properties = ['dipole'])
--------------------------------------------------------------------------

    Molecular point group: c1
  Charge       = 0
  Multiplicity = 1
  Basis Set: AUG-CC-PVTZ
    Blend: AUG-CC-PVTZ
  Basis Set: (AUG-CC-PVTZ AUX)
    Blend: AUG-CC-PVTZ-JKFIT

    Orbital Energies [Eh]
    ---------------------

    Doubly Occupied:

       1A    -91.982598     2A    -20.560681     3A    -11.369727
       4A    -11.257196     5A    -11.230916     6A    -11.230399
       7A     -8.984588     8A     -6.665758     9A     -6.664668
      10A     -6.663876    11A     -1.398486    12A     -1.106112
      13A     -1.020167    14A     -0.946716    15A     -0.865865
      16A     -0.734756    17A     -0.670783    18A     -0.646509
      19A     -0.601024    20A     -0.598962    21A     -0.558468
      22A     -0.554116    23A     -0.527708    24A     -0.516029
      25A     -0.495593    26A     -0.489849    27A     -0.409295
      28A     -0.394268

  @DF-RHF Final Energy:  -628.63073221917807

   => Energetics <=

    Nuclear Repulsion Energy =            295.3069811836531926
    One-Electron Energy =               -1449.5852007407211204
    Two-Electron Energy =                 525.6474873378899701
    Total Energy =                       -628.6307322191780713
  Basis Set: (AUG-CC-PVTZ AUX)
    Blend: AUG-CC-PVTZ-RI
    Molecular point group: c1

    Geometry (in Angstrom), charge = 0, multiplicity = 1:

       Center              X                  Y                   Z               Mass
    ------------   -----------------  -----------------  -----------------  -----------------
         S            1.812181413637    -0.000383385809    -0.527337509140    31.972071174400
         O            0.207343413637    -0.006651385809     1.594560490860    15.994914619570
         C           -0.973118586363    -0.000461385809    -0.506731509140    12.000000000000
         C           -1.781165586363     1.265086614191    -0.212582509140    12.000000000000
         C           -1.770897386363    -1.250886085809    -0.223452409140    12.000000000000
         C            0.260985413637    -0.003068385809     0.375775490860    12.000000000000
         H           -0.660174586363     0.002460614191    -1.557594509140     1.007825032230
         H           -2.688919586363     1.282039614191    -0.822464509140     1.007825032230
         H           -1.202350586363     2.166797614191    -0.432743509140     1.007825032230
         H           -2.064575586363     1.284405614191     0.842650490860     1.007825032230
         H           -2.689225586363    -1.280753385809    -0.829661509140     1.007825032230
         H           -1.202862586363    -2.168041385809    -0.444937509140     1.007825032230
         H           -2.064866586363    -1.292639385809     0.835408490860     1.007825032230
         H            2.566000413637    -0.003599385809     0.582740490860     1.007825032230

  Basis Set: AUG-CC-PVTZ
    Blend: AUG-CC-PVTZ
  Basis Set: (AUG-CC-PVTZ AUX)
    Blend: AUG-CC-PVTZ-JKFIT
	 Reference Energy          =    -628.6307322191780713 [Eh]
	 Singles Energy            =      -0.0000000000000000 [Eh]
	 Same-Spin Energy          =      -0.2913873127098869 [Eh]
	 Opposite-Spin Energy      =      -0.9557252520277362 [Eh]
	 Correlation Energy        =      -1.2471125647376231 [Eh]
	 Total Energy              =    -629.8778447839157479 [Eh]

	 ================> DF-SCS-MP2 Energies <==================
	-----------------------------------------------------------
	 SCS Same-Spin Scale       =       0.3333333333333333 [-]
	 SCS Opposite-Spin Scale   =       1.2000000000000000 [-]
	 SCS Same-Spin Energy      =      -0.0971291042366290 [Eh]
	 SCS Opposite-Spin Energy  =      -1.1468703024332834 [Eh]
	 SCS Correlation Energy    =      -1.2439994066699123 [Eh]
	 SCS Total Energy          =    -629.8747316258479714 [Eh]
	-----------------------------------------------------------

  Dipole Moment: [D]
     X:    -0.6290      Y:     0.0081      Z:    -1.5937     Total:     1.7133

*** Psi4 exiting successfully. Buy a developer a beer!
