                               Psi4 1.4a3.dev225

  ==> Input File <==

--------------------------------------------------------------------------
#psi4
#
memory 32 gb

molecule  {
0 1
  S        1.9015010     0.0014740    -0.5114990
  O        0.2966630    -0.0047940     1.6103990
  C       -0.8837990     0.0013960    -0.4908930
  C       -1.6918460     1.2669440    -0.1967440
  C       -1.6921440    -1.2655900    -0.2038620
  C        0.3503050    -0.0012110     0.3916140
  H       -0.5708550     0.0043180    -1.5417560
  H       -2.5940652     1.3005664    -0.8141020
  H       -1.1130310     2.1686550    -0.4169050
  H       -1.9752560     1.2862630     0.8584890
  H       -2.5999060    -1.2788960    -0.8138230
  H       -1.1135430    -2.1661840    -0.4290990
  H       -1.9755470    -1.2907820     0.8512470
  H        2.6553200    -0.0017420     0.5985790
units angstrom
no_reorient  #important for SAPT in psi4, default
symmetry c1  #important for SAPT in psi4, default
}

set PROPERTIES_ORIGIN ["COM"]
properties('MP2/aug-cc-pvtz', properties = ['dipole'])
--------------------------------------------------------------------------

    Molecular point group: c1
  Charge       = 0
  Multiplicity = 1
  Basis Set: AUG-CC-PVTZ
    Blend: AUG-CC-PVTZ
  Basis Set: (AUG-CC-PVTZ AUX)
    Blend: AUG-CC-PVTZ-JKFIT

    Orbital Energies [Eh]
    ---------------------

    Doubly Occupied:

       1A    -91.982499     2A    -20.560507     3A    -11.369618
       4A    -11.257981     5A    -11.230314     6A    -11.230292
       7A     -8.984490     8A     -6.665661     9A     -6.664570
      10A     -6.663779    11A     -1.398297    12A     -1.103382
      13A     -1.019760    14A     -0.946973    15A     -0.866462
      16A     -0.734034    17A     -0.670363    18A     -0.645445
      19A     -0.600729    20A     -0.598162    21A     -0.558674
      22A     -0.555962    23A     -0.528860    24A     -0.517134
      25A     -0.492773    26A     -0.490814    27A     -0.409233
      28A     -0.394187

  @DF-RHF Final Energy:  -628.63134248863923

   => Energetics <=

    Nuclear Repulsion Energy =            294.9648872121399563
    One-Electron Energy =               -1448.9105472659739462
    Two-Electron Energy =                 525.3143175651947558
    Total Energy =                       -628.6313424886392340
  Basis Set: (AUG-CC-PVTZ AUX)
    Blend: AUG-CC-PVTZ-RI
    Molecular point group: c1

    Geometry (in Angstrom), charge = 0, multiplicity = 1:

       Center              X                  Y                   Z               Mass
    ------------   -----------------  -----------------  -----------------  -----------------
         S            1.813346623407     0.001365498987    -0.527697871047    31.972071174400
         O            0.208508623407    -0.004902501013     1.594200128953    15.994914619570
         C           -0.971953376593     0.001287498987    -0.507091871047    12.000000000000
         C           -1.780000376593     1.266835498987    -0.212942871047    12.000000000000
         C           -1.780298376593    -1.265698501013    -0.220060871047    12.000000000000
         C            0.262150623407    -0.001319501013     0.375415128953    12.000000000000
         H           -0.659009376593     0.004209498987    -1.557954871047     1.007825032230
         H           -2.682219576593     1.300457898987    -0.830300871047     1.007825032230
         H           -1.201185376593     2.168546498987    -0.433103871047     1.007825032230
         H           -2.063410376593     1.286154498987     0.842290128953     1.007825032230
         H           -2.688060376593    -1.279004501013    -0.830021871047     1.007825032230
         H           -1.201697376593    -2.166292501013    -0.445297871047     1.007825032230
         H           -2.063701376593    -1.290890501013     0.835048128953     1.007825032230
         H            2.567165623407    -0.001850501013     0.582380128953     1.007825032230

  Basis Set: AUG-CC-PVTZ
    Blend: AUG-CC-PVTZ
  Basis Set: (AUG-CC-PVTZ AUX)
    Blend: AUG-CC-PVTZ-JKFIT
	 Reference Energy          =    -628.6313424886392340 [Eh]
	 Singles Energy            =      -0.0000000000000000 [Eh]
	 Same-Spin Energy          =      -0.2912208782839534 [Eh]
	 Opposite-Spin Energy      =      -0.9555423475211484 [Eh]
	 Correlation Energy        =      -1.2467632258051018 [Eh]
	 Total Energy              =    -629.8781057144443594 [Eh]

	 ================> DF-SCS-MP2 Energies <==================
	-----------------------------------------------------------
	 SCS Same-Spin Scale       =       0.3333333333333333 [-]
	 SCS Opposite-Spin Scale   =       1.2000000000000000 [-]
	 SCS Same-Spin Energy      =      -0.0970736260946511 [Eh]
	 SCS Opposite-Spin Energy  =      -1.1466508170253780 [Eh]
	 SCS Correlation Energy    =      -1.2437244431200292 [Eh]
	 SCS Total Energy          =    -629.8750669317593065 [Eh]
	-----------------------------------------------------------

  Dipole Moment: [D]
     X:    -0.6354      Y:     0.0096      Z:    -1.6015     Total:     1.7229

*** Psi4 exiting successfully. Buy a developer a beer!
