                               Psi4 1.4a3.dev225

  ==> Input File <==

--------------------------------------------------------------------------
#psi4
#
memory 32 gb

molecule  {
0 1
  S        1.9015010     0.0014740    -0.5114990
  O        0.2966630    -0.0047940     1.6103990
  C       -0.8744224     0.0527110    -0.6423135
  C       -1.6918460     1.2669440    -0.1967440
  C       -1.6921440    -1.2655900    -0.2038620
  C        0.3503050    -0.0012110     0.3916140
  H       -0.5708550     0.0043180    -1.5417560
  H       -2.5996000     1.2838970    -0.8066260
  H       -1.1130310     2.1686550    -0.4169050
  H       -1.9752560     1.2862630     0.8584890
  H       -2.5999060    -1.2788960    -0.8138230
  H       -1.1135430    -2.1661840    -0.4290990
  H       -1.9755470    -1.2907820     0.8512470
  H        2.6553200    -0.0017420     0.5985790
units angstrom
no_reorient  #important for SAPT in psi4, default
symmetry c1  #important for SAPT in psi4, default
}

set PROPERTIES_ORIGIN ["COM"]
properties('MP2/aug-cc-pvtz', properties = ['dipole'])
--------------------------------------------------------------------------

    Molecular point group: c1
  Charge       = 0
  Multiplicity = 1
  Basis Set: AUG-CC-PVTZ
    Blend: AUG-CC-PVTZ
  Basis Set: (AUG-CC-PVTZ AUX)
    Blend: AUG-CC-PVTZ-JKFIT

    Orbital Energies [Eh]
    ---------------------

    Doubly Occupied:

       1A    -91.978587     2A    -20.562763     3A    -11.373466
       4A    -11.258022     5A    -11.234073     6A    -11.231188
       7A     -8.980931     8A     -6.662126     9A     -6.660951
      10A     -6.660199    11A     -1.396765    12A     -1.096457
      13A     -1.016212    14A     -0.940546    15A     -0.864480
      16A     -0.755374    17A     -0.667000    18A     -0.641250
      19A     -0.601146    20A     -0.590436    21A     -0.561109
      22A     -0.554891    23A     -0.539370    24A     -0.528927
      25A     -0.501814    26A     -0.470028    27A     -0.396199
      28A     -0.392327

  @DF-RHF Final Energy:  -628.59968144311199

   => Energetics <=

    Nuclear Repulsion Energy =            293.4737494868599015
    One-Electron Energy =               -1445.9135871013927499
    Two-Electron Energy =                 523.8401561714207446
    Total Energy =                       -628.5996814431119901
  Basis Set: (AUG-CC-PVTZ AUX)
    Blend: AUG-CC-PVTZ-RI
    Molecular point group: c1

    Geometry (in Angstrom), charge = 0, multiplicity = 1:

       Center              X                  Y                   Z               Mass
    ------------   -----------------  -----------------  -----------------  -----------------
         S            1.812318636139    -0.004392287659    -0.510303670332    31.972071174400
         O            0.207480636139    -0.010660287659     1.611594329668    15.994914619570
         C           -0.963604763861     0.046844712341    -0.641118170332    12.000000000000
         C           -1.781028363861     1.261077712341    -0.195548670332    12.000000000000
         C           -1.781326363861    -1.271456287659    -0.202666670332    12.000000000000
         C            0.261122636139    -0.007077287659     0.392809329668    12.000000000000
         H           -0.660037363861    -0.001548287659    -1.540560670332     1.007825032230
         H           -2.688782363861     1.278030712341    -0.805430670332     1.007825032230
         H           -1.202213363861     2.162788712341    -0.415709670332     1.007825032230
         H           -2.064438363861     1.280396712341     0.859684329668     1.007825032230
         H           -2.689088363861    -1.284762287659    -0.812627670332     1.007825032230
         H           -1.202725363861    -2.172050287659    -0.427903670332     1.007825032230
         H           -2.064729363861    -1.296648287659     0.852442329668     1.007825032230
         H            2.566137636139    -0.007608287659     0.599774329668     1.007825032230

  Basis Set: AUG-CC-PVTZ
    Blend: AUG-CC-PVTZ
  Basis Set: (AUG-CC-PVTZ AUX)
    Blend: AUG-CC-PVTZ-JKFIT
	 Reference Energy          =    -628.5996814431119901 [Eh]
	 Singles Energy            =      -0.0000000000000000 [Eh]
	 Same-Spin Energy          =      -0.2914214112434149 [Eh]
	 Opposite-Spin Energy      =      -0.9565909893285338 [Eh]
	 Correlation Energy        =      -1.2480124005719486 [Eh]
	 Total Energy              =    -629.8476938436839419 [Eh]

	 ================> DF-SCS-MP2 Energies <==================
	-----------------------------------------------------------
	 SCS Same-Spin Scale       =       0.3333333333333333 [-]
	 SCS Opposite-Spin Scale   =       1.2000000000000000 [-]
	 SCS Same-Spin Energy      =      -0.0971404704144716 [Eh]
	 SCS Opposite-Spin Energy  =      -1.1479091871942406 [Eh]
	 SCS Correlation Energy    =      -1.2450496576087122 [Eh]
	 SCS Total Energy          =    -629.8447311007206508 [Eh]
	-----------------------------------------------------------

  Dipole Moment: [D]
     X:    -0.6643      Y:     0.0344      Z:    -1.5841     Total:     1.7181

*** Psi4 exiting successfully. Buy a developer a beer!
