                               Psi4 1.4a3.dev225

  ==> Input File <==

--------------------------------------------------------------------------
#psi4
#
memory 32 gb

molecule  {
0 1
  S        1.9015010     0.0014740    -0.5114990
  O        0.2966630    -0.0047940     1.6103990
  C       -0.8837990     0.0013960    -0.4908930
  C       -1.6918460     1.2669440    -0.1967440
  C       -1.6921440    -1.2655900    -0.2038620
  C        0.3503050    -0.0012110     0.3916140
  H       -0.5708550     0.0043180    -1.5417560
  H       -2.5623053     1.3836582    -0.8486176
  H       -1.1130310     2.1686550    -0.4169050
  H       -1.9752560     1.2862630     0.8584890
  H       -2.5999060    -1.2788960    -0.8138230
  H       -1.1135430    -2.1661840    -0.4290990
  H       -1.9755470    -1.2907820     0.8512470
  H        2.6553200    -0.0017420     0.5985790
units angstrom
no_reorient  #important for SAPT in psi4, default
symmetry c1  #important for SAPT in psi4, default
}

set PROPERTIES_ORIGIN ["COM"]
properties('MP2/aug-cc-pvtz', properties = ['dipole'])
--------------------------------------------------------------------------

    Molecular point group: c1
  Charge       = 0
  Multiplicity = 1
  Basis Set: AUG-CC-PVTZ
    Blend: AUG-CC-PVTZ
  Basis Set: (AUG-CC-PVTZ AUX)
    Blend: AUG-CC-PVTZ-JKFIT

    Orbital Energies [Eh]
    ---------------------

    Doubly Occupied:

       1A    -91.982665     2A    -20.560760     3A    -11.369965
       4A    -11.258536     5A    -11.230136     6A    -11.230060
       7A     -8.984648     8A     -6.665818     9A     -6.664729
      10A     -6.663936    11A     -1.398535    12A     -1.103134
      13A     -1.019764    14A     -0.947407    15A     -0.866573
      16A     -0.734224    17A     -0.671540    18A     -0.645234
      19A     -0.602156    20A     -0.595783    21A     -0.559651
      22A     -0.555974    23A     -0.526302    24A     -0.517675
      25A     -0.492653    26A     -0.490651    27A     -0.409468
      28A     -0.394293

  @DF-RHF Final Energy:  -628.63016567432896

   => Energetics <=

    Nuclear Repulsion Energy =            294.8966444011502404
    One-Electron Energy =               -1448.7690767940673595
    Two-Electron Energy =                 525.2422667185880982
    Total Energy =                       -628.6301656743289641
  Basis Set: (AUG-CC-PVTZ AUX)
    Blend: AUG-CC-PVTZ-RI
    Molecular point group: c1

    Geometry (in Angstrom), charge = 0, multiplicity = 1:

       Center              X                  Y                   Z               Mass
    ------------   -----------------  -----------------  -----------------  -----------------
         S            1.813038937647     0.000560516490    -0.527363488426    31.972071174400
         O            0.208200937647    -0.005707483510     1.594534511574    15.994914619570
         C           -0.972261062353     0.000482516490    -0.506757488426    12.000000000000
         C           -1.780308062353     1.266030516490    -0.212608488426    12.000000000000
         C           -1.780606062353    -1.266503483510    -0.219726488426    12.000000000000
         C            0.261842937647    -0.002124483510     0.375749511574    12.000000000000
         H           -0.659317062353     0.003404516490    -1.557620488426     1.007825032230
         H           -2.650767362353     1.382744716490    -0.864482088426     1.007825032230
         H           -1.201493062353     2.167741516490    -0.432769488426     1.007825032230
         H           -2.063718062353     1.285349516490     0.842624511574     1.007825032230
         H           -2.688368062353    -1.279809483510    -0.829687488426     1.007825032230
         H           -1.202005062353    -2.167097483510    -0.444963488426     1.007825032230
         H           -2.064009062353    -1.291695483510     0.835382511574     1.007825032230
         H            2.566857937647    -0.002655483510     0.582714511574     1.007825032230

  Basis Set: AUG-CC-PVTZ
    Blend: AUG-CC-PVTZ
  Basis Set: (AUG-CC-PVTZ AUX)
    Blend: AUG-CC-PVTZ-JKFIT
	 Reference Energy          =    -628.6301656743289641 [Eh]
	 Singles Energy            =      -0.0000000000000000 [Eh]
	 Same-Spin Energy          =      -0.2912198552640480 [Eh]
	 Opposite-Spin Energy      =      -0.9555306018655928 [Eh]
	 Correlation Energy        =      -1.2467504571296408 [Eh]
	 Total Energy              =    -629.8769161314586427 [Eh]

	 ================> DF-SCS-MP2 Energies <==================
	-----------------------------------------------------------
	 SCS Same-Spin Scale       =       0.3333333333333333 [-]
	 SCS Opposite-Spin Scale   =       1.2000000000000000 [-]
	 SCS Same-Spin Energy      =      -0.0970732850880160 [Eh]
	 SCS Opposite-Spin Energy  =      -1.1466367222387113 [Eh]
	 SCS Correlation Energy    =      -1.2437100073267273 [Eh]
	 SCS Total Energy          =    -629.8738756816557043 [Eh]
	-----------------------------------------------------------

  Dipole Moment: [D]
     X:    -0.6214      Y:     0.0357      Z:    -1.6207     Total:     1.7361

*** Psi4 exiting successfully. Buy a developer a beer!
