                               Psi4 1.4a3.dev225

  ==> Input File <==

--------------------------------------------------------------------------
#psi4
#
memory 32 gb

molecule  {
0 1
  S        1.9015010     0.0014740    -0.5114990
  O        0.2966630    -0.0047940     1.6103990
  C       -0.8837990     0.0013960    -0.4908930
  C       -1.6918460     1.2669440    -0.1967440
  C       -1.6921440    -1.2655900    -0.2038620
  C        0.3503050    -0.0012110     0.3916140
  H       -0.5708550     0.0043180    -1.5417560
  H       -2.5996000     1.2838970    -0.8066260
  H       -1.1130310     2.1686550    -0.4169050
  H       -1.9752560     1.2862630     0.8584890
  H       -2.5999060    -1.2788960    -0.8138230
  H       -1.0606488    -2.2485140    -0.4496896
  H       -1.9755470    -1.2907820     0.8512470
  H        2.6553200    -0.0017420     0.5985790
units angstrom
no_reorient  #important for SAPT in psi4, default
symmetry c1  #important for SAPT in psi4, default
}

set PROPERTIES_ORIGIN ["COM"]
properties('MP2/aug-cc-pvtz', properties = ['dipole'])
--------------------------------------------------------------------------

    Molecular point group: c1
  Charge       = 0
  Multiplicity = 1
  Basis Set: AUG-CC-PVTZ
    Blend: AUG-CC-PVTZ
  Basis Set: (AUG-CC-PVTZ AUX)
    Blend: AUG-CC-PVTZ-JKFIT

    Orbital Energies [Eh]
    ---------------------

    Doubly Occupied:

       1A    -91.982485     2A    -20.560594     3A    -11.369790
       4A    -11.258970     5A    -11.242192     6A    -11.231334
       7A     -8.984474     8A     -6.665645     9A     -6.664555
      10A     -6.663762    11A     -1.398386    12A     -1.103104
      13A     -1.019594    14A     -0.941920    15A     -0.864936
      16A     -0.733750    17A     -0.670177    18A     -0.643304
      19A     -0.599301    20A     -0.594365    21A     -0.559037
      22A     -0.554635    23A     -0.525729    24A     -0.517466
      25A     -0.493581    26A     -0.484859    27A     -0.409374
      28A     -0.394142

  @DF-RHF Final Energy:  -628.62490523671499

   => Energetics <=

    Nuclear Repulsion Energy =            294.5847585302433913
    One-Electron Energy =               -1448.1564075773583227
    Two-Electron Energy =                 524.9467438103999939
    Total Energy =                       -628.6249052367149943
  Basis Set: (AUG-CC-PVTZ AUX)
    Blend: AUG-CC-PVTZ-RI
    Molecular point group: c1

    Geometry (in Angstrom), charge = 0, multiplicity = 1:

       Center              X                  Y                   Z               Mass
    ------------   -----------------  -----------------  -----------------  -----------------
         S            1.812887811730     0.002324592235    -0.527570818516    31.972071174400
         O            0.208049811730    -0.003943407765     1.594327181484    15.994914619570
         C           -0.972412188270     0.002246592235    -0.506964818516    12.000000000000
         C           -1.780459188270     1.267794592235    -0.212815818516    12.000000000000
         C           -1.780757188270    -1.264739407765    -0.219933818516    12.000000000000
         C            0.261691811730    -0.000360407765     0.375542181484    12.000000000000
         H           -0.659468188270     0.005168592235    -1.557827818516     1.007825032230
         H           -2.688213188270     1.284747592235    -0.822697818516     1.007825032230
         H           -1.201644188270     2.169505592235    -0.432976818516     1.007825032230
         H           -2.063869188270     1.287113592235     0.842417181484     1.007825032230
         H           -2.688519188270    -1.278045407765    -0.829894818516     1.007825032230
         H           -1.149261988270    -2.247663407765    -0.465761418516     1.007825032230
         H           -2.064160188270    -1.289931407765     0.835175181484     1.007825032230
         H            2.566706811730    -0.000891407765     0.582507181484     1.007825032230

  Basis Set: AUG-CC-PVTZ
    Blend: AUG-CC-PVTZ
  Basis Set: (AUG-CC-PVTZ AUX)
    Blend: AUG-CC-PVTZ-JKFIT
	 Reference Energy          =    -628.6249052367149943 [Eh]
	 Singles Energy            =      -0.0000000000000000 [Eh]
	 Same-Spin Energy          =      -0.2912159558262352 [Eh]
	 Opposite-Spin Energy      =      -0.9562616494397440 [Eh]
	 Correlation Energy        =      -1.2474776052659791 [Eh]
	 Total Energy              =    -629.8723828419809934 [Eh]

	 ================> DF-SCS-MP2 Energies <==================
	-----------------------------------------------------------
	 SCS Same-Spin Scale       =       0.3333333333333333 [-]
	 SCS Opposite-Spin Scale   =       1.2000000000000000 [-]
	 SCS Same-Spin Energy      =      -0.0970719852754117 [Eh]
	 SCS Opposite-Spin Energy  =      -1.1475139793276927 [Eh]
	 SCS Correlation Energy    =      -1.2445859646031043 [Eh]
	 SCS Total Energy          =    -629.8694912013180556 [Eh]
	-----------------------------------------------------------

  Dipole Moment: [D]
     X:    -0.6538      Y:     0.0680      Z:    -1.5880     Total:     1.7187

*** Psi4 exiting successfully. Buy a developer a beer!
