                               Psi4 1.4a3.dev225

  ==> Input File <==

--------------------------------------------------------------------------
#psi4
#
memory 32 gb

molecule  {
0 1
  S        1.9015010     0.0014740    -0.5114990
  O        0.2966630    -0.0047940     1.6103990
  C       -0.8837990     0.0013960    -0.4908930
  C       -1.6812837     1.2504015    -0.2005889
  C       -1.6921440    -1.2655900    -0.2038620
  C        0.3503050    -0.0012110     0.3916140
  H       -0.5708550     0.0043180    -1.5417560
  H       -2.5996000     1.2838970    -0.8066260
  H       -1.1130310     2.1686550    -0.4169050
  H       -1.9752560     1.2862630     0.8584890
  H       -2.5999060    -1.2788960    -0.8138230
  H       -1.1135430    -2.1661840    -0.4290990
  H       -1.9755470    -1.2907820     0.8512470
  H        2.6553200    -0.0017420     0.5985790
units angstrom
no_reorient  #important for SAPT in psi4, default
symmetry c1  #important for SAPT in psi4, default
}

set PROPERTIES_ORIGIN ["COM"]
properties('MP2/aug-cc-pvtz', properties = ['dipole'])
--------------------------------------------------------------------------

    Molecular point group: c1
  Charge       = 0
  Multiplicity = 1
  Basis Set: AUG-CC-PVTZ
    Blend: AUG-CC-PVTZ
  Basis Set: (AUG-CC-PVTZ AUX)
    Blend: AUG-CC-PVTZ-JKFIT

    Orbital Energies [Eh]
    ---------------------

    Doubly Occupied:

       1A    -91.982598     2A    -20.560681     3A    -11.369727
       4A    -11.257196     5A    -11.230920     6A    -11.230395
       7A     -8.984588     8A     -6.665758     9A     -6.664668
      10A     -6.663876    11A     -1.398486    12A     -1.106113
      13A     -1.020167    14A     -0.946716    15A     -0.865865
      16A     -0.734756    17A     -0.670783    18A     -0.646509
      19A     -0.601029    20A     -0.598956    21A     -0.558466
      22A     -0.554118    23A     -0.527708    24A     -0.516029
      25A     -0.495590    26A     -0.489852    27A     -0.409295
      28A     -0.394267

  @DF-RHF Final Energy:  -628.63073221762704

   => Energetics <=

    Nuclear Repulsion Energy =            295.3069811333948564
    One-Electron Energy =               -1449.5852006201982931
    Two-Electron Energy =                 525.6474872691763949
    Total Energy =                       -628.6307322176270418
  Basis Set: (AUG-CC-PVTZ AUX)
    Blend: AUG-CC-PVTZ-RI
    Molecular point group: c1

    Geometry (in Angstrom), charge = 0, multiplicity = 1:

       Center              X                  Y                   Z               Mass
    ------------   -----------------  -----------------  -----------------  -----------------
         S            1.812181863509     0.003435197107    -0.527326781422    31.972071174400
         O            0.207343863509    -0.002832802893     1.594571218578    15.994914619570
         C           -0.973118136491     0.003357197107    -0.506720781422    12.000000000000
         C           -1.770602836491     1.252362697107    -0.216416681422    12.000000000000
         C           -1.781463136491    -1.263628802893    -0.219689781422    12.000000000000
         C            0.260985863509     0.000750197107     0.375786218578    12.000000000000
         H           -0.660174136491     0.006279197107    -1.557583781422     1.007825032230
         H           -2.688919136491     1.285858197107    -0.822453781422     1.007825032230
         H           -1.202350136491     2.170616197107    -0.432732781422     1.007825032230
         H           -2.064575136491     1.288224197107     0.842661218578     1.007825032230
         H           -2.689225136491    -1.276934802893    -0.829650781422     1.007825032230
         H           -1.202862136491    -2.164222802893    -0.444926781422     1.007825032230
         H           -2.064866136491    -1.288820802893     0.835419218578     1.007825032230
         H            2.566000863509     0.000219197107     0.582751218578     1.007825032230

  Basis Set: AUG-CC-PVTZ
    Blend: AUG-CC-PVTZ
  Basis Set: (AUG-CC-PVTZ AUX)
    Blend: AUG-CC-PVTZ-JKFIT
	 Reference Energy          =    -628.6307322176270418 [Eh]
	 Singles Energy            =      -0.0000000000000000 [Eh]
	 Same-Spin Energy          =      -0.2913873089588170 [Eh]
	 Opposite-Spin Energy      =      -0.9557252552886195 [Eh]
	 Correlation Energy        =      -1.2471125642474366 [Eh]
	 Total Energy              =    -629.8778447818745008 [Eh]

	 ================> DF-SCS-MP2 Energies <==================
	-----------------------------------------------------------
	 SCS Same-Spin Scale       =       0.3333333333333333 [-]
	 SCS Opposite-Spin Scale   =       1.2000000000000000 [-]
	 SCS Same-Spin Energy      =      -0.0971291029862723 [Eh]
	 SCS Opposite-Spin Energy  =      -1.1468703063463435 [Eh]
	 SCS Correlation Energy    =      -1.2439994093326159 [Eh]
	 SCS Total Energy          =    -629.8747316269596013 [Eh]
	-----------------------------------------------------------

  Dipole Moment: [D]
     X:    -0.6290      Y:     0.0015      Z:    -1.5937     Total:     1.7133

*** Psi4 exiting successfully. Buy a developer a beer!
