                               Psi4 1.4a3.dev225

  ==> Input File <==

--------------------------------------------------------------------------
#psi4
#
memory 32 gb

molecule  {
0 1
  S        1.9015010     0.0014740    -0.5114990
  O        0.2966630    -0.0047940     1.6103990
  C       -0.8837990     0.0013960    -0.4908930
  C       -1.6918460     1.2669440    -0.1967440
  C       -1.6657284    -1.2241867    -0.2132418
  C        0.3503050    -0.0012110     0.3916140
  H       -0.5708550     0.0043180    -1.5417560
  H       -2.5996000     1.2838970    -0.8066260
  H       -1.1130310     2.1686550    -0.4169050
  H       -1.9752560     1.2862630     0.8584890
  H       -2.5999060    -1.2788960    -0.8138230
  H       -1.1135430    -2.1661840    -0.4290990
  H       -1.9755470    -1.2907820     0.8512470
  H        2.6553200    -0.0017420     0.5985790
units angstrom
no_reorient  #important for SAPT in psi4, default
symmetry c1  #important for SAPT in psi4, default
}

set PROPERTIES_ORIGIN ["COM"]
properties('MP2/aug-cc-pvtz', properties = ['dipole'])
--------------------------------------------------------------------------

    Molecular point group: c1
  Charge       = 0
  Multiplicity = 1
  Basis Set: AUG-CC-PVTZ
    Blend: AUG-CC-PVTZ
  Basis Set: (AUG-CC-PVTZ AUX)
    Blend: AUG-CC-PVTZ-JKFIT

    Orbital Energies [Eh]
    ---------------------

    Doubly Occupied:

       1A    -91.982806     2A    -20.561025     3A    -11.370021
       4A    -11.256088     5A    -11.232000     6A    -11.230496
       7A     -8.984790     8A     -6.665961     9A     -6.664871
      10A     -6.664079    11A     -1.398857    12A     -1.110480
      13A     -1.020791    14A     -0.946559    15A     -0.864879
      16A     -0.735956    17A     -0.671846    18A     -0.648152
      19A     -0.602370    20A     -0.599225    21A     -0.558541
      22A     -0.551930    23A     -0.525733    24A     -0.513946
      25A     -0.500757    26A     -0.486320    27A     -0.409396
      28A     -0.394424

  @DF-RHF Final Energy:  -628.62827091654299

   => Energetics <=

    Nuclear Repulsion Energy =            295.8054513897573656
    One-Electron Energy =               -1450.5628522267345488
    Two-Electron Energy =                 526.1291299204342522
    Total Energy =                       -628.6282709165429878
  Basis Set: (AUG-CC-PVTZ AUX)
    Blend: AUG-CC-PVTZ-RI
    Molecular point group: c1

    Geometry (in Angstrom), charge = 0, multiplicity = 1:

       Center              X                  Y                   Z               Mass
    ------------   -----------------  -----------------  -----------------  -----------------
         S            1.810353156819    -0.003248955223    -0.526688320745    31.972071174400
         O            0.205515156819    -0.009516955223     1.595209679255    15.994914619570
         C           -0.974946843181    -0.003326955223    -0.506082320745    12.000000000000
         C           -1.782993843181     1.262221044777    -0.211933320745    12.000000000000
         C           -1.756876243181    -1.228909655223    -0.228431120745    12.000000000000
         C            0.259157156819    -0.005933955223     0.376424679255    12.000000000000
         H           -0.662002843181    -0.000404955223    -1.556945320745     1.007825032230
         H           -2.690747843181     1.279174044777    -0.821815320745     1.007825032230
         H           -1.204178843181     2.163932044777    -0.432094320745     1.007825032230
         H           -2.066403843181     1.281540044777     0.843299679255     1.007825032230
         H           -2.691053843181    -1.283618955223    -0.829012320745     1.007825032230
         H           -1.204690843181    -2.170906955223    -0.444288320745     1.007825032230
         H           -2.066694843181    -1.295504955223     0.836057679255     1.007825032230
         H            2.564172156819    -0.006464955223     0.583389679255     1.007825032230

  Basis Set: AUG-CC-PVTZ
    Blend: AUG-CC-PVTZ
  Basis Set: (AUG-CC-PVTZ AUX)
    Blend: AUG-CC-PVTZ-JKFIT
	 Reference Energy          =    -628.6282709165429878 [Eh]
	 Singles Energy            =      -0.0000000000000000 [Eh]
	 Same-Spin Energy          =      -0.2916796753594376 [Eh]
	 Opposite-Spin Energy      =      -0.9560741286193163 [Eh]
	 Correlation Energy        =      -1.2477538039787539 [Eh]
	 Total Energy              =    -629.8760247205217411 [Eh]

	 ================> DF-SCS-MP2 Energies <==================
	-----------------------------------------------------------
	 SCS Same-Spin Scale       =       0.3333333333333333 [-]
	 SCS Opposite-Spin Scale   =       1.2000000000000000 [-]
	 SCS Same-Spin Energy      =      -0.0972265584531458 [Eh]
	 SCS Opposite-Spin Energy  =      -1.1472889543431795 [Eh]
	 SCS Correlation Energy    =      -1.2445155127963252 [Eh]
	 SCS Total Energy          =    -629.8727864293392713 [Eh]
	-----------------------------------------------------------

  Dipole Moment: [D]
     X:    -0.6154      Y:     0.0140      Z:    -1.5879     Total:     1.7030

*** Psi4 exiting successfully. Buy a developer a beer!
