                               Psi4 1.4a3.dev225

  ==> Input File <==

--------------------------------------------------------------------------
#psi4
#
memory 32 gb

molecule  {
0 1
  S        1.9015010     0.0014740    -0.5114990
  O        0.2966630    -0.0047940     1.6103990
  C       -0.8837990     0.0013960    -0.4908930
  C       -1.6918460     1.2669440    -0.1967440
  C       -1.6921440    -1.2655900    -0.2038620
  C        0.3503050    -0.0012110     0.3916140
  H       -0.5708550     0.0043180    -1.5417560
  H       -2.5996000     1.2838970    -0.8066260
  H       -1.1659448     2.0862229    -0.3967784
  H       -1.9752560     1.2862630     0.8584890
  H       -2.5999060    -1.2788960    -0.8138230
  H       -1.1135430    -2.1661840    -0.4290990
  H       -1.9755470    -1.2907820     0.8512470
  H        2.6553200    -0.0017420     0.5985790
units angstrom
no_reorient  #important for SAPT in psi4, default
symmetry c1  #important for SAPT in psi4, default
}

set PROPERTIES_ORIGIN ["COM"]
properties('MP2/aug-cc-pvtz', properties = ['dipole'])
--------------------------------------------------------------------------

    Molecular point group: c1
  Charge       = 0
  Multiplicity = 1
  Basis Set: AUG-CC-PVTZ
    Blend: AUG-CC-PVTZ
  Basis Set: (AUG-CC-PVTZ AUX)
    Blend: AUG-CC-PVTZ-JKFIT

    Orbital Energies [Eh]
    ---------------------

    Doubly Occupied:

       1A    -91.982463     2A    -20.560368     3A    -11.369384
       4A    -11.257039     5A    -11.229602     6A    -11.217927
       7A     -8.984459     8A     -6.665630     9A     -6.664538
      10A     -6.663748    11A     -1.398168    12A     -1.104597
      13A     -1.020231    14A     -0.954490    15A     -0.868567
      16A     -0.734710    17A     -0.670730    18A     -0.649313
      19A     -0.608165    20A     -0.597929    21A     -0.559594
      22A     -0.556173    23A     -0.532298    24A     -0.516669
      25A     -0.495207    26A     -0.491266    27A     -0.409033
      28A     -0.394192

  @DF-RHF Final Energy:  -628.62528126009249

   => Energetics <=

    Nuclear Repulsion Energy =            295.4268842386125584
    One-Electron Energy =               -1449.7913524694833995
    Two-Electron Energy =                 525.7391869707784053
    Total Energy =                       -628.6252812600924926
  Basis Set: (AUG-CC-PVTZ AUX)
    Blend: AUG-CC-PVTZ-RI
    Molecular point group: c1

    Geometry (in Angstrom), charge = 0, multiplicity = 1:

       Center              X                  Y                   Z               Mass
    ------------   -----------------  -----------------  -----------------  -----------------
         S            1.813912865804     0.002325581366    -0.527965281428    31.972071174400
         O            0.209074865804    -0.003942418634     1.593932718572    15.994914619570
         C           -0.971387134196     0.002247581366    -0.507359281428    12.000000000000
         C           -1.779434134196     1.267795581366    -0.213210281428    12.000000000000
         C           -1.779732134196    -1.264738418634    -0.220328281428    12.000000000000
         C            0.262716865804    -0.000359418634     0.375147718572    12.000000000000
         H           -0.658443134196     0.005169581366    -1.558222281428     1.007825032230
         H           -2.687188134196     1.284748581366    -0.823092281428     1.007825032230
         H           -1.253532934196     2.087074481366    -0.413244681428     1.007825032230
         H           -2.062844134196     1.287114581366     0.842022718572     1.007825032230
         H           -2.687494134196    -1.278044418634    -0.830289281428     1.007825032230
         H           -1.201131134196    -2.165332418634    -0.445565281428     1.007825032230
         H           -2.063135134196    -1.289930418634     0.834780718572     1.007825032230
         H            2.567731865804    -0.000890418634     0.582112718572     1.007825032230

  Basis Set: AUG-CC-PVTZ
    Blend: AUG-CC-PVTZ
  Basis Set: (AUG-CC-PVTZ AUX)
    Blend: AUG-CC-PVTZ-JKFIT
	 Reference Energy          =    -628.6252812600924926 [Eh]
	 Singles Energy            =      -0.0000000000000000 [Eh]
	 Same-Spin Energy          =      -0.2912714385711507 [Eh]
	 Opposite-Spin Energy      =      -0.9550922507859252 [Eh]
	 Correlation Energy        =      -1.2463636893570760 [Eh]
	 Total Energy              =    -629.8716449494495464 [Eh]

	 ================> DF-SCS-MP2 Energies <==================
	-----------------------------------------------------------
	 SCS Same-Spin Scale       =       0.3333333333333333 [-]
	 SCS Opposite-Spin Scale   =       1.2000000000000000 [-]
	 SCS Same-Spin Energy      =      -0.0970904795237169 [Eh]
	 SCS Opposite-Spin Energy  =      -1.1461107009431102 [Eh]
	 SCS Correlation Energy    =      -1.2432011804668270 [Eh]
	 SCS Total Energy          =    -629.8684824405593190 [Eh]
	-----------------------------------------------------------

  Dipole Moment: [D]
     X:    -0.6259      Y:     0.0535      Z:    -1.6043     Total:     1.7229

*** Psi4 exiting successfully. Buy a developer a beer!
