                               Psi4 1.4a3.dev225

  ==> Input File <==

--------------------------------------------------------------------------
#psi4
#
memory 32 gb

molecule  {
0 1
  S        1.9170263     0.0013943    -0.4842895
  O        0.2966630    -0.0047940     1.6103990
  C       -0.8837990     0.0013960    -0.4908930
  C       -1.6918460     1.2669440    -0.1967440
  C       -1.6921440    -1.2655900    -0.2038620
  C        0.3503050    -0.0012110     0.3916140
  H       -0.5708550     0.0043180    -1.5417560
  H       -2.5996000     1.2838970    -0.8066260
  H       -1.1130310     2.1686550    -0.4169050
  H       -1.9752560     1.2862630     0.8584890
  H       -2.5999060    -1.2788960    -0.8138230
  H       -1.1135430    -2.1661840    -0.4290990
  H       -1.9755470    -1.2907820     0.8512470
  H        2.6553200    -0.0017420     0.5985790
units angstrom
no_reorient  #important for SAPT in psi4, default
symmetry c1  #important for SAPT in psi4, default
}

set PROPERTIES_ORIGIN ["COM"]
properties('MP2/aug-cc-pvtz', properties = ['dipole'])
--------------------------------------------------------------------------

    Molecular point group: c1
  Charge       = 0
  Multiplicity = 1
  Basis Set: AUG-CC-PVTZ
    Blend: AUG-CC-PVTZ
  Basis Set: (AUG-CC-PVTZ AUX)
    Blend: AUG-CC-PVTZ-JKFIT

    Orbital Energies [Eh]
    ---------------------

    Doubly Occupied:

       1A    -91.979576     2A    -20.559962     3A    -11.369627
       4A    -11.258563     5A    -11.230654     6A    -11.230638
       7A     -8.982409     8A     -6.663655     9A     -6.662534
      10A     -6.661695    11A     -1.398330    12A     -1.103394
      13A     -1.022097    14A     -0.947181    15A     -0.868127
      16A     -0.734837    17A     -0.672178    18A     -0.646170
      19A     -0.602571    20A     -0.598467    21A     -0.558846
      22A     -0.555907    23A     -0.529469    24A     -0.517647
      25A     -0.493824    26A     -0.491005    27A     -0.409036
      28A     -0.393591

  @DF-RHF Final Energy:  -628.63147038268130

   => Energetics <=

    Nuclear Repulsion Energy =            294.9987033981871036
    One-Electron Energy =               -1448.9763654753328410
    Two-Electron Energy =                 525.3461916944645509
    Total Energy =                       -628.6314703826813002
  Basis Set: (AUG-CC-PVTZ AUX)
    Blend: AUG-CC-PVTZ-RI
    Molecular point group: c1

    Geometry (in Angstrom), charge = 0, multiplicity = 1:

       Center              X                  Y                   Z               Mass
    ------------   -----------------  -----------------  -----------------  -----------------
         S            1.824154055104     0.001471784661    -0.508923265425    31.972071174400
         O            0.203790755104    -0.004716515339     1.585765234575    15.994914619570
         C           -0.976671244896     0.001473484661    -0.515526765425    12.000000000000
         C           -1.784718244896     1.267021484661    -0.221377765425    12.000000000000
         C           -1.785016244896    -1.265512515339    -0.228495765425    12.000000000000
         C            0.257432755104    -0.001133515339     0.366980234575    12.000000000000
         H           -0.663727244896     0.004395484661    -1.566389765425     1.007825032230
         H           -2.692472244896     1.283974484661    -0.831259765425     1.007825032230
         H           -1.205903244896     2.168732484661    -0.441538765425     1.007825032230
         H           -2.068128244896     1.286340484661     0.833855234575     1.007825032230
         H           -2.692778244896    -1.278818515339    -0.838456765425     1.007825032230
         H           -1.206415244896    -2.166106515339    -0.453732765425     1.007825032230
         H           -2.068419244896    -1.290704515339     0.826613234575     1.007825032230
         H            2.562447755104    -0.001664515339     0.573945234575     1.007825032230

  Basis Set: AUG-CC-PVTZ
    Blend: AUG-CC-PVTZ
  Basis Set: (AUG-CC-PVTZ AUX)
    Blend: AUG-CC-PVTZ-JKFIT
	 Reference Energy          =    -628.6314703826813002 [Eh]
	 Singles Energy            =      -0.0000000000000000 [Eh]
	 Same-Spin Energy          =      -0.2910276310437190 [Eh]
	 Opposite-Spin Energy      =      -0.9551309596545876 [Eh]
	 Correlation Energy        =      -1.2461585906983066 [Eh]
	 Total Energy              =    -629.8776289733796148 [Eh]

	 ================> DF-SCS-MP2 Energies <==================
	-----------------------------------------------------------
	 SCS Same-Spin Scale       =       0.3333333333333333 [-]
	 SCS Opposite-Spin Scale   =       1.2000000000000000 [-]
	 SCS Same-Spin Energy      =      -0.0970092103479063 [Eh]
	 SCS Opposite-Spin Energy  =      -1.1461571515855051 [Eh]
	 SCS Correlation Energy    =      -1.2431663619334115 [Eh]
	 SCS Total Energy          =    -629.8746367446146905 [Eh]
	-----------------------------------------------------------

  Dipole Moment: [D]
     X:    -0.6648      Y:     0.0048      Z:    -1.5874     Total:     1.7210

*** Psi4 exiting successfully. Buy a developer a beer!
