                               Psi4 1.4a3.dev225

  ==> Input File <==

--------------------------------------------------------------------------
#psi4
#
memory 32 gb

molecule  {
0 1
  S        1.7986020     0.0019339    -0.6686951
  O        0.2966630    -0.0047940     1.6103990
  C       -0.8837990     0.0013960    -0.4908930
  C       -1.6918460     1.2669440    -0.1967440
  C       -1.6921440    -1.2655900    -0.2038620
  C        0.3503050    -0.0012110     0.3916140
  H       -0.5708550     0.0043180    -1.5417560
  H       -2.5996000     1.2838970    -0.8066260
  H       -1.1130310     2.1686550    -0.4169050
  H       -1.9752560     1.2862630     0.8584890
  H       -2.5999060    -1.2788960    -0.8138230
  H       -1.1135430    -2.1661840    -0.4290990
  H       -1.9755470    -1.2907820     0.8512470
  H        2.6553200    -0.0017420     0.5985790
units angstrom
no_reorient  #important for SAPT in psi4, default
symmetry c1  #important for SAPT in psi4, default
}

set PROPERTIES_ORIGIN ["COM"]
properties('MP2/aug-cc-pvtz', properties = ['dipole'])
--------------------------------------------------------------------------

    Molecular point group: c1
  Charge       = 0
  Multiplicity = 1
  Basis Set: AUG-CC-PVTZ
    Blend: AUG-CC-PVTZ
  Basis Set: (AUG-CC-PVTZ AUX)
    Blend: AUG-CC-PVTZ-JKFIT

    Orbital Energies [Eh]
    ---------------------

    Doubly Occupied:

       1A    -91.997359     2A    -20.563864     3A    -11.369968
       4A    -11.254537     5A    -11.229008     6A    -11.228991
       7A     -8.995804     8A     -6.676706     9A     -6.675436
      10A     -6.674865    11A     -1.398576    12A     -1.104931
      13A     -1.010755    14A     -0.945745    15A     -0.857497
      16A     -0.732151    17A     -0.663558    18A     -0.640971
      19A     -0.598169    20A     -0.593987    21A     -0.555655
      22A     -0.554765    23A     -0.528768    24A     -0.512489
      25A     -0.489562    26A     -0.481945    27A     -0.408232
      28A     -0.397748

  @DF-RHF Final Energy:  -628.60984472228188

   => Energetics <=

    Nuclear Repulsion Energy =            295.1953185193152649
    One-Electron Energy =               -1449.3262447460274416
    Two-Electron Energy =                 525.5210815044304127
    Total Energy =                       -628.6098447222818777
  Basis Set: (AUG-CC-PVTZ AUX)
    Blend: AUG-CC-PVTZ-RI
    Molecular point group: c1

    Geometry (in Angstrom), charge = 0, multiplicity = 1:

       Center              X                  Y                   Z               Mass
    ------------   -----------------  -----------------  -----------------  -----------------
         S            1.742125844833     0.001845545978    -0.636654325115    31.972071174400
         O            0.240186844833    -0.004882354022     1.642439774885    15.994914619570
         C           -0.940275155167     0.001307645978    -0.458852225115    12.000000000000
         C           -1.748322155167     1.266855645978    -0.164703225115    12.000000000000
         C           -1.748620155167    -1.265678354022    -0.171821225115    12.000000000000
         C            0.293828844833    -0.001299354022     0.423654774885    12.000000000000
         H           -0.627331155167     0.004229645978    -1.509715225115     1.007825032230
         H           -2.656076155167     1.283808645978    -0.774585225115     1.007825032230
         H           -1.169507155167     2.168566645978    -0.384864225115     1.007825032230
         H           -2.031732155167     1.286174645978     0.890529774885     1.007825032230
         H           -2.656382155167    -1.278984354022    -0.781782225115     1.007825032230
         H           -1.170019155167    -2.166272354022    -0.397058225115     1.007825032230
         H           -2.032023155167    -1.290870354022     0.883287774885     1.007825032230
         H            2.598843844833    -0.001830354022     0.630619774885     1.007825032230

  Basis Set: AUG-CC-PVTZ
    Blend: AUG-CC-PVTZ
  Basis Set: (AUG-CC-PVTZ AUX)
    Blend: AUG-CC-PVTZ-JKFIT
	 Reference Energy          =    -628.6098447222818777 [Eh]
	 Singles Energy            =      -0.0000000000000000 [Eh]
	 Same-Spin Energy          =      -0.2928070753628588 [Eh]
	 Opposite-Spin Energy      =      -0.9592255532275498 [Eh]
	 Correlation Energy        =      -1.2520326285904084 [Eh]
	 Total Energy              =    -629.8618773508723052 [Eh]

	 ================> DF-SCS-MP2 Energies <==================
	-----------------------------------------------------------
	 SCS Same-Spin Scale       =       0.3333333333333333 [-]
	 SCS Opposite-Spin Scale   =       1.2000000000000000 [-]
	 SCS Same-Spin Energy      =      -0.0976023584542862 [Eh]
	 SCS Opposite-Spin Energy  =      -1.1510706638730597 [Eh]
	 SCS Correlation Energy    =      -1.2486730223273459 [Eh]
	 SCS Total Energy          =    -629.8585177446092302 [Eh]
	-----------------------------------------------------------

  Dipole Moment: [D]
     X:    -0.5484      Y:     0.0049      Z:    -1.6448     Total:     1.7338

*** Psi4 exiting successfully. Buy a developer a beer!
