                               Psi4 1.4a3.dev225

  ==> Input File <==

--------------------------------------------------------------------------
#psi4
#
memory 32 gb

molecule  {
0 1
  S        1.9015010     0.0014740    -0.5114990
  O        0.2966630    -0.0047940     1.6103990
  C       -0.8837990     0.0013960    -0.4908930
  C       -1.6918460     1.2669440    -0.1967440
  C       -1.6921440    -1.2655900    -0.2038620
  C        0.3503050    -0.0012110     0.3916140
  H       -0.5708550     0.0043180    -1.5417560
  H       -2.5996000     1.2838970    -0.8066260
  H       -1.1130310     2.1686550    -0.4169050
  H       -1.9752560     1.2862630     0.8584890
  H       -2.5999060    -1.2788960    -0.8138230
  H       -1.1399901    -2.1250190    -0.4188037
  H       -1.9755470    -1.2907820     0.8512470
  H        2.6553200    -0.0017420     0.5985790
units angstrom
no_reorient  #important for SAPT in psi4, default
symmetry c1  #important for SAPT in psi4, default
}

set PROPERTIES_ORIGIN ["COM"]
properties('MP2/aug-cc-pvtz', properties = ['dipole'])
--------------------------------------------------------------------------

    Molecular point group: c1
  Charge       = 0
  Multiplicity = 1
  Basis Set: AUG-CC-PVTZ
    Blend: AUG-CC-PVTZ
  Basis Set: (AUG-CC-PVTZ AUX)
    Blend: AUG-CC-PVTZ-JKFIT

    Orbital Energies [Eh]
    ---------------------

    Doubly Occupied:

       1A    -91.982461     2A    -20.560402     3A    -11.369453
       4A    -11.257426     5A    -11.229949     6A    -11.224181
       7A     -8.984455     8A     -6.665626     9A     -6.664535
      10A     -6.663744    11A     -1.398199    12A     -1.103903
      13A     -1.019949    14A     -0.950344    15A     -0.867446
      16A     -0.734293    17A     -0.670334    18A     -0.647199
      19A     -0.604424    20A     -0.598140    21A     -0.559014
      22A     -0.556027    23A     -0.530906    24A     -0.516818
      25A     -0.493745    26A     -0.491465    27A     -0.409093
      28A     -0.394177

  @DF-RHF Final Energy:  -628.63036200798115

   => Energetics <=

    Nuclear Repulsion Energy =            295.1961766192031291
    One-Electron Energy =               -1449.3576635960553176
    Two-Electron Energy =                 525.5311249688711541
    Total Energy =                       -628.6303620079811481
  Basis Set: (AUG-CC-PVTZ AUX)
    Blend: AUG-CC-PVTZ-RI
    Molecular point group: c1

    Geometry (in Angstrom), charge = 0, multiplicity = 1:

       Center              X                  Y                   Z               Mass
    ------------   -----------------  -----------------  -----------------  -----------------
         S            1.813656459874     0.001128188816    -0.527870037079    31.972071174400
         O            0.208818459874    -0.005139811184     1.594027962921    15.994914619570
         C           -0.971643540126     0.001050188816    -0.507264037079    12.000000000000
         C           -1.779690540126     1.266598188816    -0.213115037079    12.000000000000
         C           -1.779988540126    -1.265935811184    -0.220233037079    12.000000000000
         C            0.262460459874    -0.001556811184     0.375242962921    12.000000000000
         H           -0.658699540126     0.003972188816    -1.558127037079     1.007825032230
         H           -2.687444540126     1.283551188816    -0.822997037079     1.007825032230
         H           -1.200875540126     2.168309188816    -0.433276037079     1.007825032230
         H           -2.063100540126     1.285917188816     0.842117962921     1.007825032230
         H           -2.687750540126    -1.279241811184    -0.830194037079     1.007825032230
         H           -1.227834640126    -2.125364811184    -0.435174737079     1.007825032230
         H           -2.063391540126    -1.291127811184     0.834875962921     1.007825032230
         H            2.567475459874    -0.002087811184     0.582207962921     1.007825032230

  Basis Set: AUG-CC-PVTZ
    Blend: AUG-CC-PVTZ
  Basis Set: (AUG-CC-PVTZ AUX)
    Blend: AUG-CC-PVTZ-JKFIT
	 Reference Energy          =    -628.6303620079811481 [Eh]
	 Singles Energy            =      -0.0000000000000000 [Eh]
	 Same-Spin Energy          =      -0.2912464849046622 [Eh]
	 Opposite-Spin Energy      =      -0.9552886411446604 [Eh]
	 Correlation Energy        =      -1.2465351260493227 [Eh]
	 Total Energy              =    -629.8768971340305143 [Eh]

	 ================> DF-SCS-MP2 Energies <==================
	-----------------------------------------------------------
	 SCS Same-Spin Scale       =       0.3333333333333333 [-]
	 SCS Opposite-Spin Scale   =       1.2000000000000000 [-]
	 SCS Same-Spin Energy      =      -0.0970821616348874 [Eh]
	 SCS Opposite-Spin Energy  =      -1.1463463693735925 [Eh]
	 SCS Correlation Energy    =      -1.2434285310084798 [Eh]
	 SCS Total Energy          =    -629.8737905389896241 [Eh]
	-----------------------------------------------------------

  Dipole Moment: [D]
     X:    -0.6312      Y:    -0.0214      Z:    -1.6014     Total:     1.7214

*** Psi4 exiting successfully. Buy a developer a beer!
