                               Psi4 1.4a3.dev225

  ==> Input File <==

--------------------------------------------------------------------------
#psi4
#
memory 32 gb

molecule  {
0 1
  S        1.9015010     0.0014740    -0.5114990
  O        0.2966630    -0.0047940     1.6103990
  C       -0.9020288    -0.0360534    -0.3362498
  C       -1.6918460     1.2669440    -0.1967440
  C       -1.6921440    -1.2655900    -0.2038620
  C        0.3503050    -0.0012110     0.3916140
  H       -0.5708550     0.0043180    -1.5417560
  H       -2.5996000     1.2838970    -0.8066260
  H       -1.1130310     2.1686550    -0.4169050
  H       -1.9752560     1.2862630     0.8584890
  H       -2.5999060    -1.2788960    -0.8138230
  H       -1.1135430    -2.1661840    -0.4290990
  H       -1.9755470    -1.2907820     0.8512470
  H        2.6553200    -0.0017420     0.5985790
units angstrom
no_reorient  #important for SAPT in psi4, default
symmetry c1  #important for SAPT in psi4, default
}

set PROPERTIES_ORIGIN ["COM"]
properties('MP2/aug-cc-pvtz', properties = ['dipole'])
--------------------------------------------------------------------------

    Molecular point group: c1
  Charge       = 0
  Multiplicity = 1
  Basis Set: AUG-CC-PVTZ
    Blend: AUG-CC-PVTZ
  Basis Set: (AUG-CC-PVTZ AUX)
    Blend: AUG-CC-PVTZ-JKFIT

    Orbital Energies [Eh]
    ---------------------

    Doubly Occupied:

       1A    -91.986703     2A    -20.559082     3A    -11.366998
       4A    -11.263801     5A    -11.232985     6A    -11.229470
       7A     -8.988256     8A     -6.669388     9A     -6.668366
      10A     -6.667526    11A     -1.402119    12A     -1.112409
      13A     -1.023425    14A     -0.954527    15A     -0.878576
      16A     -0.719164    17A     -0.672450    18A     -0.649711
      19A     -0.610066    20A     -0.603433    21A     -0.564285
      22A     -0.553054    23A     -0.530793    24A     -0.524488
      25A     -0.502333    26A     -0.443679    27A     -0.417167
      28A     -0.395782

  @DF-RHF Final Energy:  -628.60414160975597

   => Energetics <=

    Nuclear Repulsion Energy =            296.2969580615747986
    One-Electron Energy =               -1451.4221227441871633
    Two-Electron Energy =                 526.5210230728564511
    Total Energy =                       -628.6041416097559704
  Basis Set: (AUG-CC-PVTZ AUX)
    Blend: AUG-CC-PVTZ-RI
    Molecular point group: c1

    Geometry (in Angstrom), charge = 0, multiplicity = 1:

       Center              X                  Y                   Z               Mass
    ------------   -----------------  -----------------  -----------------  -----------------
         S            1.815503084069     0.005846845653    -0.545608669029    31.972071174400
         O            0.210665084069    -0.000421154347     1.576289330971    15.994914619570
         C           -0.988026715931    -0.031680554347    -0.370359469029    12.000000000000
         C           -1.777843915931     1.271316845653    -0.230853669029    12.000000000000
         C           -1.778141915931    -1.261217154347    -0.237971669029    12.000000000000
         C            0.264307084069     0.003161845653     0.357504330971    12.000000000000
         H           -0.656852915931     0.008690845653    -1.575865669029     1.007825032230
         H           -2.685597915931     1.288269845653    -0.840735669029     1.007825032230
         H           -1.199028915931     2.173027845653    -0.451014669029     1.007825032230
         H           -2.061253915931     1.290635845653     0.824379330971     1.007825032230
         H           -2.685903915931    -1.274523154347    -0.847932669029     1.007825032230
         H           -1.199540915931    -2.161811154347    -0.463208669029     1.007825032230
         H           -2.061544915931    -1.286409154347     0.817137330971     1.007825032230
         H            2.569322084069     0.002630845653     0.564469330971     1.007825032230

  Basis Set: AUG-CC-PVTZ
    Blend: AUG-CC-PVTZ
  Basis Set: (AUG-CC-PVTZ AUX)
    Blend: AUG-CC-PVTZ-JKFIT
	 Reference Energy          =    -628.6041416097559704 [Eh]
	 Singles Energy            =      -0.0000000000000000 [Eh]
	 Same-Spin Energy          =      -0.2922763626731791 [Eh]
	 Opposite-Spin Energy      =      -0.9579772360260002 [Eh]
	 Correlation Energy        =      -1.2502535986991794 [Eh]
	 Total Energy              =    -629.8543952084551165 [Eh]

	 ================> DF-SCS-MP2 Energies <==================
	-----------------------------------------------------------
	 SCS Same-Spin Scale       =       0.3333333333333333 [-]
	 SCS Opposite-Spin Scale   =       1.2000000000000000 [-]
	 SCS Same-Spin Energy      =      -0.0974254542243930 [Eh]
	 SCS Opposite-Spin Energy  =      -1.1495726832312001 [Eh]
	 SCS Correlation Energy    =      -1.2469981374555932 [Eh]
	 SCS Total Energy          =    -629.8511397472116187 [Eh]
	-----------------------------------------------------------

  Dipole Moment: [D]
     X:    -0.6150      Y:    -0.0145      Z:    -1.5204     Total:     1.6401

*** Psi4 exiting successfully. Buy a developer a beer!
