                               Psi4 1.4a3.dev225

  ==> Input File <==

--------------------------------------------------------------------------
#psi4
#
memory 32 gb

molecule  {
0 1
  S        1.9015010     0.0014740    -0.5114990
  O        0.2966630    -0.0047940     1.6103990
  C       -0.8837990     0.0013960    -0.4908930
  C       -1.6390344     1.1842315    -0.2159687
  C       -1.6921440    -1.2655900    -0.2038620
  C        0.3503050    -0.0012110     0.3916140
  H       -0.5708550     0.0043180    -1.5417560
  H       -2.5996000     1.2838970    -0.8066260
  H       -1.1130310     2.1686550    -0.4169050
  H       -1.9752560     1.2862630     0.8584890
  H       -2.5999060    -1.2788960    -0.8138230
  H       -1.1135430    -2.1661840    -0.4290990
  H       -1.9755470    -1.2907820     0.8512470
  H        2.6553200    -0.0017420     0.5985790
units angstrom
no_reorient  #important for SAPT in psi4, default
symmetry c1  #important for SAPT in psi4, default
}

set PROPERTIES_ORIGIN ["COM"]
properties('MP2/aug-cc-pvtz', properties = ['dipole'])
--------------------------------------------------------------------------

    Molecular point group: c1
  Charge       = 0
  Multiplicity = 1
  Basis Set: AUG-CC-PVTZ
    Blend: AUG-CC-PVTZ
  Basis Set: (AUG-CC-PVTZ AUX)
    Blend: AUG-CC-PVTZ-JKFIT

    Orbital Energies [Eh]
    ---------------------

    Doubly Occupied:

       1A    -91.983176     2A    -20.561603     3A    -11.370571
       4A    -11.254021     5A    -11.234376     6A    -11.230727
       7A     -8.985150     8A     -6.666320     9A     -6.665231
      10A     -6.664437    11A     -1.399502    12A     -1.118842
      13A     -1.021870    14A     -0.946688    15A     -0.862964
      16A     -0.738126    17A     -0.673946    18A     -0.651329
      19A     -0.605759    20A     -0.599480    21A     -0.559298
      22A     -0.549272    23A     -0.523933    24A     -0.512461
      25A     -0.503730    26A     -0.478927    27A     -0.409296
      28A     -0.394690

  @DF-RHF Final Energy:  -628.61964444841021

   => Energetics <=

    Nuclear Repulsion Energy =            296.6605013651775380
    One-Electron Energy =               -1452.2288428952836057
    Two-Electron Energy =                 526.9486970816957410
    Total Energy =                       -628.6196444484102130
  Basis Set: (AUG-CC-PVTZ AUX)
    Blend: AUG-CC-PVTZ-RI
    Molecular point group: c1

    Geometry (in Angstrom), charge = 0, multiplicity = 1:

       Center              X                  Y                   Z               Mass
    ------------   -----------------  -----------------  -----------------  -----------------
         S            1.807308330707     0.011068025710    -0.525552693809    31.972071174400
         O            0.202470330707     0.004800025710     1.596345306191    15.994914619570
         C           -0.977991669293     0.010990025710    -0.504946693809    12.000000000000
         C           -1.733227069293     1.193825525710    -0.230022393809    12.000000000000
         C           -1.786336669293    -1.255995974290    -0.217915693809    12.000000000000
         C            0.256112330707     0.008383025710     0.377560306191    12.000000000000
         H           -0.665047669293     0.013912025710    -1.555809693809     1.007825032230
         H           -2.693792669293     1.293491025710    -0.820679693809     1.007825032230
         H           -1.207223669293     2.178249025710    -0.430958693809     1.007825032230
         H           -2.069448669293     1.295857025710     0.844435306191     1.007825032230
         H           -2.694098669293    -1.269301974290    -0.827876693809     1.007825032230
         H           -1.207735669293    -2.156589974290    -0.443152693809     1.007825032230
         H           -2.069739669293    -1.281187974290     0.837193306191     1.007825032230
         H            2.561127330707     0.007852025710     0.584525306191     1.007825032230

  Basis Set: AUG-CC-PVTZ
    Blend: AUG-CC-PVTZ
  Basis Set: (AUG-CC-PVTZ AUX)
    Blend: AUG-CC-PVTZ-JKFIT
	 Reference Energy          =    -628.6196444484102130 [Eh]
	 Singles Energy            =      -0.0000000000000000 [Eh]
	 Same-Spin Energy          =      -0.2923352290229861 [Eh]
	 Opposite-Spin Energy      =      -0.9569396071671727 [Eh]
	 Correlation Energy        =      -1.2492748361901589 [Eh]
	 Total Energy              =    -629.8689192846003380 [Eh]

	 ================> DF-SCS-MP2 Energies <==================
	-----------------------------------------------------------
	 SCS Same-Spin Scale       =       0.3333333333333333 [-]
	 SCS Opposite-Spin Scale   =       1.2000000000000000 [-]
	 SCS Same-Spin Energy      =      -0.0974450763409954 [Eh]
	 SCS Opposite-Spin Energy  =      -1.1483275286006072 [Eh]
	 SCS Correlation Energy    =      -1.2457726049416025 [Eh]
	 SCS Total Energy          =    -629.8654170533518482 [Eh]
	-----------------------------------------------------------

  Dipole Moment: [D]
     X:    -0.5905      Y:    -0.0179      Z:    -1.5787     Total:     1.6856

*** Psi4 exiting successfully. Buy a developer a beer!
