                               Psi4 1.4a3.dev225

  ==> Input File <==

--------------------------------------------------------------------------
#psi4
#
memory 32 gb

molecule  {
0 1
  S        1.9015010     0.0014740    -0.5114990
  O        0.2966630    -0.0047940     1.6103990
  C       -0.8837990     0.0013960    -0.4908930
  C       -1.6918460     1.2669440    -0.1967440
  C       -1.6921440    -1.2655900    -0.2038620
  C        0.3503050    -0.0012110     0.3916140
  H       -0.5708550     0.0043180    -1.5417560
  H       -2.5996000     1.2838970    -0.8066260
  H       -1.1130310     2.1686550    -0.4169050
  H       -1.9752560     1.2862630     0.8584890
  H       -2.5999060    -1.2788960    -0.8138230
  H       -1.1664372    -2.0838540    -0.4085084
  H       -1.9755470    -1.2907820     0.8512470
  H        2.6553200    -0.0017420     0.5985790
units angstrom
no_reorient  #important for SAPT in psi4, default
symmetry c1  #important for SAPT in psi4, default
}

set PROPERTIES_ORIGIN ["COM"]
properties('MP2/aug-cc-pvtz', properties = ['dipole'])
--------------------------------------------------------------------------

    Molecular point group: c1
  Charge       = 0
  Multiplicity = 1
  Basis Set: AUG-CC-PVTZ
    Blend: AUG-CC-PVTZ
  Basis Set: (AUG-CC-PVTZ AUX)
    Blend: AUG-CC-PVTZ-JKFIT

    Orbital Energies [Eh]
    ---------------------

    Doubly Occupied:

       1A    -91.982463     2A    -20.560368     3A    -11.369384
       4A    -11.257039     5A    -11.229606     6A    -11.217922
       7A     -8.984459     8A     -6.665629     9A     -6.664538
      10A     -6.663748    11A     -1.398168    12A     -1.104597
      13A     -1.020232    14A     -0.954490    15A     -0.868567
      16A     -0.734710    17A     -0.670730    18A     -0.649312
      19A     -0.608166    20A     -0.597926    21A     -0.559599
      22A     -0.556169    23A     -0.532299    24A     -0.516669
      25A     -0.495204    26A     -0.491269    27A     -0.409033
      28A     -0.394192

  @DF-RHF Final Energy:  -628.62528125676090

   => Energetics <=

    Nuclear Repulsion Energy =            295.4268938103481901
    One-Electron Energy =               -1449.7913745253740672
    Two-Electron Energy =                 525.7391994582649204
    Total Energy =                       -628.6252812567608999
  Basis Set: (AUG-CC-PVTZ AUX)
    Blend: AUG-CC-PVTZ-RI
    Molecular point group: c1

    Geometry (in Angstrom), charge = 0, multiplicity = 1:

       Center              X                  Y                   Z               Mass
    ------------   -----------------  -----------------  -----------------  -----------------
         S            1.813912675922     0.000729387677    -0.527969776599    31.972071174400
         O            0.209074675922    -0.005538612323     1.593928223401    15.994914619570
         C           -0.971387324078     0.000651387677    -0.507363776599    12.000000000000
         C           -1.779434324078     1.266199387677    -0.213214776599    12.000000000000
         C           -1.779732324078    -1.266334612323    -0.220332776599    12.000000000000
         C            0.262716675922    -0.001955612323     0.375143223401    12.000000000000
         H           -0.658443324078     0.003573387677    -1.558226776599     1.007825032230
         H           -2.687188324078     1.283152387677    -0.823096776599     1.007825032230
         H           -1.200619324078     2.167910387677    -0.433375776599     1.007825032230
         H           -2.062844324078     1.285518387677     0.842018223401     1.007825032230
         H           -2.687494324078    -1.279640612323    -0.830293776599     1.007825032230
         H           -1.254025524078    -2.084598612323    -0.424979176599     1.007825032230
         H           -2.063135324078    -1.291526612323     0.834776223401     1.007825032230
         H            2.567731675922    -0.002486612323     0.582108223401     1.007825032230

  Basis Set: AUG-CC-PVTZ
    Blend: AUG-CC-PVTZ
  Basis Set: (AUG-CC-PVTZ AUX)
    Blend: AUG-CC-PVTZ-JKFIT
	 Reference Energy          =    -628.6252812567608999 [Eh]
	 Singles Energy            =      -0.0000000000000000 [Eh]
	 Same-Spin Energy          =      -0.2912714569376681 [Eh]
	 Opposite-Spin Energy      =      -0.9550922554499257 [Eh]
	 Correlation Energy        =      -1.2463637123875939 [Eh]
	 Total Energy              =    -629.8716449691485195 [Eh]

	 ================> DF-SCS-MP2 Energies <==================
	-----------------------------------------------------------
	 SCS Same-Spin Scale       =       0.3333333333333333 [-]
	 SCS Opposite-Spin Scale   =       1.2000000000000000 [-]
	 SCS Same-Spin Energy      =      -0.0970904856458894 [Eh]
	 SCS Opposite-Spin Energy  =      -1.1461107065399108 [Eh]
	 SCS Correlation Energy    =      -1.2432011921858002 [Eh]
	 SCS Total Energy          =    -629.8684824489466791 [Eh]
	-----------------------------------------------------------

  Dipole Moment: [D]
     X:    -0.6259      Y:    -0.0439      Z:    -1.6046     Total:     1.7229

*** Psi4 exiting successfully. Buy a developer a beer!
