                               Psi4 1.4a3.dev225

  ==> Input File <==

--------------------------------------------------------------------------
#psi4
#
memory 32 gb

molecule  {
0 1
  S        1.9015010     0.0014740    -0.5114990
  O        0.2117752    -0.0047734     1.6036882
  C       -0.8837990     0.0013960    -0.4908930
  C       -1.6918460     1.2669440    -0.1967440
  C       -1.6921440    -1.2655900    -0.2038620
  C        0.3503050    -0.0012110     0.3916140
  H       -0.5708550     0.0043180    -1.5417560
  H       -2.5996000     1.2838970    -0.8066260
  H       -1.1130310     2.1686550    -0.4169050
  H       -1.9752560     1.2862630     0.8584890
  H       -2.5999060    -1.2788960    -0.8138230
  H       -1.1135430    -2.1661840    -0.4290990
  H       -1.9755470    -1.2907820     0.8512470
  H        2.6553200    -0.0017420     0.5985790
units angstrom
no_reorient  #important for SAPT in psi4, default
symmetry c1  #important for SAPT in psi4, default
}

set PROPERTIES_ORIGIN ["COM"]
properties('MP2/aug-cc-pvtz', properties = ['dipole'])
--------------------------------------------------------------------------

    Molecular point group: c1
  Charge       = 0
  Multiplicity = 1
  Basis Set: AUG-CC-PVTZ
    Blend: AUG-CC-PVTZ
  Basis Set: (AUG-CC-PVTZ AUX)
    Blend: AUG-CC-PVTZ-JKFIT

    Orbital Energies [Eh]
    ---------------------

    Doubly Occupied:

       1A    -91.987453     2A    -20.559879     3A    -11.368664
       4A    -11.254134     5A    -11.227864     6A    -11.227848
       7A     -8.989193     8A     -6.670363     9A     -6.669223
      10A     -6.668438    11A     -1.398028    12A     -1.100220
      13A     -1.023053    14A     -0.944561    15A     -0.864556
      16A     -0.732010    17A     -0.670354    18A     -0.645299
      19A     -0.600292    20A     -0.597217    21A     -0.556473
      22A     -0.553885    23A     -0.526855    24A     -0.516735
      25A     -0.490639    26A     -0.487896    27A     -0.410432
      28A     -0.397909

  @DF-RHF Final Energy:  -628.62955811699385

   => Energetics <=

    Nuclear Repulsion Energy =            295.2162707173812919
    One-Electron Energy =               -1449.4127111799043632
    Two-Electron Energy =                 525.5668823455291658
    Total Energy =                       -628.6295581169938487
  Basis Set: (AUG-CC-PVTZ AUX)
    Blend: AUG-CC-PVTZ-RI
    Molecular point group: c1

    Geometry (in Angstrom), charge = 0, multiplicity = 1:

       Center              X                  Y                   Z               Mass
    ------------   -----------------  -----------------  -----------------  -----------------
         S            1.826452041538     0.001523822633    -0.526738488463    31.972071174400
         O            0.136726241538    -0.004723577367     1.588448711537    15.994914619570
         C           -0.958847958462     0.001445822633    -0.506132488463    12.000000000000
         C           -1.766894958462     1.266993822633    -0.211983488463    12.000000000000
         C           -1.767192958462    -1.265540177367    -0.219101488463    12.000000000000
         C            0.275256041538    -0.001161177367     0.376374511537    12.000000000000
         H           -0.645903958462     0.004367822633    -1.556995488463     1.007825032230
         H           -2.674648958462     1.283946822633    -0.821865488463     1.007825032230
         H           -1.188079958462     2.168704822633    -0.432144488463     1.007825032230
         H           -2.050304958462     1.286312822633     0.843249511537     1.007825032230
         H           -2.674954958462    -1.278846177367    -0.829062488463     1.007825032230
         H           -1.188591958462    -2.166134177367    -0.444338488463     1.007825032230
         H           -2.050595958462    -1.290732177367     0.836007511537     1.007825032230
         H            2.580271041538    -0.001692177367     0.583339511537     1.007825032230

  Basis Set: AUG-CC-PVTZ
    Blend: AUG-CC-PVTZ
  Basis Set: (AUG-CC-PVTZ AUX)
    Blend: AUG-CC-PVTZ-JKFIT
	 Reference Energy          =    -628.6295581169938487 [Eh]
	 Singles Energy            =      -0.0000000000000000 [Eh]
	 Same-Spin Energy          =      -0.2914500766427674 [Eh]
	 Opposite-Spin Energy      =      -0.9560141989770082 [Eh]
	 Correlation Energy        =      -1.2474642756197756 [Eh]
	 Total Energy              =    -629.8770223926136396 [Eh]

	 ================> DF-SCS-MP2 Energies <==================
	-----------------------------------------------------------
	 SCS Same-Spin Scale       =       0.3333333333333333 [-]
	 SCS Opposite-Spin Scale   =       1.2000000000000000 [-]
	 SCS Same-Spin Energy      =      -0.0971500255475891 [Eh]
	 SCS Opposite-Spin Energy  =      -1.1472170387724099 [Eh]
	 SCS Correlation Energy    =      -1.2443670643199991 [Eh]
	 SCS Total Energy          =    -629.8739251813138935 [Eh]
	-----------------------------------------------------------

  Dipole Moment: [D]
     X:    -0.3686      Y:     0.0048      Z:    -1.6005     Total:     1.6424

*** Psi4 exiting successfully. Buy a developer a beer!
