                               Psi4 1.4a3.dev225

  ==> Input File <==

--------------------------------------------------------------------------
#psi4
#
memory 32 gb

molecule  {
0 1
  S        1.9015010     0.0014740    -0.5114990
  O        0.2966630    -0.0047940     1.6103990
  C       -0.8837990     0.0013960    -0.4908930
  C       -1.6918460     1.2669440    -0.1967440
  C       -1.6921440    -1.2655900    -0.2038620
  C        0.3503050    -0.0012110     0.3916140
  H       -0.5708550     0.0043180    -1.5417560
  H       -2.5996000     1.2838970    -0.8066260
  H       -1.1130310     2.1686550    -0.4169050
  H       -1.9752560     1.2862630     0.8584890
  H       -2.5999060    -1.2788960    -0.8138230
  H       -1.1117860    -2.1603294    -0.4471856
  H       -1.9755470    -1.2907820     0.8512470
  H        2.6553200    -0.0017420     0.5985790
units angstrom
no_reorient  #important for SAPT in psi4, default
symmetry c1  #important for SAPT in psi4, default
}

set PROPERTIES_ORIGIN ["COM"]
properties('MP2/aug-cc-pvtz', properties = ['dipole'])
--------------------------------------------------------------------------

    Molecular point group: c1
  Charge       = 0
  Multiplicity = 1
  Basis Set: AUG-CC-PVTZ
    Blend: AUG-CC-PVTZ
  Basis Set: (AUG-CC-PVTZ AUX)
    Blend: AUG-CC-PVTZ-JKFIT

    Orbital Energies [Eh]
    ---------------------

    Doubly Occupied:

       1A    -91.982469     2A    -20.560447     3A    -11.369525
       4A    -11.257759     5A    -11.230397     6A    -11.230269
       7A     -8.984462     8A     -6.665633     9A     -6.664542
      10A     -6.663751    11A     -1.398236    12A     -1.103478
      13A     -1.019766    14A     -0.946914    15A     -0.866377
      16A     -0.733834    17A     -0.670296    18A     -0.645285
      19A     -0.601088    20A     -0.598367    21A     -0.558576
      22A     -0.556429    23A     -0.528788    24A     -0.516959
      25A     -0.493179    26A     -0.490286    27A     -0.409167
      28A     -0.394171

  @DF-RHF Final Energy:  -628.63132199432914

   => Energetics <=

    Nuclear Repulsion Energy =            294.9866620313259773
    One-Electron Energy =               -1448.9550675617838351
    Two-Electron Energy =                 525.3370835361287163
    Total Energy =                       -628.6313219943291415
  Basis Set: (AUG-CC-PVTZ AUX)
    Blend: AUG-CC-PVTZ-RI
    Molecular point group: c1

    Geometry (in Angstrom), charge = 0, multiplicity = 1:

       Center              X                  Y                   Z               Mass
    ------------   -----------------  -----------------  -----------------  -----------------
         S            1.813383222240     0.001470271356    -0.527595076941    31.972071174400
         O            0.208545222240    -0.004797728644     1.594302923059    15.994914619570
         C           -0.971916777760     0.001392271356    -0.506989076941    12.000000000000
         C           -1.779963777760     1.266940271356    -0.212840076941    12.000000000000
         C           -1.780261777760    -1.265593728644    -0.219958076941    12.000000000000
         C            0.262187222240    -0.001214728644     0.375517923059    12.000000000000
         H           -0.658972777760     0.004314271356    -1.557852076941     1.007825032230
         H           -2.687717777760     1.283893271356    -0.822722076941     1.007825032230
         H           -1.201148777760     2.168651271356    -0.433001076941     1.007825032230
         H           -2.063373777760     1.286259271356     0.842392923059     1.007825032230
         H           -2.688023777760    -1.278899728644    -0.829919076941     1.007825032230
         H           -1.199903777760    -2.160333128644    -0.463281676941     1.007825032230
         H           -2.063664777760    -1.290785728644     0.835150923059     1.007825032230
         H            2.567202222240    -0.001745728644     0.582482923059     1.007825032230

  Basis Set: AUG-CC-PVTZ
    Blend: AUG-CC-PVTZ
  Basis Set: (AUG-CC-PVTZ AUX)
    Blend: AUG-CC-PVTZ-JKFIT
	 Reference Energy          =    -628.6313219943291415 [Eh]
	 Singles Energy            =      -0.0000000000000000 [Eh]
	 Same-Spin Energy          =      -0.2912355572753503 [Eh]
	 Opposite-Spin Energy      =      -0.9555722271568855 [Eh]
	 Correlation Energy        =      -1.2468077844322358 [Eh]
	 Total Energy              =    -629.8781297787613767 [Eh]

	 ================> DF-SCS-MP2 Energies <==================
	-----------------------------------------------------------
	 SCS Same-Spin Scale       =       0.3333333333333333 [-]
	 SCS Opposite-Spin Scale   =       1.2000000000000000 [-]
	 SCS Same-Spin Energy      =      -0.0970785190917834 [Eh]
	 SCS Opposite-Spin Energy  =      -1.1466866725882625 [Eh]
	 SCS Correlation Energy    =      -1.2437651916800458 [Eh]
	 SCS Total Energy          =    -629.8750871860091820 [Eh]
	-----------------------------------------------------------

  Dipole Moment: [D]
     X:    -0.6384      Y:     0.0056      Z:    -1.6030     Total:     1.7255

*** Psi4 exiting successfully. Buy a developer a beer!
