                               Psi4 1.4a3.dev225

  ==> Input File <==

--------------------------------------------------------------------------
#psi4
#
memory 32 gb

molecule  {
0 1
  S        1.9015010     0.0014740    -0.5114990
  O        0.2966630    -0.0047940     1.6103990
  C       -0.8837990     0.0013960    -0.4908930
  C       -1.6918460     1.2669440    -0.1967440
  C       -1.5864816    -1.0999766    -0.2413811
  C        0.3503050    -0.0012110     0.3916140
  H       -0.5708550     0.0043180    -1.5417560
  H       -2.5996000     1.2838970    -0.8066260
  H       -1.1130310     2.1686550    -0.4169050
  H       -1.9752560     1.2862630     0.8584890
  H       -2.5999060    -1.2788960    -0.8138230
  H       -1.1135430    -2.1661840    -0.4290990
  H       -1.9755470    -1.2907820     0.8512470
  H        2.6553200    -0.0017420     0.5985790
units angstrom
no_reorient  #important for SAPT in psi4, default
symmetry c1  #important for SAPT in psi4, default
}

set PROPERTIES_ORIGIN ["COM"]
properties('MP2/aug-cc-pvtz', properties = ['dipole'])
--------------------------------------------------------------------------

    Molecular point group: c1
  Charge       = 0
  Multiplicity = 1
  Basis Set: AUG-CC-PVTZ
    Blend: AUG-CC-PVTZ
  Basis Set: (AUG-CC-PVTZ AUX)
    Blend: AUG-CC-PVTZ-JKFIT

    Orbital Energies [Eh]
    ---------------------

    Doubly Occupied:

       1A    -91.984080     2A    -20.562855     3A    -11.372035
       4A    -11.249203     5A    -11.240802     6A    -11.231611
       7A     -8.986024     8A     -6.667191     9A     -6.666108
      10A     -6.665308    11A     -1.400990    12A     -1.140288
      13A     -1.024196    14A     -0.948553    15A     -0.858303
      16A     -0.742974    17A     -0.679774    18A     -0.658941
      19A     -0.613540    20A     -0.601700    21A     -0.562181
      22A     -0.547438    23A     -0.523877    24A     -0.522105
      25A     -0.487306    26A     -0.459563    27A     -0.407635
      28A     -0.395292

  @DF-RHF Final Energy:  -628.58164652104904

   => Energetics <=

    Nuclear Repulsion Energy =            298.4807538720091884
    One-Electron Energy =               -1455.7250563768816392
    Two-Electron Energy =                 528.6626559838233561
    Total Energy =                       -628.5816465210490378
  Basis Set: (AUG-CC-PVTZ AUX)
    Blend: AUG-CC-PVTZ-RI
    Molecular point group: c1

    Geometry (in Angstrom), charge = 0, multiplicity = 1:

       Center              X                  Y                   Z               Mass
    ------------   -----------------  -----------------  -----------------  -----------------
         S            1.801211895798    -0.017576813831    -0.523442401840    31.972071174400
         O            0.196373895798    -0.023844813831     1.598455598160    15.994914619570
         C           -0.984088104202    -0.017654813831    -0.502836401840    12.000000000000
         C           -1.792135104202     1.247893186169    -0.208687401840    12.000000000000
         C           -1.686770704202    -1.119027413831    -0.253324501840    12.000000000000
         C            0.250015895798    -0.020261813831     0.379670598160    12.000000000000
         H           -0.671144104202    -0.014732813831    -1.553699401840     1.007825032230
         H           -2.699889104202     1.264846186169    -0.818569401840     1.007825032230
         H           -1.213320104202     2.149604186169    -0.428848401840     1.007825032230
         H           -2.075545104202     1.267212186169     0.846545598160     1.007825032230
         H           -2.700195104202    -1.297946813831    -0.825766401840     1.007825032230
         H           -1.213832104202    -2.185234813831    -0.441042401840     1.007825032230
         H           -2.075836104202    -1.309832813831     0.839303598160     1.007825032230
         H            2.555030895798    -0.020792813831     0.586635598160     1.007825032230

  Basis Set: AUG-CC-PVTZ
    Blend: AUG-CC-PVTZ
  Basis Set: (AUG-CC-PVTZ AUX)
    Blend: AUG-CC-PVTZ-JKFIT
	 Reference Energy          =    -628.5816465210490378 [Eh]
	 Singles Energy            =      -0.0000000000000000 [Eh]
	 Same-Spin Energy          =      -0.2943523589075629 [Eh]
	 Opposite-Spin Energy      =      -0.9598542177385212 [Eh]
	 Correlation Energy        =      -1.2542065766460841 [Eh]
	 Total Energy              =    -629.8358530976951215 [Eh]

	 ================> DF-SCS-MP2 Energies <==================
	-----------------------------------------------------------
	 SCS Same-Spin Scale       =       0.3333333333333333 [-]
	 SCS Opposite-Spin Scale   =       1.2000000000000000 [-]
	 SCS Same-Spin Energy      =      -0.0981174529691876 [Eh]
	 SCS Opposite-Spin Energy  =      -1.1518250612862253 [Eh]
	 SCS Correlation Energy    =      -1.2499425142554130 [Eh]
	 SCS Total Energy          =    -629.8315890353044324 [Eh]
	-----------------------------------------------------------

  Dipole Moment: [D]
     X:    -0.5272      Y:     0.0725      Z:    -1.5610     Total:     1.6492

*** Psi4 exiting successfully. Buy a developer a beer!
