                               Psi4 1.4a3.dev225

  ==> Input File <==

--------------------------------------------------------------------------
#psi4
#
memory 32 gb

molecule  {
0 1
  S        1.9015010     0.0014740    -0.5114990
  O        0.3818122    -0.0047971     1.6111720
  C       -0.8837990     0.0013960    -0.4908930
  C       -1.6918460     1.2669440    -0.1967440
  C       -1.6921440    -1.2655900    -0.2038620
  C        0.3503050    -0.0012110     0.3916140
  H       -0.5708550     0.0043180    -1.5417560
  H       -2.5996000     1.2838970    -0.8066260
  H       -1.1130310     2.1686550    -0.4169050
  H       -1.9752560     1.2862630     0.8584890
  H       -2.5999060    -1.2788960    -0.8138230
  H       -1.1135430    -2.1661840    -0.4290990
  H       -1.9755470    -1.2907820     0.8512470
  H        2.6553200    -0.0017420     0.5985790
units angstrom
no_reorient  #important for SAPT in psi4, default
symmetry c1  #important for SAPT in psi4, default
}

set PROPERTIES_ORIGIN ["COM"]
properties('MP2/aug-cc-pvtz', properties = ['dipole'])
--------------------------------------------------------------------------

    Molecular point group: c1
  Charge       = 0
  Multiplicity = 1
  Basis Set: AUG-CC-PVTZ
    Blend: AUG-CC-PVTZ
  Basis Set: (AUG-CC-PVTZ AUX)
    Blend: AUG-CC-PVTZ-JKFIT

    Orbital Energies [Eh]
    ---------------------

    Doubly Occupied:

       1A    -91.977308     2A    -20.560845     3A    -11.370527
       4A    -11.261643     5A    -11.232768     6A    -11.232752
       7A     -8.979559     8A     -6.660724     9A     -6.659690
      10A     -6.658886    11A     -1.398908    12A     -1.106548
      13A     -1.016209    14A     -0.949228    15A     -0.868357
      16A     -0.735993    17A     -0.670277    18A     -0.645758
      19A     -0.601086    20A     -0.599620    21A     -0.561142
      22A     -0.557539    23A     -0.531659    24A     -0.517584
      25A     -0.494517    26A     -0.493457    27A     -0.406664
      28A     -0.390177

  @DF-RHF Final Energy:  -628.63067095690428

   => Energetics <=

    Nuclear Repulsion Energy =            294.8515947875208099
    One-Electron Energy =               -1448.6856793189117525
    Two-Electron Energy =                 525.2034135744867172
    Total Energy =                       -628.6306709569042823
  Basis Set: (AUG-CC-PVTZ AUX)
    Blend: AUG-CC-PVTZ-RI
    Molecular point group: c1

    Geometry (in Angstrom), charge = 0, multiplicity = 1:

       Center              X                  Y                   Z               Mass
    ------------   -----------------  -----------------  -----------------  -----------------
         S            1.800308254945     0.001527466592    -0.527889149026    31.972071174400
         O            0.280619454945    -0.004743633408     1.594781850974    15.994914619570
         C           -0.984991745055     0.001449466592    -0.507283149026    12.000000000000
         C           -1.793038745055     1.266997466592    -0.213134149026    12.000000000000
         C           -1.793336745055    -1.265536533408    -0.220252149026    12.000000000000
         C            0.249112254945    -0.001157533408     0.375223850974    12.000000000000
         H           -0.672047745055     0.004371466592    -1.558146149026     1.007825032230
         H           -2.700792745055     1.283950466592    -0.823016149026     1.007825032230
         H           -1.214223745055     2.168708466592    -0.433295149026     1.007825032230
         H           -2.076448745055     1.286316466592     0.842098850974     1.007825032230
         H           -2.701098745055    -1.278842533408    -0.830213149026     1.007825032230
         H           -1.214735745055    -2.166130533408    -0.445489149026     1.007825032230
         H           -2.076739745055    -1.290728533408     0.834856850974     1.007825032230
         H            2.554127254945    -0.001688533408     0.582188850974     1.007825032230

  Basis Set: AUG-CC-PVTZ
    Blend: AUG-CC-PVTZ
  Basis Set: (AUG-CC-PVTZ AUX)
    Blend: AUG-CC-PVTZ-JKFIT
	 Reference Energy          =    -628.6306709569042823 [Eh]
	 Singles Energy            =      -0.0000000000000000 [Eh]
	 Same-Spin Energy          =      -0.2911033073799027 [Eh]
	 Opposite-Spin Energy      =      -0.9552869443389300 [Eh]
	 Correlation Energy        =      -1.2463902517188328 [Eh]
	 Total Energy              =    -629.8770612086231040 [Eh]

	 ================> DF-SCS-MP2 Energies <==================
	-----------------------------------------------------------
	 SCS Same-Spin Scale       =       0.3333333333333333 [-]
	 SCS Opposite-Spin Scale   =       1.2000000000000000 [-]
	 SCS Same-Spin Energy      =      -0.0970344357933009 [Eh]
	 SCS Opposite-Spin Energy  =      -1.1463443332067160 [Eh]
	 SCS Correlation Energy    =      -1.2433787690000169 [Eh]
	 SCS Total Energy          =    -629.8740497259043423 [Eh]
	-----------------------------------------------------------

  Dipole Moment: [D]
     X:    -0.9104      Y:     0.0047      Z:    -1.5749     Total:     1.8191

*** Psi4 exiting successfully. Buy a developer a beer!
