                               Psi4 1.4a3.dev225

  ==> Input File <==

--------------------------------------------------------------------------
#psi4
#
memory 32 gb

molecule  {
0 1
  S        1.9015010     0.0014740    -0.5114990
  O        0.2754003    -0.0047905     1.6092772
  C       -0.8837990     0.0013960    -0.4908930
  C       -1.6918460     1.2669440    -0.1967440
  C       -1.6921440    -1.2655900    -0.2038620
  C        0.3503050    -0.0012110     0.3916140
  H       -0.5708550     0.0043180    -1.5417560
  H       -2.5996000     1.2838970    -0.8066260
  H       -1.1130310     2.1686550    -0.4169050
  H       -1.9752560     1.2862630     0.8584890
  H       -2.5999060    -1.2788960    -0.8138230
  H       -1.1135430    -2.1661840    -0.4290990
  H       -1.9755470    -1.2907820     0.8512470
  H        2.6553200    -0.0017420     0.5985790
units angstrom
no_reorient  #important for SAPT in psi4, default
symmetry c1  #important for SAPT in psi4, default
}

set PROPERTIES_ORIGIN ["COM"]
properties('MP2/aug-cc-pvtz', properties = ['dipole'])
--------------------------------------------------------------------------

    Molecular point group: c1
  Charge       = 0
  Multiplicity = 1
  Basis Set: AUG-CC-PVTZ
    Blend: AUG-CC-PVTZ
  Basis Set: (AUG-CC-PVTZ AUX)
    Blend: AUG-CC-PVTZ-JKFIT

    Orbital Energies [Eh]
    ---------------------

    Doubly Occupied:

       1A    -91.983726     2A    -20.560324     3A    -11.369313
       4A    -11.256939     5A    -11.229741     6A    -11.229725
       7A     -8.985655     8A     -6.666827     9A     -6.665723
      10A     -6.664934    11A     -1.398148    12A     -1.102650
      13A     -1.020608    14A     -0.946325    15A     -0.865979
      16A     -0.733504    17A     -0.670164    18A     -0.645466
      19A     -0.600741    20A     -0.598035    21A     -0.558145
      22A     -0.555224    23A     -0.528697    24A     -0.516912
      25A     -0.492311    26A     -0.490028    27A     -0.409601
      28A     -0.395123

  @DF-RHF Final Energy:  -628.63115020283215

   => Energetics <=

    Nuclear Repulsion Energy =            295.0290402988703704
    One-Electron Energy =               -1449.0392504866993022
    Two-Electron Energy =                 525.3790599849968430
    Total Energy =                       -628.6311502028321456
  Basis Set: (AUG-CC-PVTZ AUX)
    Blend: AUG-CC-PVTZ-RI
    Molecular point group: c1

    Geometry (in Angstrom), charge = 0, multiplicity = 1:

       Center              X                  Y                   Z               Mass
    ------------   -----------------  -----------------  -----------------  -----------------
         S            1.816669458710     0.001526451819    -0.527597816864    31.972071174400
         O            0.190568758710    -0.004738048181     1.593178383136    15.994914619570
         C           -0.968630541290     0.001448451819    -0.506991816864    12.000000000000
         C           -1.776677541290     1.266996451819    -0.212842816864    12.000000000000
         C           -1.776975541290    -1.265537548181    -0.219960816864    12.000000000000
         C            0.265473458710    -0.001158548181     0.375515183136    12.000000000000
         H           -0.655686541290     0.004370451819    -1.557854816864     1.007825032230
         H           -2.684431541290     1.283949451819    -0.822724816864     1.007825032230
         H           -1.197862541290     2.168707451819    -0.433003816864     1.007825032230
         H           -2.060087541290     1.286315451819     0.842390183136     1.007825032230
         H           -2.684737541290    -1.278843548181    -0.829921816864     1.007825032230
         H           -1.198374541290    -2.166131548181    -0.445197816864     1.007825032230
         H           -2.060378541290    -1.290729548181     0.835148183136     1.007825032230
         H            2.570488458710    -0.001689548181     0.582480183136     1.007825032230

  Basis Set: AUG-CC-PVTZ
    Blend: AUG-CC-PVTZ
  Basis Set: (AUG-CC-PVTZ AUX)
    Blend: AUG-CC-PVTZ-JKFIT
	 Reference Energy          =    -628.6311502028321456 [Eh]
	 Singles Energy            =      -0.0000000000000000 [Eh]
	 Same-Spin Energy          =      -0.2912778435544401 [Eh]
	 Opposite-Spin Energy      =      -0.9556563121485601 [Eh]
	 Correlation Energy        =      -1.2469341557030003 [Eh]
	 Total Energy              =    -629.8780843585351477 [Eh]

	 ================> DF-SCS-MP2 Energies <==================
	-----------------------------------------------------------
	 SCS Same-Spin Scale       =       0.3333333333333333 [-]
	 SCS Opposite-Spin Scale   =       1.2000000000000000 [-]
	 SCS Same-Spin Energy      =      -0.0970926145181467 [Eh]
	 SCS Opposite-Spin Energy  =      -1.1467875745782721 [Eh]
	 SCS Correlation Energy    =      -1.2438801890964188 [Eh]
	 SCS Total Energy          =    -629.8750303919285898 [Eh]
	-----------------------------------------------------------

  Dipole Moment: [D]
     X:    -0.5700      Y:     0.0048      Z:    -1.6001     Total:     1.6986

*** Psi4 exiting successfully. Buy a developer a beer!
