                               Psi4 1.4a3.dev225

  ==> Input File <==

--------------------------------------------------------------------------
#psi4
#
memory 32 gb

molecule  {
0 1
  S        1.9015010     0.0014740    -0.5114990
  O        0.2966630    -0.0047940     1.6103990
  C       -0.8837990     0.0013960    -0.4908930
  C       -1.6918460     1.2669440    -0.1967440
  C       -1.6921440    -1.2655900    -0.2038620
  C        0.3503050    -0.0012110     0.3916140
  H       -0.5708550     0.0043180    -1.5417560
  H       -2.5996000     1.2838970    -0.8066260
  H       -1.1130310     2.1686550    -0.4169050
  H       -1.9752560     1.2862630     0.8584890
  H       -2.5999060    -1.2788960    -0.8138230
  H       -1.1135430    -2.1661840    -0.4290990
  H       -1.9755470    -1.2907820     0.8512470
  H        2.6553200    -0.0017420     0.5985790
units angstrom
no_reorient  #important for SAPT in psi4, default
symmetry c1  #important for SAPT in psi4, default
}

set PROPERTIES_ORIGIN ["COM"]
properties('MP2/aug-cc-pvtz', properties = ['dipole'])
--------------------------------------------------------------------------

    Molecular point group: c1
  Charge       = 0
  Multiplicity = 1
  Basis Set: AUG-CC-PVTZ
    Blend: AUG-CC-PVTZ
  Basis Set: (AUG-CC-PVTZ AUX)
    Blend: AUG-CC-PVTZ-JKFIT

    Orbital Energies [Eh]
    ---------------------

    Doubly Occupied:

       1A    -91.982463     2A    -20.560450     3A    -11.369542
       4A    -11.257878     5A    -11.230356     6A    -11.230340
       7A     -8.984456     8A     -6.665627     9A     -6.664536
      10A     -6.663745    11A     -1.398244    12A     -1.103445
      13A     -1.019760    14A     -0.946910    15A     -0.866454
      16A     -0.734001    17A     -0.670144    18A     -0.645525
      19A     -0.600852    20A     -0.598332    21A     -0.558726
      22A     -0.555680    23A     -0.529299    24A     -0.517001
      25A     -0.492813    26A     -0.490725    27A     -0.409170
      28A     -0.394164

  @DF-RHF Final Energy:  -628.63136713771678

   => Energetics <=

    Nuclear Repulsion Energy =            294.9800706750664858
    One-Electron Energy =               -1448.9416045468467473
    Two-Electron Energy =                 525.3301667340635959
    Total Energy =                       -628.6313671377167793
  Basis Set: (AUG-CC-PVTZ AUX)
    Blend: AUG-CC-PVTZ-RI
    Molecular point group: c1

    Geometry (in Angstrom), charge = 0, multiplicity = 1:

       Center              X                  Y                   Z               Mass
    ------------   -----------------  -----------------  -----------------  -----------------
         S            1.813400243826     0.001526989956    -0.527770297558    31.972071174400
         O            0.208562243826    -0.004741010044     1.594127702442    15.994914619570
         C           -0.971899756174     0.001448989956    -0.507164297558    12.000000000000
         C           -1.779946756174     1.266996989956    -0.213015297558    12.000000000000
         C           -1.780244756174    -1.265537010044    -0.220133297558    12.000000000000
         C            0.262204243826    -0.001158010044     0.375342702442    12.000000000000
         H           -0.658955756174     0.004370989956    -1.558027297558     1.007825032230
         H           -2.687700756174     1.283949989956    -0.822897297558     1.007825032230
         H           -1.201131756174     2.168707989956    -0.433176297558     1.007825032230
         H           -2.063356756174     1.286315989956     0.842217702442     1.007825032230
         H           -2.688006756174    -1.278843010044    -0.830094297558     1.007825032230
         H           -1.201643756174    -2.166131010044    -0.445370297558     1.007825032230
         H           -2.063647756174    -1.290729010044     0.834975702442     1.007825032230
         H            2.567219243826    -0.001689010044     0.582307702442     1.007825032230

  Basis Set: AUG-CC-PVTZ
    Blend: AUG-CC-PVTZ
  Basis Set: (AUG-CC-PVTZ AUX)
    Blend: AUG-CC-PVTZ-JKFIT
	 Reference Energy          =    -628.6313671377167793 [Eh]
	 Singles Energy            =      -0.0000000000000000 [Eh]
	 Same-Spin Energy          =      -0.2912319401803776 [Eh]
	 Opposite-Spin Energy      =      -0.9555596457677316 [Eh]
	 Correlation Energy        =      -1.2467915859481091 [Eh]
	 Total Energy              =    -629.8781587236649102 [Eh]

	 ================> DF-SCS-MP2 Energies <==================
	-----------------------------------------------------------
	 SCS Same-Spin Scale       =       0.3333333333333333 [-]
	 SCS Opposite-Spin Scale   =       1.2000000000000000 [-]
	 SCS Same-Spin Energy      =      -0.0970773133934592 [Eh]
	 SCS Opposite-Spin Energy  =      -1.1466715749212779 [Eh]
	 SCS Correlation Energy    =      -1.2437488883147372 [Eh]
	 SCS Total Energy          =    -629.8751160260314919 [Eh]
	-----------------------------------------------------------

  Dipole Moment: [D]
     X:    -0.6377      Y:     0.0048      Z:    -1.5975     Total:     1.7201

*** Psi4 exiting successfully. Buy a developer a beer!
