                               Psi4 1.4a3.dev225

  ==> Input File <==

--------------------------------------------------------------------------
#psi4
#
memory 32 gb

molecule  {
0 1
  S        1.9015010     0.0014740    -0.5114990
  O        0.2966630    -0.0047940     1.6103990
  C       -0.8837990     0.0013960    -0.4908930
  C       -1.6918460     1.2669440    -0.1967440
  C       -1.6921440    -1.2655900    -0.2038620
  C        0.3511844    -0.0011523     0.3716334
  H       -0.5708550     0.0043180    -1.5417560
  H       -2.5996000     1.2838970    -0.8066260
  H       -1.1130310     2.1686550    -0.4169050
  H       -1.9752560     1.2862630     0.8584890
  H       -2.5999060    -1.2788960    -0.8138230
  H       -1.1135430    -2.1661840    -0.4290990
  H       -1.9755470    -1.2907820     0.8512470
  H        2.6553200    -0.0017420     0.5985790
units angstrom
no_reorient  #important for SAPT in psi4, default
symmetry c1  #important for SAPT in psi4, default
}

set PROPERTIES_ORIGIN ["COM"]
properties('MP2/aug-cc-pvtz', properties = ['dipole'])
--------------------------------------------------------------------------

    Molecular point group: c1
  Charge       = 0
  Multiplicity = 1
  Basis Set: AUG-CC-PVTZ
    Blend: AUG-CC-PVTZ
  Basis Set: (AUG-CC-PVTZ AUX)
    Blend: AUG-CC-PVTZ-JKFIT

    Orbital Energies [Eh]
    ---------------------

    Doubly Occupied:

       1A    -91.984969     2A    -20.557439     3A    -11.370624
       4A    -11.257907     5A    -11.230617     6A    -11.230601
       7A     -8.987006     8A     -6.668187     9A     -6.667107
      10A     -6.666319    11A     -1.383765    12A     -1.105071
      13A     -1.023115    14A     -0.947066    15A     -0.869270
      16A     -0.732869    17A     -0.669018    18A     -0.642438
      19A     -0.600141    20A     -0.596619    21A     -0.556225
      22A     -0.554899    23A     -0.526142    24A     -0.516495
      25A     -0.493166    26A     -0.489022    27A     -0.412090
      28A     -0.394714

  @DF-RHF Final Energy:  -628.62860979708012

   => Energetics <=

    Nuclear Repulsion Energy =            294.9453572059571229
    One-Electron Energy =               -1448.8821271191238793
    Two-Electron Energy =                 525.3081601160865830
    Total Energy =                       -628.6286097970801166
  Basis Set: (AUG-CC-PVTZ AUX)
    Blend: AUG-CC-PVTZ-RI
    Molecular point group: c1

    Geometry (in Angstrom), charge = 0, multiplicity = 1:

       Center              X                  Y                   Z               Mass
    ------------   -----------------  -----------------  -----------------  -----------------
         S            1.813298803453     0.001520218805    -0.525465499384    31.972071174400
         O            0.208460803453    -0.004747781195     1.596432500616    15.994914619570
         C           -0.972001196547     0.001442218805    -0.504859499384    12.000000000000
         C           -1.780048196547     1.266990218805    -0.210710499384    12.000000000000
         C           -1.780346196547    -1.265543781195    -0.217828499384    12.000000000000
         C            0.262982203453    -0.001106081195     0.357666900616    12.000000000000
         H           -0.659057196547     0.004364218805    -1.555722499384     1.007825032230
         H           -2.687802196547     1.283943218805    -0.820592499384     1.007825032230
         H           -1.201233196547     2.168701218805    -0.430871499384     1.007825032230
         H           -2.063458196547     1.286309218805     0.844522500616     1.007825032230
         H           -2.688108196547    -1.278849781195    -0.827789499384     1.007825032230
         H           -1.201745196547    -2.166137781195    -0.443065499384     1.007825032230
         H           -2.063749196547    -1.290735781195     0.837280500616     1.007825032230
         H            2.567117803453    -0.001695781195     0.584612500616     1.007825032230

  Basis Set: AUG-CC-PVTZ
    Blend: AUG-CC-PVTZ
  Basis Set: (AUG-CC-PVTZ AUX)
    Blend: AUG-CC-PVTZ-JKFIT
	 Reference Energy          =    -628.6286097970801166 [Eh]
	 Singles Energy            =      -0.0000000000000000 [Eh]
	 Same-Spin Energy          =      -0.2917852765000031 [Eh]
	 Opposite-Spin Energy      =      -0.9566905399231393 [Eh]
	 Correlation Energy        =      -1.2484758164231424 [Eh]
	 Total Energy              =    -629.8770856135032545 [Eh]

	 ================> DF-SCS-MP2 Energies <==================
	-----------------------------------------------------------
	 SCS Same-Spin Scale       =       0.3333333333333333 [-]
	 SCS Opposite-Spin Scale   =       1.2000000000000000 [-]
	 SCS Same-Spin Energy      =      -0.0972617588333343 [Eh]
	 SCS Opposite-Spin Energy  =      -1.1480286479077673 [Eh]
	 SCS Correlation Energy    =      -1.2452904067411017 [Eh]
	 SCS Total Energy          =    -629.8739002038212220 [Eh]
	-----------------------------------------------------------

  Dipole Moment: [D]
     X:    -0.5667      Y:     0.0051      Z:    -1.6994     Total:     1.7914

*** Psi4 exiting successfully. Buy a developer a beer!
