                               Psi4 1.4a3.dev225

  ==> Input File <==

--------------------------------------------------------------------------
#psi4
#
memory 32 gb

molecule  {
0 1
  S        1.9015010     0.0014740    -0.5114990
  O        0.2966630    -0.0047940     1.6103990
  C       -0.8837990     0.0013960    -0.4908930
  C       -1.6918460     1.2669440    -0.1967440
  C       -1.6921440    -1.2655900    -0.2038620
  C        0.3503050    -0.0012110     0.3916140
  H       -0.6279369     0.0037850    -1.3500756
  H       -2.5996000     1.2838970    -0.8066260
  H       -1.1130310     2.1686550    -0.4169050
  H       -1.9752560     1.2862630     0.8584890
  H       -2.5999060    -1.2788960    -0.8138230
  H       -1.1135430    -2.1661840    -0.4290990
  H       -1.9755470    -1.2907820     0.8512470
  H        2.6553200    -0.0017420     0.5985790
units angstrom
no_reorient  #important for SAPT in psi4, default
symmetry c1  #important for SAPT in psi4, default
}

set PROPERTIES_ORIGIN ["COM"]
properties('MP2/aug-cc-pvtz', properties = ['dipole'])
--------------------------------------------------------------------------

    Molecular point group: c1
  Charge       = 0
  Multiplicity = 1
  Basis Set: AUG-CC-PVTZ
    Blend: AUG-CC-PVTZ
  Basis Set: (AUG-CC-PVTZ AUX)
    Blend: AUG-CC-PVTZ-JKFIT

    Orbital Energies [Eh]
    ---------------------

    Doubly Occupied:

       1A    -91.982874     2A    -20.559333     3A    -11.368188
       4A    -11.233012     5A    -11.229014     6A    -11.228960
       7A     -8.984933     8A     -6.666119     9A     -6.665043
      10A     -6.664247    11A     -1.397155    12A     -1.116208
      13A     -1.020243    14A     -0.945804    15A     -0.876309
      16A     -0.760778    17A     -0.676262    18A     -0.644897
      19A     -0.602982    20A     -0.597337    21A     -0.558147
      22A     -0.554943    23A     -0.528545    24A     -0.521574
      25A     -0.506045    26A     -0.489137    27A     -0.408493
      28A     -0.394603

  @DF-RHF Final Energy:  -628.59868607494980

   => Energetics <=

    Nuclear Repulsion Energy =            296.0857065946267994
    One-Electron Energy =               -1451.0064118918899112
    Two-Electron Energy =                 526.3220192223133154
    Total Energy =                       -628.5986860749497964
  Basis Set: (AUG-CC-PVTZ AUX)
    Blend: AUG-CC-PVTZ-RI
    Molecular point group: c1

    Geometry (in Angstrom), charge = 0, multiplicity = 1:

       Center              X                  Y                   Z               Mass
    ------------   -----------------  -----------------  -----------------  -----------------
         S            1.813953245812     0.001532153590    -0.529627272219    31.972071174400
         O            0.209115245812    -0.004735846410     1.592270727781    15.994914619570
         C           -0.971346754188     0.001454153590    -0.509021272219    12.000000000000
         C           -1.779393754188     1.267002153590    -0.214872272219    12.000000000000
         C           -1.779691754188    -1.265531846410    -0.221990272219    12.000000000000
         C            0.262757245812    -0.001152846410     0.373485727781    12.000000000000
         H           -0.715484654188     0.003843153590    -1.368203872219     1.007825032230
         H           -2.687147754188     1.283955153590    -0.824754272219     1.007825032230
         H           -1.200578754188     2.168713153590    -0.435033272219     1.007825032230
         H           -2.062803754188     1.286321153590     0.840360727781     1.007825032230
         H           -2.687453754188    -1.278837846410    -0.831951272219     1.007825032230
         H           -1.201090754188    -2.166125846410    -0.447227272219     1.007825032230
         H           -2.063094754188    -1.290723846410     0.833118727781     1.007825032230
         H            2.567772245812    -0.001683846410     0.580450727781     1.007825032230

  Basis Set: AUG-CC-PVTZ
    Blend: AUG-CC-PVTZ
  Basis Set: (AUG-CC-PVTZ AUX)
    Blend: AUG-CC-PVTZ-JKFIT
	 Reference Energy          =    -628.5986860749497964 [Eh]
	 Singles Energy            =      -0.0000000000000000 [Eh]
	 Same-Spin Energy          =      -0.2911249240687872 [Eh]
	 Opposite-Spin Energy      =      -0.9547886462952031 [Eh]
	 Correlation Energy        =      -1.2459135703639903 [Eh]
	 Total Energy              =    -629.8445996453137923 [Eh]

	 ================> DF-SCS-MP2 Energies <==================
	-----------------------------------------------------------
	 SCS Same-Spin Scale       =       0.3333333333333333 [-]
	 SCS Opposite-Spin Scale   =       1.2000000000000000 [-]
	 SCS Same-Spin Energy      =      -0.0970416413562624 [Eh]
	 SCS Opposite-Spin Energy  =      -1.1457463755542436 [Eh]
	 SCS Correlation Energy    =      -1.2427880169105061 [Eh]
	 SCS Total Energy          =    -629.8414740918602774 [Eh]
	-----------------------------------------------------------

  Dipole Moment: [D]
     X:    -0.5911      Y:     0.0050      Z:    -1.6535     Total:     1.7560

*** Psi4 exiting successfully. Buy a developer a beer!
