                               Psi4 1.4a3.dev225

  ==> Input File <==

--------------------------------------------------------------------------
#psi4
#
memory 32 gb

molecule  {
0 1
  S        1.9015010     0.0014740    -0.5114990
  O        0.2966630    -0.0047940     1.6103990
  C       -0.8837990     0.0013960    -0.4908930
  C       -1.6918460     1.2669440    -0.1967440
  C       -1.6921440    -1.2655900    -0.2038620
  C        0.3503050    -0.0012110     0.3916140
  H       -0.5708550     0.0043180    -1.5417560
  H       -2.5996000     1.2838970    -0.8066260
  H       -1.1024482     2.1851414    -0.4209303
  H       -1.9752560     1.2862630     0.8584890
  H       -2.5999060    -1.2788960    -0.8138230
  H       -1.1135430    -2.1661840    -0.4290990
  H       -1.9755470    -1.2907820     0.8512470
  H        2.6553200    -0.0017420     0.5985790
units angstrom
no_reorient  #important for SAPT in psi4, default
symmetry c1  #important for SAPT in psi4, default
}

set PROPERTIES_ORIGIN ["COM"]
properties('MP2/aug-cc-pvtz', properties = ['dipole'])
--------------------------------------------------------------------------

    Molecular point group: c1
  Charge       = 0
  Multiplicity = 1
  Basis Set: AUG-CC-PVTZ
    Blend: AUG-CC-PVTZ
  Basis Set: (AUG-CC-PVTZ AUX)
    Blend: AUG-CC-PVTZ-JKFIT

    Orbital Energies [Eh]
    ---------------------

    Doubly Occupied:

       1A    -91.982465     2A    -20.560474     3A    -11.369584
       4A    -11.258076     5A    -11.232776     6A    -11.230524
       7A     -8.984457     8A     -6.665628     9A     -6.664538
      10A     -6.663746    11A     -1.398267    12A     -1.103319
      13A     -1.019707    14A     -0.945722    15A     -0.866099
      16A     -0.733916    17A     -0.670112    18A     -0.644969
      19A     -0.599664    20A     -0.598260    21A     -0.558706
      22A     -0.555486    23A     -0.528607    24A     -0.517083
      25A     -0.492836    26A     -0.489890    27A     -0.409205
      28A     -0.394159

  @DF-RHF Final Energy:  -628.63085951875473

   => Energetics <=

    Nuclear Repulsion Energy =            294.8973052793155034
    One-Electron Energy =               -1448.7797777596508695
    Two-Electron Energy =                 525.2516129615805767
    Total Energy =                       -628.6308595187547326
  Basis Set: (AUG-CC-PVTZ AUX)
    Blend: AUG-CC-PVTZ-RI
    Molecular point group: c1

    Geometry (in Angstrom), charge = 0, multiplicity = 1:

       Center              X                  Y                   Z               Mass
    ------------   -----------------  -----------------  -----------------  -----------------
         S            1.813297719043     0.001367271868    -0.527731300978    31.972071174400
         O            0.208459719043    -0.004900728132     1.594166699022    15.994914619570
         C           -0.972002280957     0.001289271868    -0.507125300978    12.000000000000
         C           -1.780049280957     1.266837271868    -0.212976300978    12.000000000000
         C           -1.780347280957    -1.265696728132    -0.220094300978    12.000000000000
         C            0.262101719043    -0.001317728132     0.375381699022    12.000000000000
         H           -0.659058280957     0.004211271868    -1.557988300978     1.007825032230
         H           -2.687803280957     1.283790271868    -0.822858300978     1.007825032230
         H           -1.190651480957     2.185034671868    -0.437162600978     1.007825032230
         H           -2.063459280957     1.286156271868     0.842256699022     1.007825032230
         H           -2.688109280957    -1.279002728132    -0.830055300978     1.007825032230
         H           -1.201746280957    -2.166290728132    -0.445331300978     1.007825032230
         H           -2.063750280957    -1.290888728132     0.835014699022     1.007825032230
         H            2.567116719043    -0.001848728132     0.582346699022     1.007825032230

  Basis Set: AUG-CC-PVTZ
    Blend: AUG-CC-PVTZ
  Basis Set: (AUG-CC-PVTZ AUX)
    Blend: AUG-CC-PVTZ-JKFIT
	 Reference Energy          =    -628.6308595187547326 [Eh]
	 Singles Energy            =      -0.0000000000000000 [Eh]
	 Same-Spin Energy          =      -0.2912279824693793 [Eh]
	 Opposite-Spin Energy      =      -0.9556851748639477 [Eh]
	 Correlation Energy        =      -1.2469131573333270 [Eh]
	 Total Energy              =    -629.8777726760880569 [Eh]

	 ================> DF-SCS-MP2 Energies <==================
	-----------------------------------------------------------
	 SCS Same-Spin Scale       =       0.3333333333333333 [-]
	 SCS Opposite-Spin Scale   =       1.2000000000000000 [-]
	 SCS Same-Spin Energy      =      -0.0970759941564598 [Eh]
	 SCS Opposite-Spin Energy  =      -1.1468222098367371 [Eh]
	 SCS Correlation Energy    =      -1.2438982039931969 [Eh]
	 SCS Total Energy          =    -629.8747577227479724 [Eh]
	-----------------------------------------------------------

  Dipole Moment: [D]
     X:    -0.6406      Y:    -0.0067      Z:    -1.5959     Total:     1.7197

*** Psi4 exiting successfully. Buy a developer a beer!
