                               Psi4 1.4a3.dev225

  ==> Input File <==

--------------------------------------------------------------------------
#psi4
#
memory 32 gb

molecule  {
0 1
  S        1.9015010     0.0014740    -0.5114990
  O        0.2966630    -0.0047940     1.6103990
  C       -0.8837990     0.0013960    -0.4908930
  C       -1.6918460     1.2669440    -0.1967440
  C       -1.6921440    -1.2655900    -0.2038620
  C        0.3503050    -0.0012110     0.3916140
  H       -0.5708550     0.0043180    -1.5417560
  H       -2.5996000     1.2838970    -0.8066260
  H       -1.1130310     2.1686550    -0.4169050
  H       -1.9752560     1.2862630     0.8584890
  H       -2.5999060    -1.2788960    -0.8138230
  H       -1.1075777    -2.1411379    -0.5009790
  H       -1.9755470    -1.2907820     0.8512470
  H        2.6553200    -0.0017420     0.5985790
units angstrom
no_reorient  #important for SAPT in psi4, default
symmetry c1  #important for SAPT in psi4, default
}

set PROPERTIES_ORIGIN ["COM"]
properties('MP2/aug-cc-pvtz', properties = ['dipole'])
--------------------------------------------------------------------------

    Molecular point group: c1
  Charge       = 0
  Multiplicity = 1
  Basis Set: AUG-CC-PVTZ
    Blend: AUG-CC-PVTZ
  Basis Set: (AUG-CC-PVTZ AUX)
    Blend: AUG-CC-PVTZ-JKFIT

    Orbital Energies [Eh]
    ---------------------

    Doubly Occupied:

       1A    -91.982488     2A    -20.560442     3A    -11.369481
       4A    -11.257421     5A    -11.230552     6A    -11.230014
       7A     -8.984482     8A     -6.665653     9A     -6.664563
      10A     -6.663772    11A     -1.398218    12A     -1.103600
      13A     -1.019790    14A     -0.946968    15A     -0.866166
      16A     -0.733370    17A     -0.670812    18A     -0.644572
      19A     -0.601946    20A     -0.598423    21A     -0.558806
      22A     -0.558004    23A     -0.527258    24A     -0.516828
      25A     -0.494251    26A     -0.488614    27A     -0.409164
      28A     -0.394196

  @DF-RHF Final Energy:  -628.63076713307112

   => Energetics <=

    Nuclear Repulsion Energy =            295.0079511868312352
    One-Electron Energy =               -1448.9977280838156730
    Two-Electron Energy =                 525.3590097639133774
    Total Energy =                       -628.6307671330711173
  Basis Set: (AUG-CC-PVTZ AUX)
    Blend: AUG-CC-PVTZ-RI
    Molecular point group: c1

    Geometry (in Angstrom), charge = 0, multiplicity = 1:

       Center              X                  Y                   Z               Mass
    ------------   -----------------  -----------------  -----------------  -----------------
         S            1.813342452779     0.001284346613    -0.527073933513    31.972071174400
         O            0.208504452779    -0.004983653387     1.594824066487    15.994914619570
         C           -0.971957547221     0.001206346613    -0.506467933513    12.000000000000
         C           -1.780004547221     1.266754346613    -0.212318933513    12.000000000000
         C           -1.780302547221    -1.265779653387    -0.219436933513    12.000000000000
         C            0.262146452779    -0.001400653387     0.376039066487    12.000000000000
         H           -0.659013547221     0.004128346613    -1.557330933513     1.007825032230
         H           -2.687758547221     1.283707346613    -0.822200933513     1.007825032230
         H           -1.201189547221     2.168465346613    -0.432479933513     1.007825032230
         H           -2.063414547221     1.286073346613     0.842914066487     1.007825032230
         H           -2.688064547221    -1.279085653387    -0.829397933513     1.007825032230
         H           -1.195736247221    -2.141327553387    -0.516553933513     1.007825032230
         H           -2.063705547221    -1.290971653387     0.835672066487     1.007825032230
         H            2.567161452779    -0.001931653387     0.583004066487     1.007825032230

  Basis Set: AUG-CC-PVTZ
    Blend: AUG-CC-PVTZ
  Basis Set: (AUG-CC-PVTZ AUX)
    Blend: AUG-CC-PVTZ-JKFIT
	 Reference Energy          =    -628.6307671330711173 [Eh]
	 Singles Energy            =      -0.0000000000000000 [Eh]
	 Same-Spin Energy          =      -0.2912656462147600 [Eh]
	 Opposite-Spin Energy      =      -0.9556379483082950 [Eh]
	 Correlation Energy        =      -1.2469035945230549 [Eh]
	 Total Energy              =    -629.8776707275941362 [Eh]

	 ================> DF-SCS-MP2 Energies <==================
	-----------------------------------------------------------
	 SCS Same-Spin Scale       =       0.3333333333333333 [-]
	 SCS Opposite-Spin Scale   =       1.2000000000000000 [-]
	 SCS Same-Spin Energy      =      -0.0970885487382533 [Eh]
	 SCS Opposite-Spin Energy  =      -1.1467655379699540 [Eh]
	 SCS Correlation Energy    =      -1.2438540867082073 [Eh]
	 SCS Total Energy          =    -629.8746212197793284 [Eh]
	-----------------------------------------------------------

  Dipole Moment: [D]
     X:    -0.6408      Y:     0.0086      Z:    -1.6186     Total:     1.7408

*** Psi4 exiting successfully. Buy a developer a beer!
