                               Psi4 1.4a3.dev225

  ==> Input File <==

--------------------------------------------------------------------------
#psi4
#
memory 32 gb

molecule  {
0 1
  S        1.9015010     0.0014740    -0.5114990
  O        0.2966630    -0.0047940     1.6103990
  C       -0.7778125    -0.0519812    -0.3833435
  C       -1.6918460     1.2669440    -0.1967440
  C       -1.6921440    -1.2655900    -0.2038620
  C        0.3503050    -0.0012110     0.3916140
  H       -0.5708550     0.0043180    -1.5417560
  H       -2.5996000     1.2838970    -0.8066260
  H       -1.1130310     2.1686550    -0.4169050
  H       -1.9752560     1.2862630     0.8584890
  H       -2.5999060    -1.2788960    -0.8138230
  H       -1.1135430    -2.1661840    -0.4290990
  H       -1.9755470    -1.2907820     0.8512470
  H        2.6553200    -0.0017420     0.5985790
units angstrom
no_reorient  #important for SAPT in psi4, default
symmetry c1  #important for SAPT in psi4, default
}

set PROPERTIES_ORIGIN ["COM"]
properties('MP2/aug-cc-pvtz', properties = ['dipole'])
--------------------------------------------------------------------------

    Molecular point group: c1
  Charge       = 0
  Multiplicity = 1
  Basis Set: AUG-CC-PVTZ
    Blend: AUG-CC-PVTZ
  Basis Set: (AUG-CC-PVTZ AUX)
    Blend: AUG-CC-PVTZ-JKFIT

    Orbital Energies [Eh]
    ---------------------

    Doubly Occupied:

       1A    -91.982506     2A    -20.557608     3A    -11.363149
       4A    -11.258522     5A    -11.239088     6A    -11.234409
       7A     -8.984445     8A     -6.665602     9A     -6.664498
      10A     -6.663700    11A     -1.401661    12A     -1.112378
      13A     -1.019495    14A     -0.943396    15A     -0.896608
      16A     -0.722560    17A     -0.675354    18A     -0.646785
      19A     -0.610387    20A     -0.594663    21A     -0.564244
      22A     -0.552566    23A     -0.531763    24A     -0.530335
      25A     -0.477759    26A     -0.457182    27A     -0.420719
      28A     -0.393971

  @DF-RHF Final Energy:  -628.60225859181526

   => Energetics <=

    Nuclear Repulsion Energy =            296.7389899335165069
    One-Electron Energy =               -1452.3517965093510611
    Two-Electron Energy =                 527.0105479840193539
    Total Energy =                       -628.6022585918152572
  Basis Set: (AUG-CC-PVTZ AUX)
    Blend: AUG-CC-PVTZ-RI
    Molecular point group: c1

    Geometry (in Angstrom), charge = 0, multiplicity = 1:

       Center              X                  Y                   Z               Mass
    ------------   -----------------  -----------------  -----------------  -----------------
         S            1.801174510280     0.007684146053    -0.540176325967    31.972071174400
         O            0.196336510280     0.001416146053     1.581721674033    15.994914619570
         C           -0.878138989720    -0.045771053947    -0.412020825967    12.000000000000
         C           -1.792172489720     1.273154146053    -0.225421325967    12.000000000000
         C           -1.792470489720    -1.259379853947    -0.232539325967    12.000000000000
         C            0.249978510280     0.004999146053     0.362936674033    12.000000000000
         H           -0.671181489720     0.010528146053    -1.570433325967     1.007825032230
         H           -2.699926489720     1.290107146053    -0.835303325967     1.007825032230
         H           -1.213357489720     2.174865146053    -0.445582325967     1.007825032230
         H           -2.075582489720     1.292473146053     0.829811674033     1.007825032230
         H           -2.700232489720    -1.272685853947    -0.842500325967     1.007825032230
         H           -1.213869489720    -2.159973853947    -0.457776325967     1.007825032230
         H           -2.075873489720    -1.284571853947     0.822569674033     1.007825032230
         H            2.554993510280     0.004468146053     0.569901674033     1.007825032230

  Basis Set: AUG-CC-PVTZ
    Blend: AUG-CC-PVTZ
  Basis Set: (AUG-CC-PVTZ AUX)
    Blend: AUG-CC-PVTZ-JKFIT
	 Reference Energy          =    -628.6022585918152572 [Eh]
	 Singles Energy            =      -0.0000000000000000 [Eh]
	 Same-Spin Energy          =      -0.2928387350515168 [Eh]
	 Opposite-Spin Energy      =      -0.9585544554266627 [Eh]
	 Correlation Energy        =      -1.2513931904781797 [Eh]
	 Total Energy              =    -629.8536517822934684 [Eh]

	 ================> DF-SCS-MP2 Energies <==================
	-----------------------------------------------------------
	 SCS Same-Spin Scale       =       0.3333333333333333 [-]
	 SCS Opposite-Spin Scale   =       1.2000000000000000 [-]
	 SCS Same-Spin Energy      =      -0.0976129116838389 [Eh]
	 SCS Opposite-Spin Energy  =      -1.1502653465119952 [Eh]
	 SCS Correlation Energy    =      -1.2478782581958341 [Eh]
	 SCS Total Energy          =    -629.8501368500110402 [Eh]
	-----------------------------------------------------------

  Dipole Moment: [D]
     X:    -0.8333      Y:    -0.0029      Z:    -1.6642     Total:     1.8612

*** Psi4 exiting successfully. Buy a developer a beer!
