                               Psi4 1.4a3.dev225

  ==> Input File <==

--------------------------------------------------------------------------
#psi4
#
memory 32 gb

molecule  {
0 1
  S        1.9015010     0.0014740    -0.5114990
  O        0.2966630    -0.0047940     1.6103990
  C       -0.8837990     0.0013960    -0.4908930
  C       -1.6918460     1.2669440    -0.1967440
  C       -1.7965310    -1.2137528    -0.3137047
  C        0.3503050    -0.0012110     0.3916140
  H       -0.5708550     0.0043180    -1.5417560
  H       -2.5996000     1.2838970    -0.8066260
  H       -1.1130310     2.1686550    -0.4169050
  H       -1.9752560     1.2862630     0.8584890
  H       -2.5999060    -1.2788960    -0.8138230
  H       -1.1135430    -2.1661840    -0.4290990
  H       -1.9755470    -1.2907820     0.8512470
  H        2.6553200    -0.0017420     0.5985790
units angstrom
no_reorient  #important for SAPT in psi4, default
symmetry c1  #important for SAPT in psi4, default
}

set PROPERTIES_ORIGIN ["COM"]
properties('MP2/aug-cc-pvtz', properties = ['dipole'])
--------------------------------------------------------------------------

    Molecular point group: c1
  Charge       = 0
  Multiplicity = 1
  Basis Set: AUG-CC-PVTZ
    Blend: AUG-CC-PVTZ
  Basis Set: (AUG-CC-PVTZ AUX)
    Blend: AUG-CC-PVTZ-JKFIT

    Orbital Energies [Eh]
    ---------------------

    Doubly Occupied:

       1A    -91.984523     2A    -20.563182     3A    -11.372832
       4A    -11.258911     5A    -11.233480     6A    -11.229276
       7A     -8.986422     8A     -6.667581     9A     -6.666506
      10A     -6.665703    11A     -1.400154    12A     -1.104100
      13A     -1.022112    14A     -0.946719    15A     -0.872845
      16A     -0.734645    17A     -0.674824    18A     -0.645322
      19A     -0.620374    20A     -0.594232    21A     -0.571626
      22A     -0.540850    23A     -0.536651    24A     -0.519716
      25A     -0.480527    26A     -0.469460    27A     -0.413980
      28A     -0.395369

  @DF-RHF Final Energy:  -628.59887954923818

   => Energetics <=

    Nuclear Repulsion Energy =            294.3653631686340759
    One-Electron Energy =               -1447.5846421223795915
    Two-Electron Energy =                 524.6203994045073387
    Total Energy =                       -628.5988795492381769
  Basis Set: (AUG-CC-PVTZ AUX)
    Blend: AUG-CC-PVTZ-RI
    Molecular point group: c1

    Geometry (in Angstrom), charge = 0, multiplicity = 1:

       Center              X                  Y                   Z               Mass
    ------------   -----------------  -----------------  -----------------  -----------------
         S            1.825441472168    -0.004452524369    -0.515099744401    31.972071174400
         O            0.220603472168    -0.010720524369     1.606798255599    15.994914619570
         C           -0.959858527832    -0.004530524369    -0.494493744401    12.000000000000
         C           -1.767905527832     1.261017475631    -0.200344744401    12.000000000000
         C           -1.872590527832    -1.219679324369    -0.317305444401    12.000000000000
         C            0.274245472168    -0.007137524369     0.388013255599    12.000000000000
         H           -0.646914527832    -0.001608524369    -1.545356744401     1.007825032230
         H           -2.675659527832     1.277970475631    -0.810226744401     1.007825032230
         H           -1.189090527832     2.162728475631    -0.420505744401     1.007825032230
         H           -2.051315527832     1.280336475631     0.854888255599     1.007825032230
         H           -2.675965527832    -1.284822524369    -0.817423744401     1.007825032230
         H           -1.189602527832    -2.172110524369    -0.432699744401     1.007825032230
         H           -2.051606527832    -1.296708524369     0.847646255599     1.007825032230
         H            2.579260472168    -0.007668524369     0.594978255599     1.007825032230

  Basis Set: AUG-CC-PVTZ
    Blend: AUG-CC-PVTZ
  Basis Set: (AUG-CC-PVTZ AUX)
    Blend: AUG-CC-PVTZ-JKFIT
	 Reference Energy          =    -628.5988795492381769 [Eh]
	 Singles Energy            =      -0.0000000000000000 [Eh]
	 Same-Spin Energy          =      -0.2915793497875745 [Eh]
	 Opposite-Spin Energy      =      -0.9570407028393957 [Eh]
	 Correlation Energy        =      -1.2486200526269702 [Eh]
	 Total Energy              =    -629.8474996018651382 [Eh]

	 ================> DF-SCS-MP2 Energies <==================
	-----------------------------------------------------------
	 SCS Same-Spin Scale       =       0.3333333333333333 [-]
	 SCS Opposite-Spin Scale   =       1.2000000000000000 [-]
	 SCS Same-Spin Energy      =      -0.0971931165958582 [Eh]
	 SCS Opposite-Spin Energy  =      -1.1484488434072748 [Eh]
	 SCS Correlation Energy    =      -1.2456419600031330 [Eh]
	 SCS Total Energy          =    -629.8445215092413036 [Eh]
	-----------------------------------------------------------

  Dipole Moment: [D]
     X:    -0.5591      Y:     0.0436      Z:    -1.6075     Total:     1.7025

*** Psi4 exiting successfully. Buy a developer a beer!
