                               Psi4 1.4a3.dev225

  ==> Input File <==

--------------------------------------------------------------------------
#psi4
#
memory 32 gb

molecule  {
0 1
  S        1.9015010     0.0014740    -0.5114990
  O        0.2966630    -0.0047940     1.6103990
  C       -0.8837990     0.0013960    -0.4908930
  C       -1.6918460     1.2669440    -0.1967440
  C       -1.6921440    -1.2655900    -0.2038620
  C        0.3503050    -0.0012110     0.3916140
  H       -0.5708550     0.0043180    -1.5417560
  H       -2.5996000     1.2838970    -0.8066260
  H       -1.1130310     2.1686550    -0.4169050
  H       -1.9752560     1.2862630     0.8584890
  H       -2.5999060    -1.2788960    -0.8138230
  H       -1.0870959    -2.2073490    -0.4393943
  H       -1.9755470    -1.2907820     0.8512470
  H        2.6553200    -0.0017420     0.5985790
units angstrom
no_reorient  #important for SAPT in psi4, default
symmetry c1  #important for SAPT in psi4, default
}

set PROPERTIES_ORIGIN ["COM"]
properties('MP2/aug-cc-pvtz', properties = ['dipole'])
--------------------------------------------------------------------------

    Molecular point group: c1
  Charge       = 0
  Multiplicity = 1
  Basis Set: AUG-CC-PVTZ
    Blend: AUG-CC-PVTZ
  Basis Set: (AUG-CC-PVTZ AUX)
    Blend: AUG-CC-PVTZ-JKFIT

    Orbital Energies [Eh]
    ---------------------

    Doubly Occupied:

       1A    -91.982471     2A    -20.560514     3A    -11.369654
       4A    -11.258392     5A    -11.236360     6A    -11.230812
       7A     -8.984461     8A     -6.665633     9A     -6.664542
      10A     -6.663750    11A     -1.398306    12A     -1.103187
      13A     -1.019647    14A     -0.944126    15A     -0.865614
      16A     -0.733823    17A     -0.670103    18A     -0.644248
      19A     -0.599045    20A     -0.597125    21A     -0.558762
      22A     -0.555167    23A     -0.527536    24A     -0.517217
      25A     -0.493049    26A     -0.488275    27A     -0.409264
      28A     -0.394152

  @DF-RHF Final Energy:  -628.62929272733390

   => Energetics <=

    Nuclear Repulsion Energy =            294.7767669395870485
    One-Electron Energy =               -1448.5416542873304024
    Two-Electron Energy =                 525.1355946204093925
    Total Energy =                       -628.6292927273339046
  Basis Set: (AUG-CC-PVTZ AUX)
    Blend: AUG-CC-PVTZ-RI
    Molecular point group: c1

    Geometry (in Angstrom), charge = 0, multiplicity = 1:

       Center              X                  Y                   Z               Mass
    ------------   -----------------  -----------------  -----------------  -----------------
         S            1.813144027778     0.001925791095    -0.527670558037    31.972071174400
         O            0.208306027778    -0.004342208905     1.594227441963    15.994914619570
         C           -0.972155972222     0.001847791095    -0.507064558037    12.000000000000
         C           -1.780202972222     1.267395791095    -0.212915558037    12.000000000000
         C           -1.780500972222    -1.265138208905    -0.220033558037    12.000000000000
         C            0.261948027778    -0.000759208905     0.375442441963    12.000000000000
         H           -0.659211972222     0.004769791095    -1.557927558037     1.007825032230
         H           -2.687956972222     1.284348791095    -0.822797558037     1.007825032230
         H           -1.201387972222     2.169106791095    -0.433076558037     1.007825032230
         H           -2.063612972222     1.286714791095     0.842317441963     1.007825032230
         H           -2.688262972222    -1.278444208905    -0.829994558037     1.007825032230
         H           -1.175452872222    -2.206897208905    -0.455565858037     1.007825032230
         H           -2.063903972222    -1.290330208905     0.835075441963     1.007825032230
         H            2.566963027778    -0.001290208905     0.582407441963     1.007825032230

  Basis Set: AUG-CC-PVTZ
    Blend: AUG-CC-PVTZ
  Basis Set: (AUG-CC-PVTZ AUX)
    Blend: AUG-CC-PVTZ-JKFIT
	 Reference Energy          =    -628.6292927273339046 [Eh]
	 Singles Energy            =      -0.0000000000000000 [Eh]
	 Same-Spin Energy          =      -0.2912231253957895 [Eh]
	 Opposite-Spin Energy      =      -0.9558886771169210 [Eh]
	 Correlation Energy        =      -1.2471118025127106 [Eh]
	 Total Energy              =    -629.8764045298465817 [Eh]

	 ================> DF-SCS-MP2 Energies <==================
	-----------------------------------------------------------
	 SCS Same-Spin Scale       =       0.3333333333333333 [-]
	 SCS Opposite-Spin Scale   =       1.2000000000000000 [-]
	 SCS Same-Spin Energy      =      -0.0970743751319298 [Eh]
	 SCS Opposite-Spin Energy  =      -1.1470664125403052 [Eh]
	 SCS Correlation Energy    =      -1.2441407876722350 [Eh]
	 SCS Total Energy          =    -629.8734335150061270 [Eh]
	-----------------------------------------------------------

  Dipole Moment: [D]
     X:    -0.6453      Y:     0.0346      Z:    -1.5931     Total:     1.7191

*** Psi4 exiting successfully. Buy a developer a beer!
