                               Psi4 1.4a3.dev225

  ==> Input File <==

--------------------------------------------------------------------------
#psi4
#
memory 32 gb

molecule  {
0 1
  S        1.9015010     0.0014740    -0.5114990
  O        0.2966630    -0.0047940     1.6103990
  C       -0.8837990     0.0013960    -0.4908930
  C       -1.6918460     1.2669440    -0.1967440
  C       -1.6921440    -1.2655900    -0.2038620
  C        0.3503050    -0.0012110     0.3916140
  H       -0.5137731     0.0048510    -1.7334364
  H       -2.5996000     1.2838970    -0.8066260
  H       -1.1130310     2.1686550    -0.4169050
  H       -1.9752560     1.2862630     0.8584890
  H       -2.5999060    -1.2788960    -0.8138230
  H       -1.1135430    -2.1661840    -0.4290990
  H       -1.9755470    -1.2907820     0.8512470
  H        2.6553200    -0.0017420     0.5985790
units angstrom
no_reorient  #important for SAPT in psi4, default
symmetry c1  #important for SAPT in psi4, default
}

set PROPERTIES_ORIGIN ["COM"]
properties('MP2/aug-cc-pvtz', properties = ['dipole'])
--------------------------------------------------------------------------

    Molecular point group: c1
  Charge       = 0
  Multiplicity = 1
  Basis Set: AUG-CC-PVTZ
    Blend: AUG-CC-PVTZ
  Basis Set: (AUG-CC-PVTZ AUX)
    Blend: AUG-CC-PVTZ-JKFIT

    Orbital Energies [Eh]
    ---------------------

    Doubly Occupied:

       1A    -91.982231     2A    -20.562307     3A    -11.371887
       4A    -11.280597     5A    -11.232682     6A    -11.232668
       7A     -8.984114     8A     -6.665263     9A     -6.664158
      10A     -6.663370    11A     -1.400078    12A     -1.098353
      13A     -1.019642    14A     -0.948860    15A     -0.863361
      16A     -0.719474    17A     -0.661459    18A     -0.646889
      19A     -0.600280    20A     -0.598843    21A     -0.559756
      22A     -0.557141    23A     -0.530697    24A     -0.516092
      25A     -0.493548    26A     -0.470382    27A     -0.410435
      28A     -0.393773

  @DF-RHF Final Energy:  -628.61132197642269

   => Energetics <=

    Nuclear Repulsion Energy =            294.0875937435219498
    One-Electron Energy =               -1447.1411454507401686
    Two-Electron Energy =                 524.4422297307955887
    Total Energy =                       -628.6113219764226869
  Basis Set: (AUG-CC-PVTZ AUX)
    Blend: AUG-CC-PVTZ-RI
    Molecular point group: c1

    Geometry (in Angstrom), charge = 0, multiplicity = 1:

       Center              X                  Y                   Z               Mass
    ------------   -----------------  -----------------  -----------------  -----------------
         S            1.812847241840     0.001521826322    -0.525913322897    31.972071174400
         O            0.208009241840    -0.004746173678     1.595984677103    15.994914619570
         C           -0.972452758160     0.001443826322    -0.505307322897    12.000000000000
         C           -1.780499758160     1.266991826322    -0.211158322897    12.000000000000
         C           -1.780797758160    -1.265542173678    -0.218276322897    12.000000000000
         C            0.261651241840    -0.001163173678     0.377199677103    12.000000000000
         H           -0.602426858160     0.004898826322    -1.747850722897     1.007825032230
         H           -2.688253758160     1.283944826322    -0.821040322897     1.007825032230
         H           -1.201684758160     2.168702826322    -0.431319322897     1.007825032230
         H           -2.063909758160     1.286310826322     0.844074677103     1.007825032230
         H           -2.688559758160    -1.278848173678    -0.828237322897     1.007825032230
         H           -1.202196758160    -2.166136173678    -0.443513322897     1.007825032230
         H           -2.064200758160    -1.290734173678     0.836832677103     1.007825032230
         H            2.566666241840    -0.001694173678     0.584164677103     1.007825032230

  Basis Set: AUG-CC-PVTZ
    Blend: AUG-CC-PVTZ
  Basis Set: (AUG-CC-PVTZ AUX)
    Blend: AUG-CC-PVTZ-JKFIT
	 Reference Energy          =    -628.6113219764226869 [Eh]
	 Singles Energy            =      -0.0000000000000000 [Eh]
	 Same-Spin Energy          =      -0.2914876885488722 [Eh]
	 Opposite-Spin Energy      =      -0.9574058839313400 [Eh]
	 Correlation Energy        =      -1.2488935724802122 [Eh]
	 Total Energy              =    -629.8602155489029428 [Eh]

	 ================> DF-SCS-MP2 Energies <==================
	-----------------------------------------------------------
	 SCS Same-Spin Scale       =       0.3333333333333333 [-]
	 SCS Opposite-Spin Scale   =       1.2000000000000000 [-]
	 SCS Same-Spin Energy      =      -0.0971625628496241 [Eh]
	 SCS Opposite-Spin Energy  =      -1.1488870607176078 [Eh]
	 SCS Correlation Energy    =      -1.2460496235672318 [Eh]
	 SCS Total Energy          =    -629.8573715999899605 [Eh]
	-----------------------------------------------------------

  Dipole Moment: [D]
     X:    -0.6988      Y:     0.0045      Z:    -1.4777     Total:     1.6346

*** Psi4 exiting successfully. Buy a developer a beer!
