                               Psi4 1.4a3.dev225

  ==> Input File <==

--------------------------------------------------------------------------
#psi4
#
memory 32 gb

molecule  {
0 1
  S        1.9015010     0.0014740    -0.5114990
  O        0.2966630    -0.0047940     1.6103990
  C       -0.8837990     0.0013960    -0.4908930
  C       -1.6918460     1.2669440    -0.1967440
  C       -1.6921440    -1.2655900    -0.2038620
  C        0.3503050    -0.0012110     0.3916140
  H       -0.5708550     0.0043180    -1.5417560
  H       -2.5996000     1.2838970    -0.8066260
  H       -1.1130310     2.1686550    -0.4169050
  H       -1.9752560     1.2862630     0.8584890
  H       -2.5999060    -1.2788960    -0.8138230
  H       -1.1175851    -2.1770685    -0.3927254
  H       -1.9755470    -1.2907820     0.8512470
  H        2.6553200    -0.0017420     0.5985790
units angstrom
no_reorient  #important for SAPT in psi4, default
symmetry c1  #important for SAPT in psi4, default
}

set PROPERTIES_ORIGIN ["COM"]
properties('MP2/aug-cc-pvtz', properties = ['dipole'])
--------------------------------------------------------------------------

    Molecular point group: c1
  Charge       = 0
  Multiplicity = 1
  Basis Set: AUG-CC-PVTZ
    Blend: AUG-CC-PVTZ
  Basis Set: (AUG-CC-PVTZ AUX)
    Blend: AUG-CC-PVTZ-JKFIT

    Orbital Energies [Eh]
    ---------------------

    Doubly Occupied:

       1A    -91.982452     2A    -20.560461     3A    -11.369582
       4A    -11.258121     5A    -11.230505     6A    -11.230248
       7A     -8.984444     8A     -6.665615     9A     -6.664524
      10A     -6.663733    11A     -1.398265    12A     -1.103389
      13A     -1.019752    14A     -0.946921    15A     -0.866621
      16A     -0.734352    17A     -0.669866    18A     -0.646005
      19A     -0.600463    20A     -0.598225    21A     -0.559059
      22A     -0.554178    23A     -0.530300    24A     -0.517080
      25A     -0.492431    26A     -0.491063    27A     -0.409176
      28A     -0.394149

  @DF-RHF Final Energy:  -628.63124829110382

   => Energetics <=

    Nuclear Repulsion Energy =            294.9676507581484657
    One-Electron Energy =               -1448.9158311848543690
    Two-Electron Energy =                 525.3169321356020873
    Total Energy =                       -628.6312482911038160
  Basis Set: (AUG-CC-PVTZ AUX)
    Blend: AUG-CC-PVTZ-RI
    Molecular point group: c1

    Geometry (in Angstrom), charge = 0, multiplicity = 1:

       Center              X                  Y                   Z               Mass
    ------------   -----------------  -----------------  -----------------  -----------------
         S            1.813439403162     0.001632437569    -0.528122680240    31.972071174400
         O            0.208601403162    -0.004635562431     1.593775319760    15.994914619570
         C           -0.971860596838     0.001554437569    -0.507516680240    12.000000000000
         C           -1.779907596838     1.267102437569    -0.213367680240    12.000000000000
         C           -1.780205596838    -1.265431562431    -0.220485680240    12.000000000000
         C            0.262243403162    -0.001052562431     0.374990319760    12.000000000000
         H           -0.658916596838     0.004476437569    -1.558379680240     1.007825032230
         H           -2.687661596838     1.284055437569    -0.823249680240     1.007825032230
         H           -1.201092596838     2.168813437569    -0.433528680240     1.007825032230
         H           -2.063317596838     1.286421437569     0.841865319760     1.007825032230
         H           -2.687967596838    -1.278737562431    -0.830446680240     1.007825032230
         H           -1.205646696838    -2.176910062431    -0.409349080240     1.007825032230
         H           -2.063608596838    -1.290623562431     0.834623319760     1.007825032230
         H            2.567258403162    -0.001583562431     0.581955319760     1.007825032230

  Basis Set: AUG-CC-PVTZ
    Blend: AUG-CC-PVTZ
  Basis Set: (AUG-CC-PVTZ AUX)
    Blend: AUG-CC-PVTZ-JKFIT
	 Reference Energy          =    -628.6312482911038160 [Eh]
	 Singles Energy            =      -0.0000000000000000 [Eh]
	 Same-Spin Energy          =      -0.2912344064142603 [Eh]
	 Opposite-Spin Energy      =      -0.9555489439568198 [Eh]
	 Correlation Energy        =      -1.2467833503710801 [Eh]
	 Total Energy              =    -629.8780316414748768 [Eh]

	 ================> DF-SCS-MP2 Energies <==================
	-----------------------------------------------------------
	 SCS Same-Spin Scale       =       0.3333333333333333 [-]
	 SCS Opposite-Spin Scale   =       1.2000000000000000 [-]
	 SCS Same-Spin Energy      =      -0.0970781354714201 [Eh]
	 SCS Opposite-Spin Energy  =      -1.1466587327481836 [Eh]
	 SCS Correlation Energy    =      -1.2437368682196037 [Eh]
	 SCS Total Energy          =    -629.8749851593233871 [Eh]
	-----------------------------------------------------------

  Dipole Moment: [D]
     X:    -0.6365      Y:     0.0033      Z:    -1.5861     Total:     1.7091

*** Psi4 exiting successfully. Buy a developer a beer!
