                               Psi4 1.4a3.dev225

  ==> Input File <==

--------------------------------------------------------------------------
#psi4
#
memory 32 gb

molecule  {
0 1
  S        1.9015010     0.0014740    -0.5114990
  O        0.2966630    -0.0047940     1.6103990
  C       -0.8837990     0.0013960    -0.4908930
  C       -1.7024083     1.2834865    -0.1928991
  C       -1.6921440    -1.2655900    -0.2038620
  C        0.3503050    -0.0012110     0.3916140
  H       -0.5708550     0.0043180    -1.5417560
  H       -2.5996000     1.2838970    -0.8066260
  H       -1.1130310     2.1686550    -0.4169050
  H       -1.9752560     1.2862630     0.8584890
  H       -2.5999060    -1.2788960    -0.8138230
  H       -1.1135430    -2.1661840    -0.4290990
  H       -1.9755470    -1.2907820     0.8512470
  H        2.6553200    -0.0017420     0.5985790
units angstrom
no_reorient  #important for SAPT in psi4, default
symmetry c1  #important for SAPT in psi4, default
}

set PROPERTIES_ORIGIN ["COM"]
properties('MP2/aug-cc-pvtz', properties = ['dipole'])
--------------------------------------------------------------------------

    Molecular point group: c1
  Charge       = 0
  Multiplicity = 1
  Basis Set: AUG-CC-PVTZ
    Blend: AUG-CC-PVTZ
  Basis Set: (AUG-CC-PVTZ AUX)
    Blend: AUG-CC-PVTZ-JKFIT

    Orbital Energies [Eh]
    ---------------------

    Doubly Occupied:

       1A    -91.982330     2A    -20.560219     3A    -11.369365
       4A    -11.258515     5A    -11.230308     6A    -11.229909
       7A     -8.984326     8A     -6.665497     9A     -6.664406
      10A     -6.663615    11A     -1.398005    12A     -1.100958
      13A     -1.019361    14A     -0.947169    15A     -0.866991
      16A     -0.733280    17A     -0.669555    18A     -0.644627
      19A     -0.601142    20A     -0.597468    21A     -0.559560
      22A     -0.556977    23A     -0.530955    24A     -0.517680
      25A     -0.494078    26A     -0.487027    27A     -0.408999
      28A     -0.394060

  @DF-RHF Final Energy:  -628.63126387510067

   => Energetics <=

    Nuclear Repulsion Energy =            294.6571222743044132
    One-Electron Energy =               -1448.3040083803477955
    Two-Electron Energy =                 525.0156222309427676
    Total Energy =                       -628.6312638751006716
  Basis Set: (AUG-CC-PVTZ AUX)
    Blend: AUG-CC-PVTZ-RI
    Molecular point group: c1

    Geometry (in Angstrom), charge = 0, multiplicity = 1:

       Center              X                  Y                   Z               Mass
    ------------   -----------------  -----------------  -----------------  -----------------
         S            1.814618624143    -0.000381217195    -0.528213813694    31.972071174400
         O            0.209780624143    -0.006649217195     1.593684186306    15.994914619570
         C           -0.970681375857    -0.000459217195    -0.507607813694    12.000000000000
         C           -1.789290675857     1.281631282805    -0.209613913694    12.000000000000
         C           -1.779026375857    -1.267445217195    -0.220576813694    12.000000000000
         C            0.263422624143    -0.003066217195     0.374899186306    12.000000000000
         H           -0.657737375857     0.002462782805    -1.558470813694     1.007825032230
         H           -2.686482375857     1.282041782805    -0.823340813694     1.007825032230
         H           -1.199913375857     2.166799782805    -0.433619813694     1.007825032230
         H           -2.062138375857     1.284407782805     0.841774186306     1.007825032230
         H           -2.686788375857    -1.280751217195    -0.830537813694     1.007825032230
         H           -1.200425375857    -2.168039217195    -0.445813813694     1.007825032230
         H           -2.062429375857    -1.292637217195     0.834532186306     1.007825032230
         H            2.568437624143    -0.003597217195     0.581864186306     1.007825032230

  Basis Set: AUG-CC-PVTZ
    Blend: AUG-CC-PVTZ
  Basis Set: (AUG-CC-PVTZ AUX)
    Blend: AUG-CC-PVTZ-JKFIT
	 Reference Energy          =    -628.6312638751006716 [Eh]
	 Singles Energy            =      -0.0000000000000000 [Eh]
	 Same-Spin Energy          =      -0.2911068489080629 [Eh]
	 Opposite-Spin Energy      =      -0.9554455783609851 [Eh]
	 Correlation Energy        =      -1.2465524272690480 [Eh]
	 Total Energy              =    -629.8778163023697516 [Eh]

	 ================> DF-SCS-MP2 Energies <==================
	-----------------------------------------------------------
	 SCS Same-Spin Scale       =       0.3333333333333333 [-]
	 SCS Opposite-Spin Scale   =       1.2000000000000000 [-]
	 SCS Same-Spin Energy      =      -0.0970356163026876 [Eh]
	 SCS Opposite-Spin Energy  =      -1.1465346940331820 [Eh]
	 SCS Correlation Energy    =      -1.2435703103358695 [Eh]
	 SCS Total Energy          =    -629.8748341854364980 [Eh]
	-----------------------------------------------------------

  Dipole Moment: [D]
     X:    -0.6461      Y:     0.0075      Z:    -1.6014     Total:     1.7269

*** Psi4 exiting successfully. Buy a developer a beer!
