                               Psi4 1.4a3.dev225

  ==> Input File <==

--------------------------------------------------------------------------
#psi4
#
memory 32 gb

molecule  {
0 1
  S        1.9015010     0.0014740    -0.5114990
  O        0.2966630    -0.0047940     1.6103990
  C       -0.8837990     0.0013960    -0.4908930
  C       -1.6918460     1.2669440    -0.1967440
  C       -1.6921440    -1.2655900    -0.2038620
  C        0.3503050    -0.0012110     0.3916140
  H       -0.5993959     0.0040515    -1.4459158
  H       -2.5996000     1.2838970    -0.8066260
  H       -1.1130310     2.1686550    -0.4169050
  H       -1.9752560     1.2862630     0.8584890
  H       -2.5999060    -1.2788960    -0.8138230
  H       -1.1135430    -2.1661840    -0.4290990
  H       -1.9755470    -1.2907820     0.8512470
  H        2.6553200    -0.0017420     0.5985790
units angstrom
no_reorient  #important for SAPT in psi4, default
symmetry c1  #important for SAPT in psi4, default
}

set PROPERTIES_ORIGIN ["COM"]
properties('MP2/aug-cc-pvtz', properties = ['dipole'])
--------------------------------------------------------------------------

    Molecular point group: c1
  Charge       = 0
  Multiplicity = 1
  Basis Set: AUG-CC-PVTZ
    Blend: AUG-CC-PVTZ
  Basis Set: (AUG-CC-PVTZ AUX)
    Blend: AUG-CC-PVTZ-JKFIT

    Orbital Energies [Eh]
    ---------------------

    Doubly Occupied:

       1A    -91.982652     2A    -20.559799     3A    -11.368732
       4A    -11.245438     5A    -11.229562     6A    -11.229541
       7A     -8.984684     8A     -6.665863     9A     -6.664780
      10A     -6.663986    11A     -1.397604    12A     -1.108621
      13A     -1.019961    14A     -0.946261    15A     -0.870248
      16A     -0.746213    17A     -0.673678    18A     -0.645132
      19A     -0.601936    20A     -0.597718    21A     -0.558385
      22A     -0.555232    23A     -0.528849    24A     -0.518601
      25A     -0.500836    26A     -0.489765    27A     -0.408740
      28A     -0.394383

  @DF-RHF Final Energy:  -628.62575794164104

   => Energetics <=

    Nuclear Repulsion Energy =            295.4989913229571812
    One-Electron Energy =               -1449.9351021068237060
    Two-Electron Energy =                 525.8103528422254840
    Total Energy =                       -628.6257579416410408
  Basis Set: (AUG-CC-PVTZ AUX)
    Blend: AUG-CC-PVTZ-RI
    Molecular point group: c1

    Geometry (in Angstrom), charge = 0, multiplicity = 1:

       Center              X                  Y                   Z               Mass
    ------------   -----------------  -----------------  -----------------  -----------------
         S            1.813676744335     0.001529571773    -0.528698784888    31.972071174400
         O            0.208838744335    -0.004738428227     1.593199215112    15.994914619570
         C           -0.971623255665     0.001451571773    -0.508092784888    12.000000000000
         C           -1.779670255665     1.266999571773    -0.213943784888    12.000000000000
         C           -1.779968255665    -1.265534428227    -0.221061784888    12.000000000000
         C            0.262480744335    -0.001155428227     0.374414215112    12.000000000000
         H           -0.687220155665     0.004107071773    -1.463115584888     1.007825032230
         H           -2.687424255665     1.283952571773    -0.823825784888     1.007825032230
         H           -1.200855255665     2.168710571773    -0.434104784888     1.007825032230
         H           -2.063080255665     1.286318571773     0.841289215112     1.007825032230
         H           -2.687730255665    -1.278840428227    -0.831022784888     1.007825032230
         H           -1.201367255665    -2.166128428227    -0.446298784888     1.007825032230
         H           -2.063371255665    -1.290726428227     0.834047215112     1.007825032230
         H            2.567495744335    -0.001686428227     0.581379215112     1.007825032230

  Basis Set: AUG-CC-PVTZ
    Blend: AUG-CC-PVTZ
  Basis Set: (AUG-CC-PVTZ AUX)
    Blend: AUG-CC-PVTZ-JKFIT
	 Reference Energy          =    -628.6257579416410408 [Eh]
	 Singles Energy            =      -0.0000000000000000 [Eh]
	 Same-Spin Energy          =      -0.2911452360341267 [Eh]
	 Opposite-Spin Energy      =      -0.9549734484792884 [Eh]
	 Correlation Energy        =      -1.2461186845134151 [Eh]
	 Total Energy              =    -629.8718766261544033 [Eh]

	 ================> DF-SCS-MP2 Energies <==================
	-----------------------------------------------------------
	 SCS Same-Spin Scale       =       0.3333333333333333 [-]
	 SCS Opposite-Spin Scale   =       1.2000000000000000 [-]
	 SCS Same-Spin Energy      =      -0.0970484120113756 [Eh]
	 SCS Opposite-Spin Energy  =      -1.1459681381751461 [Eh]
	 SCS Correlation Energy    =      -1.2430165501865216 [Eh]
	 SCS Total Energy          =    -629.8687744918275939 [Eh]
	-----------------------------------------------------------

  Dipole Moment: [D]
     X:    -0.6124      Y:     0.0049      Z:    -1.6335     Total:     1.7445

*** Psi4 exiting successfully. Buy a developer a beer!
