                               Psi4 1.4a3.dev225

  ==> Input File <==

--------------------------------------------------------------------------
#psi4
#
memory 32 gb

molecule  {
0 1
  S        1.9015010     0.0014740    -0.5114990
  O        0.2966630    -0.0047940     1.6103990
  C       -0.8837990     0.0013960    -0.4908930
  C       -1.6918460     1.2669440    -0.1967440
  C       -1.6921440    -1.2655900    -0.2038620
  C        0.3503050    -0.0012110     0.3916140
  H       -0.5708550     0.0043180    -1.5417560
  H       -2.5996000     1.2838970    -0.8066260
  H       -1.0865741     2.2098711    -0.4269683
  H       -1.9752560     1.2862630     0.8584890
  H       -2.5999060    -1.2788960    -0.8138230
  H       -1.1135430    -2.1661840    -0.4290990
  H       -1.9755470    -1.2907820     0.8512470
  H        2.6553200    -0.0017420     0.5985790
units angstrom
no_reorient  #important for SAPT in psi4, default
symmetry c1  #important for SAPT in psi4, default
}

set PROPERTIES_ORIGIN ["COM"]
properties('MP2/aug-cc-pvtz', properties = ['dipole'])
--------------------------------------------------------------------------

    Molecular point group: c1
  Charge       = 0
  Multiplicity = 1
  Basis Set: AUG-CC-PVTZ
    Blend: AUG-CC-PVTZ
  Basis Set: (AUG-CC-PVTZ AUX)
    Blend: AUG-CC-PVTZ-JKFIT

    Orbital Energies [Eh]
    ---------------------

    Doubly Occupied:

       1A    -91.982471     2A    -20.560514     3A    -11.369654
       4A    -11.258392     5A    -11.236364     6A    -11.230808
       7A     -8.984461     8A     -6.665633     9A     -6.664542
      10A     -6.663750    11A     -1.398306    12A     -1.103187
      13A     -1.019647    14A     -0.944125    15A     -0.865614
      16A     -0.733823    17A     -0.670103    18A     -0.644248
      19A     -0.599053    20A     -0.597116    21A     -0.558764
      22A     -0.555165    23A     -0.527536    24A     -0.517217
      25A     -0.493047    26A     -0.488277    27A     -0.409264
      28A     -0.394152

  @DF-RHF Final Energy:  -628.62929271673988

   => Energetics <=

    Nuclear Repulsion Energy =            294.7767713543218520
    One-Electron Energy =               -1448.5416648760644875
    Two-Electron Energy =                 525.1356008050026958
    Total Energy =                       -628.6292927167398830
  Basis Set: (AUG-CC-PVTZ AUX)
    Blend: AUG-CC-PVTZ-RI
    Molecular point group: c1

    Geometry (in Angstrom), charge = 0, multiplicity = 1:

       Center              X                  Y                   Z               Mass
    ------------   -----------------  -----------------  -----------------  -----------------
         S            1.813143932837     0.001127693766    -0.527672805623    31.972071174400
         O            0.208305932837    -0.005140306234     1.594225194377    15.994914619570
         C           -0.972156067163     0.001049693766    -0.507066805623    12.000000000000
         C           -1.780203067163     1.266597693766    -0.212917805623    12.000000000000
         C           -1.780501067163    -1.265936306234    -0.220035805623    12.000000000000
         C            0.261947932837    -0.001557306234     0.375440194377    12.000000000000
         H           -0.659212067163     0.003971693766    -1.557929805623     1.007825032230
         H           -2.687957067163     1.283550693766    -0.822799805623     1.007825032230
         H           -1.174931167163     2.209524793766    -0.443142105623     1.007825032230
         H           -2.063613067163     1.285916693766     0.842315194377     1.007825032230
         H           -2.688263067163    -1.279242306234    -0.829996805623     1.007825032230
         H           -1.201900067163    -2.166530306234    -0.445272805623     1.007825032230
         H           -2.063904067163    -1.291128306234     0.835073194377     1.007825032230
         H            2.566962932837    -0.002088306234     0.582405194377     1.007825032230

  Basis Set: AUG-CC-PVTZ
    Blend: AUG-CC-PVTZ
  Basis Set: (AUG-CC-PVTZ AUX)
    Blend: AUG-CC-PVTZ-JKFIT
	 Reference Energy          =    -628.6292927167398830 [Eh]
	 Singles Energy            =      -0.0000000000000000 [Eh]
	 Same-Spin Energy          =      -0.2912231358620284 [Eh]
	 Opposite-Spin Energy      =      -0.9558886825478426 [Eh]
	 Correlation Energy        =      -1.2471118184098711 [Eh]
	 Total Energy              =    -629.8764045351497316 [Eh]

	 ================> DF-SCS-MP2 Energies <==================
	-----------------------------------------------------------
	 SCS Same-Spin Scale       =       0.3333333333333333 [-]
	 SCS Opposite-Spin Scale   =       1.2000000000000000 [-]
	 SCS Same-Spin Energy      =      -0.0970743786206761 [Eh]
	 SCS Opposite-Spin Energy  =      -1.1470664190574111 [Eh]
	 SCS Correlation Energy    =      -1.2441407976780872 [Eh]
	 SCS Total Energy          =    -629.8734335144180250 [Eh]
	-----------------------------------------------------------

  Dipole Moment: [D]
     X:    -0.6453      Y:    -0.0251      Z:    -1.5932     Total:     1.7191

*** Psi4 exiting successfully. Buy a developer a beer!
