                               Psi4 1.4a3.dev225

  ==> Input File <==

--------------------------------------------------------------------------
#psi4
#
memory 32 gb

molecule  {
0 1
  S        1.9015010     0.0014740    -0.5114990
  O        0.2966630    -0.0047940     1.6103990
  C       -0.8837990     0.0013960    -0.4908930
  C       -1.6918460     1.2669440    -0.1967440
  C       -1.6921440    -1.2655900    -0.2038620
  C        0.3503050    -0.0012110     0.3916140
  H       -0.5708550     0.0043180    -1.5417560
  H       -2.5996000     1.2838970    -0.8066260
  H       -1.1130310     2.1686550    -0.4169050
  H       -1.9752560     1.2862630     0.8584890
  H       -2.5999060    -1.2788960    -0.8138230
  H       -1.1135430    -2.1661840    -0.4290990
  H       -1.9755470    -1.2907820     0.8512470
  H        2.6440844    -0.0016941     0.5820334
units angstrom
no_reorient  #important for SAPT in psi4, default
symmetry c1  #important for SAPT in psi4, default
}

set PROPERTIES_ORIGIN ["COM"]
properties('MP2/aug-cc-pvtz', properties = ['dipole'])
--------------------------------------------------------------------------

    Molecular point group: c1
  Charge       = 0
  Multiplicity = 1
  Basis Set: AUG-CC-PVTZ
    Blend: AUG-CC-PVTZ
  Basis Set: (AUG-CC-PVTZ AUX)
    Blend: AUG-CC-PVTZ-JKFIT

    Orbital Energies [Eh]
    ---------------------

    Doubly Occupied:

       1A    -91.981076     2A    -20.560560     3A    -11.369581
       4A    -11.257825     5A    -11.230347     6A    -11.230331
       7A     -8.983592     8A     -6.664801     9A     -6.663682
      10A     -6.662861    11A     -1.398346    12A     -1.103504
      13A     -1.021752    14A     -0.946902    15A     -0.867239
      16A     -0.734340    17A     -0.670852    18A     -0.646151
      19A     -0.601479    20A     -0.598352    21A     -0.559190
      22A     -0.555682    23A     -0.529331    24A     -0.518014
      25A     -0.493093    26A     -0.490733    27A     -0.409249
      28A     -0.394333

  @DF-RHF Final Energy:  -628.63140859135615

   => Energetics <=

    Nuclear Repulsion Energy =            295.0954592675616937
    One-Electron Energy =               -1449.1673367646119459
    Two-Electron Energy =                 525.4404689056941606
    Total Energy =                       -628.6314085913561485
  Basis Set: (AUG-CC-PVTZ AUX)
    Blend: AUG-CC-PVTZ-RI
    Molecular point group: c1

    Geometry (in Angstrom), charge = 0, multiplicity = 1:

       Center              X                  Y                   Z               Mass
    ------------   -----------------  -----------------  -----------------  -----------------
         S            1.813509092850     0.001526525907    -0.527610005948    31.972071174400
         O            0.208671092850    -0.004741474093     1.594287994052    15.994914619570
         C           -0.971790907150     0.001448525907    -0.507004005948    12.000000000000
         C           -1.779837907150     1.266996525907    -0.212855005948    12.000000000000
         C           -1.780135907150    -1.265537474093    -0.219973005948    12.000000000000
         C            0.262313092850    -0.001158474093     0.375502994052    12.000000000000
         H           -0.658846907150     0.004370525907    -1.557867005948     1.007825032230
         H           -2.687591907150     1.283949525907    -0.822737005948     1.007825032230
         H           -1.201022907150     2.168707525907    -0.433016005948     1.007825032230
         H           -2.063247907150     1.286315525907     0.842377994052     1.007825032230
         H           -2.687897907150    -1.278843474093    -0.829934005948     1.007825032230
         H           -1.201534907150    -2.166131474093    -0.445210005948     1.007825032230
         H           -2.063538907150    -1.290729474093     0.835135994052     1.007825032230
         H            2.556092492850    -0.001641574093     0.565922394052     1.007825032230

  Basis Set: AUG-CC-PVTZ
    Blend: AUG-CC-PVTZ
  Basis Set: (AUG-CC-PVTZ AUX)
    Blend: AUG-CC-PVTZ-JKFIT
	 Reference Energy          =    -628.6314085913561485 [Eh]
	 Singles Energy            =      -0.0000000000000000 [Eh]
	 Same-Spin Energy          =      -0.2912163547999050 [Eh]
	 Opposite-Spin Energy      =      -0.9554504014347445 [Eh]
	 Correlation Energy        =      -1.2466667562346494 [Eh]
	 Total Energy              =    -629.8780753475907659 [Eh]

	 ================> DF-SCS-MP2 Energies <==================
	-----------------------------------------------------------
	 SCS Same-Spin Scale       =       0.3333333333333333 [-]
	 SCS Opposite-Spin Scale   =       1.2000000000000000 [-]
	 SCS Same-Spin Energy      =      -0.0970721182666350 [Eh]
	 SCS Opposite-Spin Energy  =      -1.1465404817216933 [Eh]
	 SCS Correlation Energy    =      -1.2436125999883283 [Eh]
	 SCS Total Energy          =    -629.8750211913444446 [Eh]
	-----------------------------------------------------------

  Dipole Moment: [D]
     X:    -0.6409      Y:     0.0048      Z:    -1.6021     Total:     1.7256

*** Psi4 exiting successfully. Buy a developer a beer!
