                               Psi4 1.4a3.dev225

  ==> Input File <==

--------------------------------------------------------------------------
#psi4
#
memory 32 gb

molecule  {
0 1
  S        1.9015010     0.0014740    -0.5114990
  O        0.2966630    -0.0047940     1.6103990
  C       -0.8837990     0.0013960    -0.4908930
  C       -1.6918460     1.2669440    -0.1967440
  C       -1.5789006    -1.3035459    -0.0971641
  C        0.3503050    -0.0012110     0.3916140
  H       -0.5708550     0.0043180    -1.5417560
  H       -2.5996000     1.2838970    -0.8066260
  H       -1.1130310     2.1686550    -0.4169050
  H       -1.9752560     1.2862630     0.8584890
  H       -2.5999060    -1.2788960    -0.8138230
  H       -1.1135430    -2.1661840    -0.4290990
  H       -1.9755470    -1.2907820     0.8512470
  H        2.6553200    -0.0017420     0.5985790
units angstrom
no_reorient  #important for SAPT in psi4, default
symmetry c1  #important for SAPT in psi4, default
}

set PROPERTIES_ORIGIN ["COM"]
properties('MP2/aug-cc-pvtz', properties = ['dipole'])
--------------------------------------------------------------------------

    Molecular point group: c1
  Charge       = 0
  Multiplicity = 1
  Basis Set: AUG-CC-PVTZ
    Blend: AUG-CC-PVTZ
  Basis Set: (AUG-CC-PVTZ AUX)
    Blend: AUG-CC-PVTZ-JKFIT

    Orbital Energies [Eh]
    ---------------------

    Doubly Occupied:

       1A    -91.981554     2A    -20.558840     3A    -11.368086
       4A    -11.260886     5A    -11.235661     6A    -11.232317
       7A     -8.983619     8A     -6.664798     9A     -6.663694
      10A     -6.662910    11A     -1.397855    12A     -1.105704
      13A     -1.018955    14A     -0.952134    15A     -0.865743
      16A     -0.735537    17A     -0.673640    18A     -0.646272
      19A     -0.614011    20A     -0.598984    21A     -0.569864
      22A     -0.550800    23A     -0.523758    24A     -0.505455
      25A     -0.502570    26A     -0.480172    27A     -0.403314
      28A     -0.393954

  @DF-RHF Final Energy:  -628.60762323590541

   => Energetics <=

    Nuclear Repulsion Energy =            295.7651518917325006
    One-Electron Energy =               -1450.4433782363500995
    Two-Electron Energy =                 526.0706031087121346
    Total Energy =                       -628.6076232359054075
  Basis Set: (AUG-CC-PVTZ AUX)
    Blend: AUG-CC-PVTZ-RI
    Molecular point group: c1

    Geometry (in Angstrom), charge = 0, multiplicity = 1:

       Center              X                  Y                   Z               Mass
    ------------   -----------------  -----------------  -----------------  -----------------
         S            1.800337413803     0.005905271340    -0.540078092375    31.972071174400
         O            0.195499413803    -0.000362728660     1.581819907625    15.994914619570
         C           -0.984962586197     0.005827271340    -0.519472092375    12.000000000000
         C           -1.793009586197     1.271375271340    -0.225323092375    12.000000000000
         C           -1.680064186197    -1.299114628660    -0.125743192375    12.000000000000
         C            0.249141413803     0.003220271340     0.363034907625    12.000000000000
         H           -0.672018586197     0.008749271340    -1.570335092375     1.007825032230
         H           -2.700763586197     1.288328271340    -0.835205092375     1.007825032230
         H           -1.214194586197     2.173086271340    -0.445484092375     1.007825032230
         H           -2.076419586197     1.290694271340     0.829909907625     1.007825032230
         H           -2.701069586197    -1.274464728660    -0.842402092375     1.007825032230
         H           -1.214706586197    -2.161752728660    -0.457678092375     1.007825032230
         H           -2.076710586197    -1.286350728660     0.822667907625     1.007825032230
         H            2.554156413803     0.002689271340     0.569999907625     1.007825032230

  Basis Set: AUG-CC-PVTZ
    Blend: AUG-CC-PVTZ
  Basis Set: (AUG-CC-PVTZ AUX)
    Blend: AUG-CC-PVTZ-JKFIT
	 Reference Energy          =    -628.6076232359054075 [Eh]
	 Singles Energy            =      -0.0000000000000000 [Eh]
	 Same-Spin Energy          =      -0.2918502852635914 [Eh]
	 Opposite-Spin Energy      =      -0.9568295069720134 [Eh]
	 Correlation Energy        =      -1.2486797922356048 [Eh]
	 Total Energy              =    -629.8563030281410420 [Eh]

	 ================> DF-SCS-MP2 Energies <==================
	-----------------------------------------------------------
	 SCS Same-Spin Scale       =       0.3333333333333333 [-]
	 SCS Opposite-Spin Scale   =       1.2000000000000000 [-]
	 SCS Same-Spin Energy      =      -0.0972834284211971 [Eh]
	 SCS Opposite-Spin Energy  =      -1.1481954083664161 [Eh]
	 SCS Correlation Energy    =      -1.2454788367876133 [Eh]
	 SCS Total Energy          =    -629.8531020726929910 [Eh]
	-----------------------------------------------------------

  Dipole Moment: [D]
     X:    -0.6231      Y:     0.0248      Z:    -1.5636     Total:     1.6833

*** Psi4 exiting successfully. Buy a developer a beer!
