                               Psi4 1.4a3.dev225

  ==> Input File <==

--------------------------------------------------------------------------
#psi4
#
memory 32 gb

molecule  {
0 1
  S        1.9015010     0.0014740    -0.5114990
  O        0.2966630    -0.0047940     1.6103990
  C       -0.8837990     0.0013960    -0.4908930
  C       -1.5862229     1.1015191    -0.2351934
  C       -1.6921440    -1.2655900    -0.2038620
  C        0.3503050    -0.0012110     0.3916140
  H       -0.5708550     0.0043180    -1.5417560
  H       -2.5996000     1.2838970    -0.8066260
  H       -1.1130310     2.1686550    -0.4169050
  H       -1.9752560     1.2862630     0.8584890
  H       -2.5999060    -1.2788960    -0.8138230
  H       -1.1135430    -2.1661840    -0.4290990
  H       -1.9755470    -1.2907820     0.8512470
  H        2.6553200    -0.0017420     0.5985790
units angstrom
no_reorient  #important for SAPT in psi4, default
symmetry c1  #important for SAPT in psi4, default
}

set PROPERTIES_ORIGIN ["COM"]
properties('MP2/aug-cc-pvtz', properties = ['dipole'])
--------------------------------------------------------------------------

    Molecular point group: c1
  Charge       = 0
  Multiplicity = 1
  Basis Set: AUG-CC-PVTZ
    Blend: AUG-CC-PVTZ
  Basis Set: (AUG-CC-PVTZ AUX)
    Blend: AUG-CC-PVTZ-JKFIT

    Orbital Energies [Eh]
    ---------------------

    Doubly Occupied:

       1A    -91.984080     2A    -20.562855     3A    -11.372035
       4A    -11.249203     5A    -11.240806     6A    -11.231607
       7A     -8.986024     8A     -6.667191     9A     -6.666108
      10A     -6.665308    11A     -1.400990    12A     -1.140289
      13A     -1.024195    14A     -0.948552    15A     -0.858303
      16A     -0.742975    17A     -0.679774    18A     -0.658940
      19A     -0.613551    20A     -0.601689    21A     -0.562176
      22A     -0.547444    23A     -0.523875    24A     -0.522102
      25A     -0.487310    26A     -0.459566    27A     -0.407635
      28A     -0.395291

  @DF-RHF Final Energy:  -628.58164723458583

   => Energetics <=

    Nuclear Repulsion Energy =            298.4807386134437479
    One-Electron Energy =               -1455.7250278386422906
    Two-Electron Energy =                 528.6626419906127694
    Total Energy =                       -628.5816472345858301
  Basis Set: (AUG-CC-PVTZ AUX)
    Blend: AUG-CC-PVTZ-RI
    Molecular point group: c1

    Geometry (in Angstrom), charge = 0, multiplicity = 1:

       Center              X                  Y                   Z               Mass
    ------------   -----------------  -----------------  -----------------  -----------------
         S            1.801216429124     0.020609049929    -0.523335090061    31.972071174400
         O            0.196378429124     0.014341049929     1.598562909939    15.994914619570
         C           -0.984083570876     0.020531049929    -0.502729090061    12.000000000000
         C           -1.686507470876     1.120654149929    -0.247029490061    12.000000000000
         C           -1.792428570876    -1.246454950071    -0.215698090061    12.000000000000
         C            0.250020429124     0.017924049929     0.379777909939    12.000000000000
         H           -0.671139570876     0.023453049929    -1.553592090061     1.007825032230
         H           -2.699884570876     1.303032049929    -0.818462090061     1.007825032230
         H           -1.213315570876     2.187790049929    -0.428741090061     1.007825032230
         H           -2.075540570876     1.305398049929     0.846652909939     1.007825032230
         H           -2.700190570876    -1.259760950071    -0.825659090061     1.007825032230
         H           -1.213827570876    -2.147048950071    -0.440935090061     1.007825032230
         H           -2.075831570876    -1.271646950071     0.839410909939     1.007825032230
         H            2.555035429124     0.017393049929     0.586742909939     1.007825032230

  Basis Set: AUG-CC-PVTZ
    Blend: AUG-CC-PVTZ
  Basis Set: (AUG-CC-PVTZ AUX)
    Blend: AUG-CC-PVTZ-JKFIT
	 Reference Energy          =    -628.5816472345858301 [Eh]
	 Singles Energy            =      -0.0000000000000000 [Eh]
	 Same-Spin Energy          =      -0.2943523019848876 [Eh]
	 Opposite-Spin Energy      =      -0.9598541797936986 [Eh]
	 Correlation Energy        =      -1.2542064817785863 [Eh]
	 Total Energy              =    -629.8358537163644542 [Eh]

	 ================> DF-SCS-MP2 Energies <==================
	-----------------------------------------------------------
	 SCS Same-Spin Scale       =       0.3333333333333333 [-]
	 SCS Opposite-Spin Scale   =       1.2000000000000000 [-]
	 SCS Same-Spin Energy      =      -0.0981174339949625 [Eh]
	 SCS Opposite-Spin Energy  =      -1.1518250157524383 [Eh]
	 SCS Correlation Energy    =      -1.2499424497474008 [Eh]
	 SCS Total Energy          =    -629.8315896843332666 [Eh]
	-----------------------------------------------------------

  Dipole Moment: [D]
     X:    -0.5272      Y:    -0.0631      Z:    -1.5614     Total:     1.6492

*** Psi4 exiting successfully. Buy a developer a beer!
