                               Psi4 1.4a3.dev225

  ==> Input File <==

--------------------------------------------------------------------------
#psi4
#
memory 32 gb

molecule  {
0 1
  S        1.9015010     0.0014740    -0.5114990
  O        0.2966630    -0.0047940     1.6103990
  C       -0.8837990     0.0013960    -0.4908930
  C       -1.6918460     1.2669440    -0.1967440
  C       -1.6921440    -1.2655900    -0.2038620
  C        0.3503050    -0.0012110     0.3916140
  H       -0.5708550     0.0043180    -1.5417560
  H       -2.5996000     1.2838970    -0.8066260
  H       -1.0601172     2.2510871    -0.4370316
  H       -1.9752560     1.2862630     0.8584890
  H       -2.5999060    -1.2788960    -0.8138230
  H       -1.1135430    -2.1661840    -0.4290990
  H       -1.9755470    -1.2907820     0.8512470
  H        2.6553200    -0.0017420     0.5985790
units angstrom
no_reorient  #important for SAPT in psi4, default
symmetry c1  #important for SAPT in psi4, default
}

set PROPERTIES_ORIGIN ["COM"]
properties('MP2/aug-cc-pvtz', properties = ['dipole'])
--------------------------------------------------------------------------

    Molecular point group: c1
  Charge       = 0
  Multiplicity = 1
  Basis Set: AUG-CC-PVTZ
    Blend: AUG-CC-PVTZ
  Basis Set: (AUG-CC-PVTZ AUX)
    Blend: AUG-CC-PVTZ-JKFIT

    Orbital Energies [Eh]
    ---------------------

    Doubly Occupied:

       1A    -91.982485     2A    -20.560594     3A    -11.369790
       4A    -11.258970     5A    -11.242196     6A    -11.231329
       7A     -8.984473     8A     -6.665645     9A     -6.664555
      10A     -6.663762    11A     -1.398386    12A     -1.103103
      13A     -1.019594    14A     -0.941919    15A     -0.864936
      16A     -0.733751    17A     -0.670177    18A     -0.643304
      19A     -0.599307    20A     -0.594357    21A     -0.559040
      22A     -0.554632    23A     -0.525730    24A     -0.517466
      25A     -0.493580    26A     -0.484861    27A     -0.409374
      28A     -0.394142

  @DF-RHF Final Energy:  -628.62490521796485

   => Energetics <=

    Nuclear Repulsion Energy =            294.5847676584114652
    One-Electron Energy =               -1448.1564295558616777
    Two-Electron Energy =                 524.9467566794853610
    Total Energy =                       -628.6249052179648515
  Basis Set: (AUG-CC-PVTZ AUX)
    Blend: AUG-CC-PVTZ-RI
    Molecular point group: c1

    Geometry (in Angstrom), charge = 0, multiplicity = 1:

       Center              X                  Y                   Z               Mass
    ------------   -----------------  -----------------  -----------------  -----------------
         S            1.812887621848     0.000728398546    -0.527575313688    31.972071174400
         O            0.208049621848    -0.005539601454     1.594322686312    15.994914619570
         C           -0.972412378152     0.000650398546    -0.506969313688    12.000000000000
         C           -1.780459378152     1.266198398546    -0.212820313688    12.000000000000
         C           -1.780757378152    -1.266335601454    -0.219938313688    12.000000000000
         C            0.261691621848    -0.001956601454     0.375537686312    12.000000000000
         H           -0.659468378152     0.003572398546    -1.557832313688     1.007825032230
         H           -2.688213378152     1.283151398546    -0.822702313688     1.007825032230
         H           -1.148730578152     2.250341498546    -0.453107913688     1.007825032230
         H           -2.063869378152     1.285517398546     0.842412686312     1.007825032230
         H           -2.688519378152    -1.279641601454    -0.829899313688     1.007825032230
         H           -1.202156378152    -2.166929601454    -0.445175313688     1.007825032230
         H           -2.064160378152    -1.291527601454     0.835170686312     1.007825032230
         H            2.566706621848    -0.002487601454     0.582502686312     1.007825032230

  Basis Set: AUG-CC-PVTZ
    Blend: AUG-CC-PVTZ
  Basis Set: (AUG-CC-PVTZ AUX)
    Blend: AUG-CC-PVTZ-JKFIT
	 Reference Energy          =    -628.6249052179648515 [Eh]
	 Singles Energy            =      -0.0000000000000000 [Eh]
	 Same-Spin Energy          =      -0.2912159776383993 [Eh]
	 Opposite-Spin Energy      =      -0.9562616617323986 [Eh]
	 Correlation Energy        =      -1.2474776393707980 [Eh]
	 Total Energy              =    -629.8723828573356514 [Eh]

	 ================> DF-SCS-MP2 Energies <==================
	-----------------------------------------------------------
	 SCS Same-Spin Scale       =       0.3333333333333333 [-]
	 SCS Opposite-Spin Scale   =       1.2000000000000000 [-]
	 SCS Same-Spin Energy      =      -0.0970719925461331 [Eh]
	 SCS Opposite-Spin Energy  =      -1.1475139940788783 [Eh]
	 SCS Correlation Energy    =      -1.2445859866250115 [Eh]
	 SCS Total Energy          =    -629.8694912045898491 [Eh]
	-----------------------------------------------------------

  Dipole Moment: [D]
     X:    -0.6539      Y:    -0.0585      Z:    -1.5884     Total:     1.7187

*** Psi4 exiting successfully. Buy a developer a beer!
