                               Psi4 1.4a3.dev225

  ==> Input File <==

--------------------------------------------------------------------------
#psi4
#
memory 32 gb

molecule  {
0 1
  S        1.9015010     0.0014740    -0.5114990
  O        0.2966630    -0.0047940     1.6103990
  C       -0.8837990     0.0013960    -0.4908930
  C       -1.6918460     1.2669440    -0.1967440
  C       -1.6921440    -1.2655900    -0.2038620
  C        0.3909760    -0.0012969     0.4206978
  H       -0.5708550     0.0043180    -1.5417560
  H       -2.5996000     1.2838970    -0.8066260
  H       -1.1130310     2.1686550    -0.4169050
  H       -1.9752560     1.2862630     0.8584890
  H       -2.5999060    -1.2788960    -0.8138230
  H       -1.1135430    -2.1661840    -0.4290990
  H       -1.9755470    -1.2907820     0.8512470
  H        2.6553200    -0.0017420     0.5985790
units angstrom
no_reorient  #important for SAPT in psi4, default
symmetry c1  #important for SAPT in psi4, default
}

set PROPERTIES_ORIGIN ["COM"]
properties('MP2/aug-cc-pvtz', properties = ['dipole'])
--------------------------------------------------------------------------

    Molecular point group: c1
  Charge       = 0
  Multiplicity = 1
  Basis Set: AUG-CC-PVTZ
    Blend: AUG-CC-PVTZ
  Basis Set: (AUG-CC-PVTZ AUX)
    Blend: AUG-CC-PVTZ-JKFIT

    Orbital Energies [Eh]
    ---------------------

    Doubly Occupied:

       1A    -91.983633     2A    -20.562053     3A    -11.365609
       4A    -11.256518     5A    -11.227443     6A    -11.227427
       7A     -8.986044     8A     -6.667214     9A     -6.666067
      10A     -6.665250    11A     -1.416162    12A     -1.094913
      13A     -1.025241    14A     -0.943748    15A     -0.855340
      16A     -0.733911    17A     -0.669293    18A     -0.648723
      19A     -0.603221    20A     -0.598150    21A     -0.562563
      22A     -0.554645    23A     -0.532802    24A     -0.515846
      25A     -0.490465    26A     -0.490196    27A     -0.403958
      28A     -0.397294

  @DF-RHF Final Energy:  -628.63165241227443

   => Energetics <=

    Nuclear Repulsion Energy =            295.0313951621263868
    One-Electron Energy =               -1449.0386332409987062
    Two-Electron Energy =                 525.3755856665979991
    Total Energy =                       -628.6316524122744340
  Basis Set: (AUG-CC-PVTZ AUX)
    Blend: AUG-CC-PVTZ-RI
    Molecular point group: c1

    Geometry (in Angstrom), charge = 0, multiplicity = 1:

       Center              X                  Y                   Z               Mass
    ------------   -----------------  -----------------  -----------------  -----------------
         S            1.808708770770     0.001536898675    -0.531125166237    31.972071174400
         O            0.203870770770    -0.004731101325     1.590772833763    15.994914619570
         C           -0.976591229230     0.001458898675    -0.510519166237    12.000000000000
         C           -1.784638229230     1.267006898675    -0.216370166237    12.000000000000
         C           -1.784936229230    -1.265527101325    -0.223488166237    12.000000000000
         C            0.298183770770    -0.001234001325     0.401071633763    12.000000000000
         H           -0.663647229230     0.004380898675    -1.561382166237     1.007825032230
         H           -2.692392229230     1.283959898675    -0.826252166237     1.007825032230
         H           -1.205823229230     2.168717898675    -0.436531166237     1.007825032230
         H           -2.068048229230     1.286325898675     0.838862833763     1.007825032230
         H           -2.692698229230    -1.278833101325    -0.833449166237     1.007825032230
         H           -1.206335229230    -2.166121101325    -0.448725166237     1.007825032230
         H           -2.068339229230    -1.290719101325     0.831620833763     1.007825032230
         H            2.562527770770    -0.001679101325     0.578952833763     1.007825032230

  Basis Set: AUG-CC-PVTZ
    Blend: AUG-CC-PVTZ
  Basis Set: (AUG-CC-PVTZ AUX)
    Blend: AUG-CC-PVTZ-JKFIT
	 Reference Energy          =    -628.6316524122744340 [Eh]
	 Singles Energy            =      -0.0000000000000000 [Eh]
	 Same-Spin Energy          =      -0.2905058684670031 [Eh]
	 Opposite-Spin Energy      =      -0.9540535008987994 [Eh]
	 Correlation Energy        =      -1.2445593693658026 [Eh]
	 Total Energy              =    -629.8762117816402224 [Eh]

	 ================> DF-SCS-MP2 Energies <==================
	-----------------------------------------------------------
	 SCS Same-Spin Scale       =       0.3333333333333333 [-]
	 SCS Opposite-Spin Scale   =       1.2000000000000000 [-]
	 SCS Same-Spin Energy      =      -0.0968352894890010 [Eh]
	 SCS Opposite-Spin Energy  =      -1.1448642010785592 [Eh]
	 SCS Correlation Energy    =      -1.2416994905675602 [Eh]
	 SCS Total Energy          =    -629.8733519028420460 [Eh]
	-----------------------------------------------------------

  Dipole Moment: [D]
     X:    -0.4077      Y:     0.0046      Z:    -1.5266     Total:     1.5801

*** Psi4 exiting successfully. Buy a developer a beer!
