                               Psi4 1.4a3.dev225

  ==> Input File <==

--------------------------------------------------------------------------
#psi4
#
memory 32 gb

molecule  {
0 1
 Cl        0.2076870     2.2487580     0.1866360
  O        2.2653220     0.2846580    -0.8778020
  C        0.1642190    -0.4887810    -0.0665560
  C       -0.5729690     0.7033250     0.0302020
  C       -0.5420740    -1.7002010    -0.1332520
  C        1.6632570    -0.5094160    -0.1597980
  C       -1.9684630     0.6780340     0.0679080
  C       -1.9349490    -1.7304420    -0.1201220
  C       -2.6487990    -0.5355840    -0.0206560
  C        2.3930500    -1.5536810     0.6569590
  H        0.0096830    -2.6331730    -0.2140200
  H       -2.5123770     1.6138940     0.1595600
  H       -2.4587670    -2.6802070    -0.1882350
  H       -3.7356500    -0.5434820    -0.0013820
  H        2.1978872    -2.6046883     0.2475781
  H        2.0546340    -1.5354670     1.6969810
  H        3.4631710    -1.3484660     0.6031360
units angstrom
no_reorient  #important for SAPT in psi4, default
symmetry c1  #important for SAPT in psi4, default
}

set PROPERTIES_ORIGIN ["COM"]
properties('MP2/aug-cc-pvtz', properties = ['dipole'])
--------------------------------------------------------------------------

    Molecular point group: c1
  Charge       = 0
  Multiplicity = 1
  Basis Set: AUG-CC-PVTZ
    Blend: AUG-CC-PVTZ
  Basis Set: (AUG-CC-PVTZ AUX)
    Blend: AUG-CC-PVTZ-JKFIT

    Orbital Energies [Eh]
    ---------------------

    Doubly Occupied:

       1A   -104.841269     2A    -20.553627     3A    -11.346701
       4A    -11.320422     5A    -11.270532     6A    -11.267246
       7A    -11.263907     8A    -11.260042     9A    -11.257901
      10A    -11.248918    11A    -10.565046    12A     -8.031943
      13A     -8.029983    14A     -8.029928    15A     -1.384385
      16A     -1.199457    17A     -1.126729    18A     -1.065894
      19A     -1.012296    20A     -0.997687    21A     -0.875854
      22A     -0.837749    23A     -0.771295    24A     -0.703693
      25A     -0.668991    26A     -0.663576    27A     -0.633503
      28A     -0.620149    29A     -0.602695    30A     -0.591820
      31A     -0.562565    32A     -0.551754    33A     -0.536309
      34A     -0.524334    35A     -0.496418    36A     -0.473551
      37A     -0.457817    38A     -0.420060    39A     -0.361827
      40A     -0.344372

  @DF-RHF Final Energy:  -841.52473740391065

   => Energetics <=

    Nuclear Repulsion Energy =            563.4055798086807272
    One-Electron Energy =               -2272.3161444569332161
    Two-Electron Energy =                 867.3858272443419537
    Total Energy =                       -841.5247374039106489
  Basis Set: (AUG-CC-PVTZ AUX)
    Blend: AUG-CC-PVTZ-RI
    Molecular point group: c1

    Geometry (in Angstrom), charge = 0, multiplicity = 1:

       Center              X                  Y                   Z               Mass
    ------------   -----------------  -----------------  -----------------  -----------------
         CL           0.200243911459     2.172527721926     0.200504831848    34.968852682000
         O            2.257878911459     0.208427721926    -0.863933168152    15.994914619570
         C            0.156775911459    -0.565011278074    -0.052687168152    12.000000000000
         C           -0.580412088541     0.627094721926     0.044070831848    12.000000000000
         C           -0.549517088541    -1.776431278074    -0.119383168152    12.000000000000
         C            1.655813911459    -0.585646278074    -0.145929168152    12.000000000000
         C           -1.975906088541     0.601803721926     0.081776831848    12.000000000000
         C           -1.942392088541    -1.806672278074    -0.106253168152    12.000000000000
         C           -2.656242088541    -0.611814278074    -0.006787168152    12.000000000000
         C            2.385606911459    -1.629911278074     0.670827831848    12.000000000000
         H            0.002239911459    -2.709403278074    -0.200151168152     1.007825032230
         H           -2.519820088541     1.537663721926     0.173428831848     1.007825032230
         H           -2.466210088541    -2.756437278074    -0.174366168152     1.007825032230
         H           -3.743093088541    -0.619712278074     0.012486831848     1.007825032230
         H            2.190444111459    -2.680918578074     0.261446931848     1.007825032230
         H            2.047190911459    -1.611697278074     1.710849831848     1.007825032230
         H            3.455727911459    -1.424696278074     0.617004831848     1.007825032230

  Basis Set: AUG-CC-PVTZ
    Blend: AUG-CC-PVTZ
  Basis Set: (AUG-CC-PVTZ AUX)
    Blend: AUG-CC-PVTZ-JKFIT
	 Reference Energy          =    -841.5247374039106489 [Eh]
	 Singles Energy            =      -0.0000000000000000 [Eh]
	 Same-Spin Energy          =      -0.4742593397980054 [Eh]
	 Opposite-Spin Energy      =      -1.4494756719139403 [Eh]
	 Correlation Energy        =      -1.9237350117119458 [Eh]
	 Total Energy              =    -843.4484724156226321 [Eh]

	 ================> DF-SCS-MP2 Energies <==================
	-----------------------------------------------------------
	 SCS Same-Spin Scale       =       0.3333333333333333 [-]
	 SCS Opposite-Spin Scale   =       1.2000000000000000 [-]
	 SCS Same-Spin Energy      =      -0.1580864465993351 [Eh]
	 SCS Opposite-Spin Energy  =      -1.7393708062967284 [Eh]
	 SCS Correlation Energy    =      -1.8974572528960634 [Eh]
	 SCS Total Energy          =    -843.4221946568067096 [Eh]
	-----------------------------------------------------------

  Dipole Moment: [D]
     X:    -2.2006      Y:    -2.9799      Z:     1.4308     Total:     3.9711

*** Psi4 exiting successfully. Buy a developer a beer!
