                               Psi4 1.4a3.dev225

  ==> Input File <==

--------------------------------------------------------------------------
#psi4
#
memory 32 gb

molecule  {
0 1
 Cl        0.2076870     2.2487580     0.1866360
  O        2.2653220     0.2846580    -0.8778020
  C        0.1642190    -0.4887810    -0.0665560
  C       -0.5729690     0.7033250     0.0302020
  C       -0.5420740    -1.7002010    -0.1332520
  C        1.6534533    -0.5223463    -0.1481064
  C       -1.9684630     0.6780340     0.0679080
  C       -1.9349490    -1.7304420    -0.1201220
  C       -2.6487990    -0.5355840    -0.0206560
  C        2.3930500    -1.5536810     0.6569590
  H        0.0096830    -2.6331730    -0.2140200
  H       -2.5123770     1.6138940     0.1595600
  H       -2.4587670    -2.6802070    -0.1882350
  H       -3.7356500    -0.5434820    -0.0013820
  H        2.2064120    -2.5587800     0.2654600
  H        2.0546340    -1.5354670     1.6969810
  H        3.4631710    -1.3484660     0.6031360
units angstrom
no_reorient  #important for SAPT in psi4, default
symmetry c1  #important for SAPT in psi4, default
}

set PROPERTIES_ORIGIN ["COM"]
properties('MP2/aug-cc-pvtz', properties = ['dipole'])
--------------------------------------------------------------------------

    Molecular point group: c1
  Charge       = 0
  Multiplicity = 1
  Basis Set: AUG-CC-PVTZ
    Blend: AUG-CC-PVTZ
  Basis Set: (AUG-CC-PVTZ AUX)
    Blend: AUG-CC-PVTZ-JKFIT

    Orbital Energies [Eh]
    ---------------------

    Doubly Occupied:

       1A   -104.841253     2A    -20.551626     3A    -11.347312
       4A    -11.321357     5A    -11.271212     6A    -11.268117
       7A    -11.264670     8A    -11.260627     9A    -11.258476
      10A    -11.243899    11A    -10.565009    12A     -8.031905
      13A     -8.029942    14A     -8.029884    15A     -1.370814
      16A     -1.200027    17A     -1.127155    18A     -1.068754
      19A     -1.014526    20A     -1.001593    21A     -0.877906
      22A     -0.839108    23A     -0.772815    24A     -0.704076
      25A     -0.669358    26A     -0.662789    27A     -0.634073
      28A     -0.619957    29A     -0.603773    30A     -0.593281
      31A     -0.564344    32A     -0.552346    33A     -0.535984
      34A     -0.523996    35A     -0.492005    36A     -0.473456
      37A     -0.457616    38A     -0.421321    39A     -0.362257
      40A     -0.344772

  @DF-RHF Final Energy:  -841.52386206788708

   => Energetics <=

    Nuclear Repulsion Energy =            563.5502082413421476
    One-Electron Energy =               -2272.6013583696026217
    Two-Electron Energy =                 867.5272880603732801
    Total Energy =                       -841.5238620678870802
  Basis Set: (AUG-CC-PVTZ AUX)
    Blend: AUG-CC-PVTZ-RI
    Molecular point group: c1

    Geometry (in Angstrom), charge = 0, multiplicity = 1:

       Center              X                  Y                   Z               Mass
    ------------   -----------------  -----------------  -----------------  -----------------
         CL           0.200951961875     2.173234754108     0.199476897005    34.968852682000
         O            2.258586961875     0.209134754108    -0.864961102995    15.994914619570
         C            0.157483961875    -0.564304245892    -0.053715102995    12.000000000000
         C           -0.579704038125     0.627801754108     0.043042897005    12.000000000000
         C           -0.548809038125    -1.775724245892    -0.120411102995    12.000000000000
         C            1.646718261875    -0.597869545892    -0.135265502995    12.000000000000
         C           -1.975198038125     0.602510754108     0.080748897005    12.000000000000
         C           -1.941684038125    -1.805965245892    -0.107281102995    12.000000000000
         C           -2.655534038125    -0.611107245892    -0.007815102995    12.000000000000
         C            2.386314961875    -1.629204245892     0.669799897005    12.000000000000
         H            0.002947961875    -2.708696245892    -0.201179102995     1.007825032230
         H           -2.519112038125     1.538370754108     0.172400897005     1.007825032230
         H           -2.465502038125    -2.755730245892    -0.175394102995     1.007825032230
         H           -3.742385038125    -0.619005245892     0.011458897005     1.007825032230
         H            2.199676961875    -2.634303245892     0.278300897005     1.007825032230
         H            2.047898961875    -1.610990245892     1.709821897005     1.007825032230
         H            3.456435961875    -1.423989245892     0.615976897005     1.007825032230

  Basis Set: AUG-CC-PVTZ
    Blend: AUG-CC-PVTZ
  Basis Set: (AUG-CC-PVTZ AUX)
    Blend: AUG-CC-PVTZ-JKFIT
	 Reference Energy          =    -841.5238620678870802 [Eh]
	 Singles Energy            =      -0.0000000000000000 [Eh]
	 Same-Spin Energy          =      -0.4749014096886853 [Eh]
	 Opposite-Spin Energy      =      -1.4505141369747760 [Eh]
	 Correlation Energy        =      -1.9254155466634613 [Eh]
	 Total Energy              =    -843.4492776145505104 [Eh]

	 ================> DF-SCS-MP2 Energies <==================
	-----------------------------------------------------------
	 SCS Same-Spin Scale       =       0.3333333333333333 [-]
	 SCS Opposite-Spin Scale   =       1.2000000000000000 [-]
	 SCS Same-Spin Energy      =      -0.1583004698962284 [Eh]
	 SCS Opposite-Spin Energy  =      -1.7406169643697311 [Eh]
	 SCS Correlation Energy    =      -1.8989174342659596 [Eh]
	 SCS Total Energy          =    -843.4227795021530483 [Eh]
	-----------------------------------------------------------

  Dipole Moment: [D]
     X:    -2.2571      Y:    -3.0367      Z:     1.4777     Total:     4.0620

*** Psi4 exiting successfully. Buy a developer a beer!
