                               Psi4 1.4a3.dev225

  ==> Input File <==

--------------------------------------------------------------------------
#psi4
#
memory 32 gb

molecule  {
0 1
 Cl        0.2076870     2.2487580     0.1866360
  O        2.2653220     0.2846580    -0.8778020
  C        0.1642190    -0.4887810    -0.0665560
  C       -0.5729690     0.7033250     0.0302020
  C       -0.5320119    -1.6829426    -0.1323018
  C        1.6632570    -0.5094160    -0.1597980
  C       -1.9684630     0.6780340     0.0679080
  C       -1.9349490    -1.7304420    -0.1201220
  C       -2.6487990    -0.5355840    -0.0206560
  C        2.3930500    -1.5536810     0.6569590
  H        0.0096830    -2.6331730    -0.2140200
  H       -2.5123770     1.6138940     0.1595600
  H       -2.4587670    -2.6802070    -0.1882350
  H       -3.7356500    -0.5434820    -0.0013820
  H        2.2064120    -2.5587800     0.2654600
  H        2.0546340    -1.5354670     1.6969810
  H        3.4631710    -1.3484660     0.6031360
units angstrom
no_reorient  #important for SAPT in psi4, default
symmetry c1  #important for SAPT in psi4, default
}

set PROPERTIES_ORIGIN ["COM"]
properties('MP2/aug-cc-pvtz', properties = ['dipole'])
--------------------------------------------------------------------------

    Molecular point group: c1
  Charge       = 0
  Multiplicity = 1
  Basis Set: AUG-CC-PVTZ
    Blend: AUG-CC-PVTZ
  Basis Set: (AUG-CC-PVTZ AUX)
    Blend: AUG-CC-PVTZ-JKFIT

    Orbital Energies [Eh]
    ---------------------

    Doubly Occupied:

       1A   -104.841169     2A    -20.553469     3A    -11.346336
       4A    -11.320280     5A    -11.268918     6A    -11.267074
       7A    -11.263673     8A    -11.259784     9A    -11.258884
      10A    -11.243029    11A    -10.564945    12A     -8.031841
      13A     -8.029883    14A     -8.029827    15A     -1.384260
      16A     -1.200381    17A     -1.126681    18A     -1.068282
      19A     -1.011854    20A     -1.000107    21A     -0.874996
      22A     -0.838685    23A     -0.772956    24A     -0.703627
      25A     -0.669468    26A     -0.662894    27A     -0.635016
      28A     -0.622284    29A     -0.603747    30A     -0.592831
      31A     -0.564170    32A     -0.551932    33A     -0.534880
      34A     -0.525322    35A     -0.498246    36A     -0.473413
      37A     -0.457973    38A     -0.419701    39A     -0.364195
      40A     -0.342938

  @DF-RHF Final Energy:  -841.52650835207146

   => Energetics <=

    Nuclear Repulsion Energy =            563.9330827232111005
    One-Electron Energy =               -2273.3592754185192462
    Two-Electron Energy =                 867.8996843432366859
    Total Energy =                       -841.5265083520714597
  Basis Set: (AUG-CC-PVTZ AUX)
    Blend: AUG-CC-PVTZ-RI
    Molecular point group: c1

    Geometry (in Angstrom), charge = 0, multiplicity = 1:

       Center              X                  Y                   Z               Mass
    ------------   -----------------  -----------------  -----------------  -----------------
         CL           0.199404163824     2.170882671079     0.200313788446    34.968852682000
         O            2.257039163824     0.206782671079    -0.864124211554    15.994914619570
         C            0.155936163824    -0.566656328921    -0.052878211554    12.000000000000
         C           -0.581251836176     0.625449671079     0.043879788446    12.000000000000
         C           -0.540294736176    -1.760817928921    -0.118624011554    12.000000000000
         C            1.654974163824    -0.587291328921    -0.146120211554    12.000000000000
         C           -1.976745836176     0.600158671079     0.081585788446    12.000000000000
         C           -1.943231836176    -1.808317328921    -0.106444211554    12.000000000000
         C           -2.657081836176    -0.613459328921    -0.006978211554    12.000000000000
         C            2.384767163824    -1.631556328921     0.670636788446    12.000000000000
         H            0.001400163824    -2.711048328921    -0.200342211554     1.007825032230
         H           -2.520659836176     1.536018671079     0.173237788446     1.007825032230
         H           -2.467049836176    -2.758082328921    -0.174557211554     1.007825032230
         H           -3.743932836176    -0.621357328921     0.012295788446     1.007825032230
         H            2.198129163824    -2.636655328921     0.279137788446     1.007825032230
         H            2.046351163824    -1.613342328921     1.710658788446     1.007825032230
         H            3.454888163824    -1.426341328921     0.616813788446     1.007825032230

  Basis Set: AUG-CC-PVTZ
    Blend: AUG-CC-PVTZ
  Basis Set: (AUG-CC-PVTZ AUX)
    Blend: AUG-CC-PVTZ-JKFIT
	 Reference Energy          =    -841.5265083520714597 [Eh]
	 Singles Energy            =      -0.0000000000000000 [Eh]
	 Same-Spin Energy          =      -0.4742188345915124 [Eh]
	 Opposite-Spin Energy      =      -1.4491242157397159 [Eh]
	 Correlation Energy        =      -1.9233430503312283 [Eh]
	 Total Energy              =    -843.4498514024027145 [Eh]

	 ================> DF-SCS-MP2 Energies <==================
	-----------------------------------------------------------
	 SCS Same-Spin Scale       =       0.3333333333333333 [-]
	 SCS Opposite-Spin Scale   =       1.2000000000000000 [-]
	 SCS Same-Spin Energy      =      -0.1580729448638374 [Eh]
	 SCS Opposite-Spin Energy  =      -1.7389490588876590 [Eh]
	 SCS Correlation Energy    =      -1.8970220037514964 [Eh]
	 SCS Total Energy          =    -843.4235303558230044 [Eh]
	-----------------------------------------------------------

  Dipole Moment: [D]
     X:    -2.1987      Y:    -2.9915      Z:     1.4269     Total:     3.9774

*** Psi4 exiting successfully. Buy a developer a beer!
