                               Psi4 1.4a3.dev225

  ==> Input File <==

--------------------------------------------------------------------------
#psi4
#
memory 32 gb

molecule  {
0 1
 Cl        0.2076870     2.2487580     0.1866360
  O        2.2653220     0.2846580    -0.8778020
  C        0.1642190    -0.4887810    -0.0665560
  C       -0.5729690     0.7033250     0.0302020
  C       -0.5420740    -1.7002010    -0.1332520
  C        1.6632570    -0.5094160    -0.1597980
  C       -1.9684630     0.6780340     0.0679080
  C       -1.9349490    -1.7304420    -0.1201220
  C       -2.6999561    -0.4499561    -0.0135279
  C        2.3930500    -1.5536810     0.6569590
  H        0.0096830    -2.6331730    -0.2140200
  H       -2.5123770     1.6138940     0.1595600
  H       -2.4587670    -2.6802070    -0.1882350
  H       -3.7356500    -0.5434820    -0.0013820
  H        2.2064120    -2.5587800     0.2654600
  H        2.0546340    -1.5354670     1.6969810
  H        3.4631710    -1.3484660     0.6031360
units angstrom
no_reorient  #important for SAPT in psi4, default
symmetry c1  #important for SAPT in psi4, default
}

set PROPERTIES_ORIGIN ["COM"]
properties('MP2/aug-cc-pvtz', properties = ['dipole'])
--------------------------------------------------------------------------

    Molecular point group: c1
  Charge       = 0
  Multiplicity = 1
  Basis Set: AUG-CC-PVTZ
    Blend: AUG-CC-PVTZ
  Basis Set: (AUG-CC-PVTZ AUX)
    Blend: AUG-CC-PVTZ-JKFIT

    Orbital Energies [Eh]
    ---------------------

    Doubly Occupied:

       1A   -104.842398     2A    -20.553664     3A    -11.346359
       4A    -11.321630     5A    -11.270859     6A    -11.267294
       7A    -11.265277     8A    -11.264723     9A    -11.255974
      10A    -11.243280    11A    -10.566101    12A     -8.032996
      13A     -8.031033    14A     -8.030978    15A     -1.384309
      16A     -1.198199    17A     -1.122257    18A     -1.069796
      19A     -1.014577    20A     -0.994728    21A     -0.877360
      22A     -0.836782    23A     -0.772513    24A     -0.706141
      25A     -0.676126    26A     -0.662022    27A     -0.633707
      28A     -0.621971    29A     -0.605542    30A     -0.592725
      31A     -0.566199    32A     -0.551544    33A     -0.541112
      34A     -0.514969    35A     -0.494979    36A     -0.470142
      37A     -0.458757    38A     -0.420476    39A     -0.370099
      40A     -0.335956

  @DF-RHF Final Energy:  -841.51498018409279

   => Energetics <=

    Nuclear Repulsion Energy =            562.8053625872793191
    One-Electron Energy =               -2271.0695775851140752
    Two-Electron Energy =                 866.7492348137418503
    Total Energy =                       -841.5149801840927921
  Basis Set: (AUG-CC-PVTZ AUX)
    Blend: AUG-CC-PVTZ-RI
    Molecular point group: c1

    Geometry (in Angstrom), charge = 0, multiplicity = 1:

       Center              X                  Y                   Z               Mass
    ------------   -----------------  -----------------  -----------------  -----------------
         CL           0.204173916789     2.165555818957     0.199832451596    34.968852682000
         O            2.261808916789     0.201455818957    -0.864605548404    15.994914619570
         C            0.160705916789    -0.571983181043    -0.053359548404    12.000000000000
         C           -0.576482083211     0.620122818957     0.043398451596    12.000000000000
         C           -0.545587083211    -1.783403181043    -0.120055548404    12.000000000000
         C            1.659743916789    -0.592618181043    -0.146601548404    12.000000000000
         C           -1.971976083211     0.594831818957     0.081104451596    12.000000000000
         C           -1.938462083211    -1.813644181043    -0.106925548404    12.000000000000
         C           -2.703469183211    -0.533158281043    -0.000331448404    12.000000000000
         C            2.389536916789    -1.636883181043     0.670155451596    12.000000000000
         H            0.006169916789    -2.716375181043    -0.200823548404     1.007825032230
         H           -2.515890083211     1.530691818957     0.172756451596     1.007825032230
         H           -2.462280083211    -2.763409181043    -0.175038548404     1.007825032230
         H           -3.739163083211    -0.626684181043     0.011814451596     1.007825032230
         H            2.202898916789    -2.641982181043     0.278656451596     1.007825032230
         H            2.051120916789    -1.618669181043     1.710177451596     1.007825032230
         H            3.459657916789    -1.431668181043     0.616332451596     1.007825032230

  Basis Set: AUG-CC-PVTZ
    Blend: AUG-CC-PVTZ
  Basis Set: (AUG-CC-PVTZ AUX)
    Blend: AUG-CC-PVTZ-JKFIT
	 Reference Energy          =    -841.5149801840927921 [Eh]
	 Singles Energy            =      -0.0000000000000000 [Eh]
	 Same-Spin Energy          =      -0.4740630488807722 [Eh]
	 Opposite-Spin Energy      =      -1.4500344016535989 [Eh]
	 Correlation Energy        =      -1.9240974505343711 [Eh]
	 Total Energy              =    -843.4390776346272105 [Eh]

	 ================> DF-SCS-MP2 Energies <==================
	-----------------------------------------------------------
	 SCS Same-Spin Scale       =       0.3333333333333333 [-]
	 SCS Opposite-Spin Scale   =       1.2000000000000000 [-]
	 SCS Same-Spin Energy      =      -0.1580210162935907 [Eh]
	 SCS Opposite-Spin Energy  =      -1.7400412819843185 [Eh]
	 SCS Correlation Energy    =      -1.8980622982779092 [Eh]
	 SCS Total Energy          =    -843.4130424823706562 [Eh]
	-----------------------------------------------------------

  Dipole Moment: [D]
     X:    -2.2141      Y:    -2.9612      Z:     1.4313     Total:     3.9647

*** Psi4 exiting successfully. Buy a developer a beer!
