                               Psi4 1.4a3.dev225

  ==> Input File <==

--------------------------------------------------------------------------
#psi4
#
memory 32 gb

molecule  {
0 1
 Cl        0.2076870     2.2487580     0.1866360
  O        2.2653220     0.2846580    -0.8778020
  C        0.1642190    -0.4887810    -0.0665560
  C       -0.5729690     0.7033250     0.0302020
  C       -0.5420740    -1.7002010    -0.1332520
  C        1.7038528    -0.4360987    -0.0955012
  C       -1.9684630     0.6780340     0.0679080
  C       -1.9349490    -1.7304420    -0.1201220
  C       -2.6487990    -0.5355840    -0.0206560
  C        2.3930500    -1.5536810     0.6569590
  H        0.0096830    -2.6331730    -0.2140200
  H       -2.5123770     1.6138940     0.1595600
  H       -2.4587670    -2.6802070    -0.1882350
  H       -3.7356500    -0.5434820    -0.0013820
  H        2.2064120    -2.5587800     0.2654600
  H        2.0546340    -1.5354670     1.6969810
  H        3.4631710    -1.3484660     0.6031360
units angstrom
no_reorient  #important for SAPT in psi4, default
symmetry c1  #important for SAPT in psi4, default
}

set PROPERTIES_ORIGIN ["COM"]
properties('MP2/aug-cc-pvtz', properties = ['dipole'])
--------------------------------------------------------------------------

    Molecular point group: c1
  Charge       = 0
  Multiplicity = 1
  Basis Set: AUG-CC-PVTZ
    Blend: AUG-CC-PVTZ
  Basis Set: (AUG-CC-PVTZ AUX)
    Blend: AUG-CC-PVTZ-JKFIT

    Orbital Energies [Eh]
    ---------------------

    Doubly Occupied:

       1A   -104.840790     2A    -20.558376     3A    -11.347536
       4A    -11.316504     5A    -11.270222     6A    -11.265518
       7A    -11.261116     8A    -11.258016     9A    -11.256731
      10A    -11.243114    11A    -10.564646    12A     -8.031541
      13A     -8.029594    14A     -8.029544    15A     -1.404017
      16A     -1.197249    17A     -1.125338    18A     -1.060900
      19A     -1.012507    20A     -0.999073    21A     -0.871486
      22A     -0.833367    23A     -0.769794    24A     -0.705683
      25A     -0.667639    26A     -0.663969    27A     -0.636861
      28A     -0.627017    29A     -0.603628    30A     -0.593756
      31A     -0.563085    32A     -0.552142    33A     -0.536270
      34A     -0.524030    35A     -0.505775    36A     -0.473144
      37A     -0.457940    38A     -0.417301    39A     -0.359610
      40A     -0.342691

  @DF-RHF Final Energy:  -841.52338502352245

   => Energetics <=

    Nuclear Repulsion Energy =            563.6323660698850517
    One-Electron Energy =               -2272.7564720501659394
    Two-Electron Energy =                 867.6007209567585505
    Total Energy =                       -841.5233850235224509
  Basis Set: (AUG-CC-PVTZ AUX)
    Blend: AUG-CC-PVTZ-RI
    Molecular point group: c1

    Geometry (in Angstrom), charge = 0, multiplicity = 1:

       Center              X                  Y                   Z               Mass
    ------------   -----------------  -----------------  -----------------  -----------------
         CL           0.197025200914     2.166514971002     0.195378284009    34.968852682000
         O            2.254660200914     0.202414971002    -0.869059715991    15.994914619570
         C            0.153557200914    -0.571024028998    -0.057813715991    12.000000000000
         C           -0.583630799086     0.621081971002     0.038944284009    12.000000000000
         C           -0.552735799086    -1.782444028998    -0.124509715991    12.000000000000
         C            1.693191000914    -0.518341728998    -0.086758915991    12.000000000000
         C           -1.979124799086     0.595790971002     0.076650284009    12.000000000000
         C           -1.945610799086    -1.812685028998    -0.111379715991    12.000000000000
         C           -2.659460799086    -0.617827028998    -0.011913715991    12.000000000000
         C            2.382388200914    -1.635924028998     0.665701284009    12.000000000000
         H           -0.000978799086    -2.715416028998    -0.205277715991     1.007825032230
         H           -2.523038799086     1.531650971002     0.168302284009     1.007825032230
         H           -2.469428799086    -2.762450028998    -0.179492715991     1.007825032230
         H           -3.746311799086    -0.625725028998     0.007360284009     1.007825032230
         H            2.195750200914    -2.641023028998     0.274202284009     1.007825032230
         H            2.043972200914    -1.617710028998     1.705723284009     1.007825032230
         H            3.452509200914    -1.430709028998     0.611878284009     1.007825032230

  Basis Set: AUG-CC-PVTZ
    Blend: AUG-CC-PVTZ
  Basis Set: (AUG-CC-PVTZ AUX)
    Blend: AUG-CC-PVTZ-JKFIT
	 Reference Energy          =    -841.5233850235224509 [Eh]
	 Singles Energy            =      -0.0000000000000000 [Eh]
	 Same-Spin Energy          =      -0.4736303802511391 [Eh]
	 Opposite-Spin Energy      =      -1.4480596475623506 [Eh]
	 Correlation Energy        =      -1.9216900278134896 [Eh]
	 Total Energy              =    -843.4450750513359480 [Eh]

	 ================> DF-SCS-MP2 Energies <==================
	-----------------------------------------------------------
	 SCS Same-Spin Scale       =       0.3333333333333333 [-]
	 SCS Opposite-Spin Scale   =       1.2000000000000000 [-]
	 SCS Same-Spin Energy      =      -0.1578767934170464 [Eh]
	 SCS Opposite-Spin Energy  =      -1.7376715770748208 [Eh]
	 SCS Correlation Energy    =      -1.8955483704918672 [Eh]
	 SCS Total Energy          =    -843.4189333940142888 [Eh]
	-----------------------------------------------------------

  Dipole Moment: [D]
     X:    -1.9370      Y:    -2.9297      Z:     1.4124     Total:     3.7855

*** Psi4 exiting successfully. Buy a developer a beer!
