                               Psi4 1.4a3.dev225

  ==> Input File <==

--------------------------------------------------------------------------
#psi4
#
memory 32 gb

molecule  {
0 1
 Cl        0.2076870     2.2487580     0.1866360
  O        2.2653220     0.2846580    -0.8778020
  C        0.1642190    -0.4887810    -0.0665560
  C       -0.5729690     0.7033250     0.0302020
  C       -0.5420740    -1.7002010    -0.1332520
  C        1.6632570    -0.5094160    -0.1597980
  C       -1.9684630     0.6780340     0.0679080
  C       -1.9349490    -1.7304420    -0.1201220
  C       -2.6487990    -0.5355840    -0.0206560
  C        2.3930500    -1.5536810     0.6569590
  H        0.0096830    -2.6331730    -0.2140200
  H       -2.5123770     1.6138940     0.1595600
  H       -2.4587670    -2.6802070    -0.1882350
  H       -3.7556463    -0.5436273    -0.0010274
  H        2.2064120    -2.5587800     0.2654600
  H        2.0546340    -1.5354670     1.6969810
  H        3.4631710    -1.3484660     0.6031360
units angstrom
no_reorient  #important for SAPT in psi4, default
symmetry c1  #important for SAPT in psi4, default
}

set PROPERTIES_ORIGIN ["COM"]
properties('MP2/aug-cc-pvtz', properties = ['dipole'])
--------------------------------------------------------------------------

    Molecular point group: c1
  Charge       = 0
  Multiplicity = 1
  Basis Set: AUG-CC-PVTZ
    Blend: AUG-CC-PVTZ
  Basis Set: (AUG-CC-PVTZ AUX)
    Blend: AUG-CC-PVTZ-JKFIT

    Orbital Energies [Eh]
    ---------------------

    Doubly Occupied:

       1A   -104.841304     2A    -20.553365     3A    -11.346314
       4A    -11.320518     5A    -11.270588     6A    -11.267518
       7A    -11.266148     8A    -11.260277     9A    -11.258185
      10A    -11.243110    11A    -10.565079    12A     -8.031975
      13A     -8.030015    14A     -8.029960    15A     -1.384144
      16A     -1.199517    17A     -1.126734    18A     -1.066153
      19A     -1.013239    20A     -0.999683    21A     -0.875255
      22A     -0.837872    23A     -0.771733    24A     -0.703101
      25A     -0.668916    26A     -0.662359    27A     -0.634292
      28A     -0.621761    29A     -0.603895    30A     -0.593800
      31A     -0.563962    32A     -0.551753    33A     -0.535232
      34A     -0.524418    35A     -0.497794    36A     -0.473694
      37A     -0.457986    38A     -0.419867    39A     -0.361943
      40A     -0.344478

  @DF-RHF Final Energy:  -841.52624726624686

   => Energetics <=

    Nuclear Repulsion Energy =            563.5126005590644809
    One-Electron Energy =               -2272.5218186421684550
    Two-Electron Energy =                 867.4829708168570050
    Total Energy =                       -841.5262472662468554
  Basis Set: (AUG-CC-PVTZ AUX)
    Blend: AUG-CC-PVTZ-RI
    Molecular point group: c1

    Geometry (in Angstrom), charge = 0, multiplicity = 1:

       Center              X                  Y                   Z               Mass
    ------------   -----------------  -----------------  -----------------  -----------------
         CL           0.200318975569     2.172228270340     0.200385500754    34.968852682000
         O            2.257953975569     0.208128270340    -0.864052499246    15.994914619570
         C            0.156850975569    -0.565310729660    -0.052806499246    12.000000000000
         C           -0.580337024431     0.626795270340     0.043951500754    12.000000000000
         C           -0.549442024431    -1.776730729660    -0.119502499246    12.000000000000
         C            1.655888975569    -0.585945729660    -0.146048499246    12.000000000000
         C           -1.975831024431     0.601504270340     0.081657500754    12.000000000000
         C           -1.942317024431    -1.806971729660    -0.106372499246    12.000000000000
         C           -2.656167024431    -0.612113729660    -0.006906499246    12.000000000000
         C            2.385681975569    -1.630210729660     0.670708500754    12.000000000000
         H            0.002314975569    -2.709702729660    -0.200270499246     1.007825032230
         H           -2.519745024431     1.537364270340     0.173309500754     1.007825032230
         H           -2.466135024431    -2.756736729660    -0.174485499246     1.007825032230
         H           -3.763014324431    -0.620157029660     0.012722100754     1.007825032230
         H            2.199043975569    -2.635309729660     0.279209500754     1.007825032230
         H            2.047265975569    -1.611996729660     1.710730500754     1.007825032230
         H            3.455802975569    -1.424995729660     0.616885500754     1.007825032230

  Basis Set: AUG-CC-PVTZ
    Blend: AUG-CC-PVTZ
  Basis Set: (AUG-CC-PVTZ AUX)
    Blend: AUG-CC-PVTZ-JKFIT
	 Reference Energy          =    -841.5262472662468554 [Eh]
	 Singles Energy            =      -0.0000000000000000 [Eh]
	 Same-Spin Energy          =      -0.4742662922053246 [Eh]
	 Opposite-Spin Energy      =      -1.4492826194549668 [Eh]
	 Correlation Energy        =      -1.9235489116602915 [Eh]
	 Total Energy              =    -843.4497961779071602 [Eh]

	 ================> DF-SCS-MP2 Energies <==================
	-----------------------------------------------------------
	 SCS Same-Spin Scale       =       0.3333333333333333 [-]
	 SCS Opposite-Spin Scale   =       1.2000000000000000 [-]
	 SCS Same-Spin Energy      =      -0.1580887640684415 [Eh]
	 SCS Opposite-Spin Energy  =      -1.7391391433459602 [Eh]
	 SCS Correlation Energy    =      -1.8972279074144016 [Eh]
	 SCS Total Energy          =    -843.4234751736612452 [Eh]
	-----------------------------------------------------------

  Dipole Moment: [D]
     X:    -2.1984      Y:    -2.9901      Z:     1.4275     Total:     3.9763

*** Psi4 exiting successfully. Buy a developer a beer!
