                               Psi4 1.4a3.dev225

  ==> Input File <==

--------------------------------------------------------------------------
#psi4
#
memory 32 gb

molecule  {
0 1
 Cl        0.2076870     2.2487580     0.1866360
  O        2.2653220     0.2846580    -0.8778020
  C        0.1642190    -0.4887810    -0.0665560
  C       -0.5729690     0.7033250     0.0302020
  C       -0.5420740    -1.7002010    -0.1332520
  C        1.6632570    -0.5094160    -0.1597980
  C       -1.9684630     0.6780340     0.0679080
  C       -1.9349490    -1.7304420    -0.1201220
  C       -2.6487990    -0.5355840    -0.0206560
  C        2.3930500    -1.5536810     0.6569590
  H        0.0096830    -2.6331730    -0.2140200
  H       -2.5123770     1.6138940     0.1595600
  H       -2.4828667    -2.7239035    -0.1913687
  H       -3.7356500    -0.5434820    -0.0013820
  H        2.2064120    -2.5587800     0.2654600
  H        2.0546340    -1.5354670     1.6969810
  H        3.4631710    -1.3484660     0.6031360
units angstrom
no_reorient  #important for SAPT in psi4, default
symmetry c1  #important for SAPT in psi4, default
}

set PROPERTIES_ORIGIN ["COM"]
properties('MP2/aug-cc-pvtz', properties = ['dipole'])
--------------------------------------------------------------------------

    Molecular point group: c1
  Charge       = 0
  Multiplicity = 1
  Basis Set: AUG-CC-PVTZ
    Blend: AUG-CC-PVTZ
  Basis Set: (AUG-CC-PVTZ AUX)
    Blend: AUG-CC-PVTZ-JKFIT

    Orbital Energies [Eh]
    ---------------------

    Doubly Occupied:

       1A   -104.841359     2A    -20.553497     3A    -11.346460
       4A    -11.320567     5A    -11.270853     6A    -11.267876
       7A    -11.264667     8A    -11.263321     9A    -11.260409
      10A    -11.243174    11A    -10.565135    12A     -8.032031
      13A     -8.030071    14A     -8.030016    15A     -1.384266
      16A     -1.199621    17A     -1.126533    18A     -1.066613
      19A     -1.012498    20A     -0.999213    21A     -0.876537
      22A     -0.836593    23A     -0.768975    24A     -0.702663
      25A     -0.669225    26A     -0.663761    27A     -0.633153
      28A     -0.621838    29A     -0.601407    30A     -0.591614
      31A     -0.564494    32A     -0.552454    33A     -0.536373
      34A     -0.522144    35A     -0.497552    36A     -0.473832
      37A     -0.458073    38A     -0.419968    39A     -0.362147
      40A     -0.344581

  @DF-RHF Final Energy:  -841.52441278135325

   => Energetics <=

    Nuclear Repulsion Energy =            563.3602007411873274
    One-Electron Energy =               -2272.2180980418261242
    Two-Electron Energy =                 867.3334845192855482
    Total Energy =                       -841.5244127813532486
  Basis Set: (AUG-CC-PVTZ AUX)
    Blend: AUG-CC-PVTZ-RI
    Molecular point group: c1

    Geometry (in Angstrom), charge = 0, multiplicity = 1:

       Center              X                  Y                   Z               Mass
    ------------   -----------------  -----------------  -----------------  -----------------
         CL           0.200345826292     2.172513248946     0.200408326552    34.968852682000
         O            2.257980826292     0.208413248946    -0.864029673448    15.994914619570
         C            0.156877826292    -0.565025751054    -0.052783673448    12.000000000000
         C           -0.580310173708     0.627080248946     0.043974326552    12.000000000000
         C           -0.549415173708    -1.776445751054    -0.119479673448    12.000000000000
         C            1.655915826292    -0.585660751054    -0.146025673448    12.000000000000
         C           -1.975804173708     0.601789248946     0.081680326552    12.000000000000
         C           -1.942290173708    -1.806686751054    -0.106349673448    12.000000000000
         C           -2.656140173708    -0.611828751054    -0.006883673448    12.000000000000
         C            2.385708826292    -1.629925751054     0.670731326552    12.000000000000
         H            0.002341826292    -2.709417751054    -0.200247673448     1.007825032230
         H           -2.519718173708     1.537649248946     0.173332326552     1.007825032230
         H           -2.490207873708    -2.800148251054    -0.177596373448     1.007825032230
         H           -3.742991173708    -0.619726751054     0.012390326552     1.007825032230
         H            2.199070826292    -2.635024751054     0.279232326552     1.007825032230
         H            2.047292826292    -1.611711751054     1.710753326552     1.007825032230
         H            3.455829826292    -1.424710751054     0.616908326552     1.007825032230

  Basis Set: AUG-CC-PVTZ
    Blend: AUG-CC-PVTZ
  Basis Set: (AUG-CC-PVTZ AUX)
    Blend: AUG-CC-PVTZ-JKFIT
	 Reference Energy          =    -841.5244127813532486 [Eh]
	 Singles Energy            =      -0.0000000000000000 [Eh]
	 Same-Spin Energy          =      -0.4743295907805300 [Eh]
	 Opposite-Spin Energy      =      -1.4495428425662862 [Eh]
	 Correlation Energy        =      -1.9238724333468162 [Eh]
	 Total Energy              =    -843.4482852147000358 [Eh]

	 ================> DF-SCS-MP2 Energies <==================
	-----------------------------------------------------------
	 SCS Same-Spin Scale       =       0.3333333333333333 [-]
	 SCS Opposite-Spin Scale   =       1.2000000000000000 [-]
	 SCS Same-Spin Energy      =      -0.1581098635935100 [Eh]
	 SCS Opposite-Spin Energy  =      -1.7394514110795434 [Eh]
	 SCS Correlation Energy    =      -1.8975612746730535 [Eh]
	 SCS Total Energy          =    -843.4219740560263290 [Eh]
	-----------------------------------------------------------

  Dipole Moment: [D]
     X:    -2.1937      Y:    -2.9768      Z:     1.4283     Total:     3.9640

*** Psi4 exiting successfully. Buy a developer a beer!
