                               Psi4 1.4a3.dev225

  ==> Input File <==

--------------------------------------------------------------------------
#psi4
#
memory 32 gb

molecule  {
0 1
 Cl        0.2076870     2.2487580     0.1866360
  O        2.2653220     0.2846580    -0.8778020
  C        0.1642190    -0.4887810    -0.0665560
  C       -0.5729690     0.7033250     0.0302020
  C       -0.5420740    -1.7002010    -0.1332520
  C        1.6632570    -0.5094160    -0.1597980
  C       -1.9684630     0.6780340     0.0679080
  C       -1.9349490    -1.7304420    -0.1201220
  C       -2.6590304    -0.5184584    -0.0192304
  C        2.3930500    -1.5536810     0.6569590
  H        0.0096830    -2.6331730    -0.2140200
  H       -2.5123770     1.6138940     0.1595600
  H       -2.4587670    -2.6802070    -0.1882350
  H       -3.7356500    -0.5434820    -0.0013820
  H        2.2064120    -2.5587800     0.2654600
  H        2.0546340    -1.5354670     1.6969810
  H        3.4631710    -1.3484660     0.6031360
units angstrom
no_reorient  #important for SAPT in psi4, default
symmetry c1  #important for SAPT in psi4, default
}

set PROPERTIES_ORIGIN ["COM"]
properties('MP2/aug-cc-pvtz', properties = ['dipole'])
--------------------------------------------------------------------------

    Molecular point group: c1
  Charge       = 0
  Multiplicity = 1
  Basis Set: AUG-CC-PVTZ
    Blend: AUG-CC-PVTZ
  Basis Set: (AUG-CC-PVTZ AUX)
    Blend: AUG-CC-PVTZ-JKFIT

    Orbital Energies [Eh]
    ---------------------

    Doubly Occupied:

       1A   -104.841471     2A    -20.553378     3A    -11.346275
       4A    -11.320659     5A    -11.270551     6A    -11.267026
       7A    -11.264199     8A    -11.260023     9A    -11.259227
      10A    -11.243107    11A    -10.565232    12A     -8.032128
      13A     -8.030168    14A     -8.030112    15A     -1.384131
      16A     -1.199130    17A     -1.125683    18A     -1.066891
      19A     -1.013462    20A     -0.998844    21A     -0.876167
      22A     -0.838013    23A     -0.772021    24A     -0.704444
      25A     -0.669434    26A     -0.664141    27A     -0.634232
      28A     -0.621747    29A     -0.604149    30A     -0.593529
      31A     -0.564758    32A     -0.551894    33A     -0.536742
      34A     -0.523947    35A     -0.497470    36A     -0.472792
      37A     -0.458117    38A     -0.419978    39A     -0.363259
      40A     -0.342693

  @DF-RHF Final Energy:  -841.52629027600642

   => Energetics <=

    Nuclear Repulsion Energy =            563.4470553153174706
    One-Electron Energy =               -2272.3842406458834375
    Two-Electron Energy =                 867.4108950545596599
    Total Energy =                       -841.5262902760064208
  Basis Set: (AUG-CC-PVTZ AUX)
    Blend: AUG-CC-PVTZ-RI
    Molecular point group: c1

    Geometry (in Angstrom), charge = 0, multiplicity = 1:

       Center              X                  Y                   Z               Mass
    ------------   -----------------  -----------------  -----------------  -----------------
         CL           0.200985285135     2.170893017885     0.200276748750    34.968852682000
         O            2.258620285135     0.206793017885    -0.864161251250    15.994914619570
         C            0.157517285135    -0.566645982115    -0.052915251250    12.000000000000
         C           -0.579670714865     0.625460017885     0.043842748750    12.000000000000
         C           -0.548775714865    -1.778065982115    -0.119611251250    12.000000000000
         C            1.656555285135    -0.587280982115    -0.146157251250    12.000000000000
         C           -1.975164714865     0.600169017885     0.081548748750    12.000000000000
         C           -1.941650714865    -1.808306982115    -0.106481251250    12.000000000000
         C           -2.665732114865    -0.596323382115    -0.005589651250    12.000000000000
         C            2.386348285135    -1.631545982115     0.670599748750    12.000000000000
         H            0.002981285135    -2.711037982115    -0.200379251250     1.007825032230
         H           -2.519078714865     1.536029017885     0.173200748750     1.007825032230
         H           -2.465468714865    -2.758071982115    -0.174594251250     1.007825032230
         H           -3.742351714865    -0.621346982115     0.012258748750     1.007825032230
         H            2.199710285135    -2.636644982115     0.279100748750     1.007825032230
         H            2.047932285135    -1.613331982115     1.710621748750     1.007825032230
         H            3.456469285135    -1.426330982115     0.616776748750     1.007825032230

  Basis Set: AUG-CC-PVTZ
    Blend: AUG-CC-PVTZ
  Basis Set: (AUG-CC-PVTZ AUX)
    Blend: AUG-CC-PVTZ-JKFIT
	 Reference Energy          =    -841.5262902760064208 [Eh]
	 Singles Energy            =      -0.0000000000000000 [Eh]
	 Same-Spin Energy          =      -0.4742138122769934 [Eh]
	 Opposite-Spin Energy      =      -1.4492186521156245 [Eh]
	 Correlation Energy        =      -1.9234324643926179 [Eh]
	 Total Energy              =    -843.4497227403990109 [Eh]

	 ================> DF-SCS-MP2 Energies <==================
	-----------------------------------------------------------
	 SCS Same-Spin Scale       =       0.3333333333333333 [-]
	 SCS Opposite-Spin Scale   =       1.2000000000000000 [-]
	 SCS Same-Spin Energy      =      -0.1580712707589978 [Eh]
	 SCS Opposite-Spin Energy  =      -1.7390623825387495 [Eh]
	 SCS Correlation Energy    =      -1.8971336532977472 [Eh]
	 SCS Total Energy          =    -843.4234239293041355 [Eh]
	-----------------------------------------------------------

  Dipole Moment: [D]
     X:    -2.2077      Y:    -2.9856      Z:     1.4282     Total:     3.9783

*** Psi4 exiting successfully. Buy a developer a beer!
