                               Psi4 1.4a3.dev225

  ==> Input File <==

--------------------------------------------------------------------------
#psi4
#
memory 32 gb

molecule  {
0 1
 Cl        0.2076870     2.2487580     0.1866360
  O        2.2653220     0.2846580    -0.8778020
  C        0.1642190    -0.4887810    -0.0665560
  C       -0.5729690     0.7033250     0.0302020
  C       -0.5420740    -1.7002010    -0.1332520
  C        1.6730801    -0.4905953    -0.1440849
  C       -1.9684630     0.6780340     0.0679080
  C       -1.9349490    -1.7304420    -0.1201220
  C       -2.6487990    -0.5355840    -0.0206560
  C        2.3930500    -1.5536810     0.6569590
  H        0.0096830    -2.6331730    -0.2140200
  H       -2.5123770     1.6138940     0.1595600
  H       -2.4587670    -2.6802070    -0.1882350
  H       -3.7356500    -0.5434820    -0.0013820
  H        2.2064120    -2.5587800     0.2654600
  H        2.0546340    -1.5354670     1.6969810
  H        3.4631710    -1.3484660     0.6031360
units angstrom
no_reorient  #important for SAPT in psi4, default
symmetry c1  #important for SAPT in psi4, default
}

set PROPERTIES_ORIGIN ["COM"]
properties('MP2/aug-cc-pvtz', properties = ['dipole'])
--------------------------------------------------------------------------

    Molecular point group: c1
  Charge       = 0
  Multiplicity = 1
  Basis Set: AUG-CC-PVTZ
    Blend: AUG-CC-PVTZ
  Basis Set: (AUG-CC-PVTZ AUX)
    Blend: AUG-CC-PVTZ-JKFIT

    Orbital Energies [Eh]
    ---------------------

    Doubly Occupied:

       1A   -104.841137     2A    -20.554422     3A    -11.346311
       4A    -11.319451     5A    -11.270410     6A    -11.266954
       7A    -11.263244     8A    -11.259576     9A    -11.257704
      10A    -11.242939    11A    -10.564933    12A     -8.031829
      13A     -8.029872    14A     -8.029818    15A     -1.389636
      16A     -1.198950    17A     -1.126411    18A     -1.065084
      19A     -1.012979    20A     -0.999631    21A     -0.875175
      22A     -0.836797    23A     -0.771377    24A     -0.704598
      25A     -0.668611    26A     -0.664064    27A     -0.634695
      28A     -0.623501    29A     -0.603812    30A     -0.593759
      31A     -0.564057    32A     -0.552190    33A     -0.536226
      34A     -0.524311    35A     -0.500177    36A     -0.473550
      37A     -0.458054    38A     -0.419379    39A     -0.361362
      40A     -0.343996

  @DF-RHF Final Energy:  -841.52737398834097

   => Energetics <=

    Nuclear Repulsion Energy =            563.6523519168796383
    One-Electron Energy =               -2272.7974817030280974
    Two-Electron Energy =                 867.6177557978076038
    Total Energy =                       -841.5273739883409689
  Basis Set: (AUG-CC-PVTZ AUX)
    Blend: AUG-CC-PVTZ-RI
    Molecular point group: c1

    Geometry (in Angstrom), charge = 0, multiplicity = 1:

       Center              X                  Y                   Z               Mass
    ------------   -----------------  -----------------  -----------------  -----------------
         CL           0.199422784958     2.170760948073     0.199163571095    34.968852682000
         O            2.257057784958     0.206660948073    -0.865274428905    15.994914619570
         C            0.155954784958    -0.566778051927    -0.054028428905    12.000000000000
         C           -0.581233215042     0.625327948073     0.042729571095    12.000000000000
         C           -0.550338215042    -1.778198051927    -0.120724428905    12.000000000000
         C            1.664815884958    -0.568592351927    -0.131557328905    12.000000000000
         C           -1.976727215042     0.600036948073     0.080435571095    12.000000000000
         C           -1.943213215042    -1.808439051927    -0.107594428905    12.000000000000
         C           -2.657063215042    -0.613581051927    -0.008128428905    12.000000000000
         C            2.384785784958    -1.631678051927     0.669486571095    12.000000000000
         H            0.001418784958    -2.711170051927    -0.201492428905     1.007825032230
         H           -2.520641215042     1.535896948073     0.172087571095     1.007825032230
         H           -2.467031215042    -2.758204051927    -0.175707428905     1.007825032230
         H           -3.743914215042    -0.621479051927     0.011145571095     1.007825032230
         H            2.198147784958    -2.636777051927     0.277987571095     1.007825032230
         H            2.046369784958    -1.613464051927     1.709508571095     1.007825032230
         H            3.454906784958    -1.426463051927     0.615663571095     1.007825032230

  Basis Set: AUG-CC-PVTZ
    Blend: AUG-CC-PVTZ
  Basis Set: (AUG-CC-PVTZ AUX)
    Blend: AUG-CC-PVTZ-JKFIT
	 Reference Energy          =    -841.5273739883409689 [Eh]
	 Singles Energy            =      -0.0000000000000000 [Eh]
	 Same-Spin Energy          =      -0.4739954126299833 [Eh]
	 Opposite-Spin Energy      =      -1.4486468619052615 [Eh]
	 Correlation Energy        =      -1.9226422745352449 [Eh]
	 Total Energy              =    -843.4500162628762610 [Eh]

	 ================> DF-SCS-MP2 Energies <==================
	-----------------------------------------------------------
	 SCS Same-Spin Scale       =       0.3333333333333333 [-]
	 SCS Opposite-Spin Scale   =       1.2000000000000000 [-]
	 SCS Same-Spin Energy      =      -0.1579984708766611 [Eh]
	 SCS Opposite-Spin Energy  =      -1.7383762342863138 [Eh]
	 SCS Correlation Energy    =      -1.8963747051629749 [Eh]
	 SCS Total Energy          =    -843.4237486935039669 [Eh]
	-----------------------------------------------------------

  Dipole Moment: [D]
     X:    -2.1416      Y:    -2.9763      Z:     1.4228     Total:     3.9331

*** Psi4 exiting successfully. Buy a developer a beer!
