                               Psi4 1.4a3.dev225

  ==> Input File <==

--------------------------------------------------------------------------
#psi4
#
memory 32 gb

molecule  {
0 1
 Cl        0.2076870     2.2487580     0.1866360
  O        2.2653220     0.2846580    -0.8778020
  C        0.1642190    -0.4887810    -0.0665560
  C       -0.5729690     0.7033250     0.0302020
  C       -0.5420740    -1.7002010    -0.1332520
  C        1.6632570    -0.5094160    -0.1597980
  C       -1.9684630     0.6780340     0.0679080
  C       -2.0349210    -1.7326125    -0.1191796
  C       -2.6487990    -0.5355840    -0.0206560
  C        2.3930500    -1.5536810     0.6569590
  H        0.0096830    -2.6331730    -0.2140200
  H       -2.5123770     1.6138940     0.1595600
  H       -2.4587670    -2.6802070    -0.1882350
  H       -3.7356500    -0.5434820    -0.0013820
  H        2.2064120    -2.5587800     0.2654600
  H        2.0546340    -1.5354670     1.6969810
  H        3.4631710    -1.3484660     0.6031360
units angstrom
no_reorient  #important for SAPT in psi4, default
symmetry c1  #important for SAPT in psi4, default
}

set PROPERTIES_ORIGIN ["COM"]
properties('MP2/aug-cc-pvtz', properties = ['dipole'])
--------------------------------------------------------------------------

    Molecular point group: c1
  Charge       = 0
  Multiplicity = 1
  Basis Set: AUG-CC-PVTZ
    Blend: AUG-CC-PVTZ
  Basis Set: (AUG-CC-PVTZ AUX)
    Blend: AUG-CC-PVTZ-JKFIT

    Orbital Energies [Eh]
    ---------------------

    Doubly Occupied:

       1A   -104.841252     2A    -20.553602     3A    -11.346736
       4A    -11.320700     5A    -11.278093     6A    -11.271218
       7A    -11.260305     8A    -11.259792     9A    -11.257918
      10A    -11.243097    11A    -10.565026    12A     -8.031921
      13A     -8.029963    14A     -8.029907    15A     -1.384448
      16A     -1.197285    17A     -1.124120    18A     -1.069309
      19A     -1.005523    20A     -1.003149    21A     -0.872698
      22A     -0.842210    23A     -0.774880    24A     -0.704515
      25A     -0.667942    26A     -0.662627    27A     -0.641186
      28A     -0.621802    29A     -0.607464    30A     -0.591875
      31A     -0.562322    32A     -0.548847    33A     -0.535937
      34A     -0.521813    35A     -0.499446    36A     -0.471635
      37A     -0.458104    38A     -0.418990    39A     -0.365552
      40A     -0.339399

  @DF-RHF Final Energy:  -841.51526958379964

   => Energetics <=

    Nuclear Repulsion Energy =            562.4105365080491765
    One-Electron Energy =               -2270.2863943024367472
    Two-Electron Energy =                 866.3605882105880482
    Total Energy =                       -841.5152695837996362
  Basis Set: (AUG-CC-PVTZ AUX)
    Blend: AUG-CC-PVTZ-RI
    Molecular point group: c1

    Geometry (in Angstrom), charge = 0, multiplicity = 1:

       Center              X                  Y                   Z               Mass
    ------------   -----------------  -----------------  -----------------  -----------------
         CL           0.207977217291     2.172396429073     0.200314396165    34.968852682000
         O            2.265612217291     0.208296429073    -0.864123603835    15.994914619570
         C            0.164509217291    -0.565142570927    -0.052877603835    12.000000000000
         C           -0.572678782709     0.626963429073     0.043880396165    12.000000000000
         C           -0.541783782709    -1.776562570927    -0.119573603835    12.000000000000
         C            1.663547217291    -0.585777570927    -0.146119603835    12.000000000000
         C           -1.968172782709     0.601672429073     0.081586396165    12.000000000000
         C           -2.034630782709    -1.808974070927    -0.105501203835    12.000000000000
         C           -2.648508782709    -0.611945570927    -0.006977603835    12.000000000000
         C            2.393340217291    -1.630042570927     0.670637396165    12.000000000000
         H            0.009973217291    -2.709534570927    -0.200341603835     1.007825032230
         H           -2.512086782709     1.537532429073     0.173238396165     1.007825032230
         H           -2.458476782709    -2.756568570927    -0.174556603835     1.007825032230
         H           -3.735359782709    -0.619843570927     0.012296396165     1.007825032230
         H            2.206702217291    -2.635141570927     0.279138396165     1.007825032230
         H            2.054924217291    -1.611828570927     1.710659396165     1.007825032230
         H            3.463461217291    -1.424827570927     0.616814396165     1.007825032230

  Basis Set: AUG-CC-PVTZ
    Blend: AUG-CC-PVTZ
  Basis Set: (AUG-CC-PVTZ AUX)
    Blend: AUG-CC-PVTZ-JKFIT
	 Reference Energy          =    -841.5152695837996362 [Eh]
	 Singles Energy            =      -0.0000000000000000 [Eh]
	 Same-Spin Energy          =      -0.4739900030040902 [Eh]
	 Opposite-Spin Energy      =      -1.4498903909282668 [Eh]
	 Correlation Energy        =      -1.9238803939323570 [Eh]
	 Total Energy              =    -843.4391499777319723 [Eh]

	 ================> DF-SCS-MP2 Energies <==================
	-----------------------------------------------------------
	 SCS Same-Spin Scale       =       0.3333333333333333 [-]
	 SCS Opposite-Spin Scale   =       1.2000000000000000 [-]
	 SCS Same-Spin Energy      =      -0.1579966676680301 [Eh]
	 SCS Opposite-Spin Energy  =      -1.7398684691139201 [Eh]
	 SCS Correlation Energy    =      -1.8978651367819501 [Eh]
	 SCS Total Energy          =    -843.4131347205816382 [Eh]
	-----------------------------------------------------------

  Dipole Moment: [D]
     X:    -2.1638      Y:    -3.0262      Z:     1.4231     Total:     3.9831

*** Psi4 exiting successfully. Buy a developer a beer!
