                               Psi4 1.4a3.dev225

  ==> Input File <==

--------------------------------------------------------------------------
#psi4
#
memory 32 gb

molecule  {
0 1
 Cl        0.2076870     2.2487580     0.1866360
  O        2.2653220     0.2846580    -0.8778020
  C        0.1642190    -0.4887810    -0.0665560
  C       -0.5729690     0.7033250     0.0302020
  C       -0.5420740    -1.7002010    -0.1332520
  C        1.6632570    -0.5094160    -0.1597980
  C       -1.9684630     0.6780340     0.0679080
  C       -1.9349490    -1.7304420    -0.1201220
  C       -2.5634284    -0.4887799    -0.0178971
  C        2.3930500    -1.5536810     0.6569590
  H        0.0096830    -2.6331730    -0.2140200
  H       -2.5123770     1.6138940     0.1595600
  H       -2.4587670    -2.6802070    -0.1882350
  H       -3.7356500    -0.5434820    -0.0013820
  H        2.2064120    -2.5587800     0.2654600
  H        2.0546340    -1.5354670     1.6969810
  H        3.4631710    -1.3484660     0.6031360
units angstrom
no_reorient  #important for SAPT in psi4, default
symmetry c1  #important for SAPT in psi4, default
}

set PROPERTIES_ORIGIN ["COM"]
properties('MP2/aug-cc-pvtz', properties = ['dipole'])
--------------------------------------------------------------------------

    Molecular point group: c1
  Charge       = 0
  Multiplicity = 1
  Basis Set: AUG-CC-PVTZ
    Blend: AUG-CC-PVTZ
  Basis Set: (AUG-CC-PVTZ AUX)
    Blend: AUG-CC-PVTZ-JKFIT

    Orbital Energies [Eh]
    ---------------------

    Doubly Occupied:

       1A   -104.842084     2A    -20.552835     3A    -11.345970
       4A    -11.322105     5A    -11.268789     6A    -11.266873
       7A    -11.261173     8A    -11.257480     9A    -11.250906
      10A    -11.242920    11A    -10.565878    12A     -8.032766
      13A     -8.030823    14A     -8.030758    15A     -1.383702
      16A     -1.206386    17A     -1.129552    18A     -1.072660
      19A     -1.019112    20A     -0.998264    21A     -0.868973
      22A     -0.843528    23A     -0.772839    24A     -0.702226
      25A     -0.674188    26A     -0.653397    27A     -0.638020
      28A     -0.623218    29A     -0.609998    30A     -0.594036
      31A     -0.563430    32A     -0.551784    33A     -0.533489
      34A     -0.515304    35A     -0.497178    36A     -0.476266
      37A     -0.458384    38A     -0.419098    39A     -0.371591
      40A     -0.342349

  @DF-RHF Final Energy:  -841.51484275777818

   => Energetics <=

    Nuclear Repulsion Energy =            565.5612080925683358
    One-Electron Energy =               -2276.5714366753313698
    Two-Electron Energy =                 869.4953858249847372
    Total Energy =                       -841.5148427577781831
  Basis Set: (AUG-CC-PVTZ AUX)
    Blend: AUG-CC-PVTZ-RI
    Molecular point group: c1

    Geometry (in Angstrom), charge = 0, multiplicity = 1:

       Center              X                  Y                   Z               Mass
    ------------   -----------------  -----------------  -----------------  -----------------
         CL           0.193536675499     2.168580685914     0.200172867751    34.968852682000
         O            2.251171675499     0.204480685914    -0.864265132249    15.994914619570
         C            0.150068675499    -0.568958314086    -0.053019132249    12.000000000000
         C           -0.587119324501     0.623147685914     0.043738867751    12.000000000000
         C           -0.556224324501    -1.780378314086    -0.119715132249    12.000000000000
         C            1.649106675499    -0.589593314086    -0.146261132249    12.000000000000
         C           -1.982613324501     0.597856685914     0.081444867751    12.000000000000
         C           -1.949099324501    -1.810619314086    -0.106585132249    12.000000000000
         C           -2.577578724501    -0.568957214086    -0.004360232249    12.000000000000
         C            2.378899675499    -1.633858314086     0.670495867751    12.000000000000
         H           -0.004467324501    -2.713350314086    -0.200483132249     1.007825032230
         H           -2.526527324501     1.533716685914     0.173096867751     1.007825032230
         H           -2.472917324501    -2.760384314086    -0.174698132249     1.007825032230
         H           -3.749800324501    -0.623659314086     0.012154867751     1.007825032230
         H            2.192261675499    -2.638957314086     0.278996867751     1.007825032230
         H            2.040483675499    -1.615644314086     1.710517867751     1.007825032230
         H            3.449020675499    -1.428643314086     0.616672867751     1.007825032230

  Basis Set: AUG-CC-PVTZ
    Blend: AUG-CC-PVTZ
  Basis Set: (AUG-CC-PVTZ AUX)
    Blend: AUG-CC-PVTZ-JKFIT
	 Reference Energy          =    -841.5148427577781831 [Eh]
	 Singles Energy            =      -0.0000000000000000 [Eh]
	 Same-Spin Energy          =      -0.4744346095011445 [Eh]
	 Opposite-Spin Energy      =      -1.4493104698740020 [Eh]
	 Correlation Energy        =      -1.9237450793751465 [Eh]
	 Total Energy              =    -843.4385878371533636 [Eh]

	 ================> DF-SCS-MP2 Energies <==================
	-----------------------------------------------------------
	 SCS Same-Spin Scale       =       0.3333333333333333 [-]
	 SCS Opposite-Spin Scale   =       1.2000000000000000 [-]
	 SCS Same-Spin Energy      =      -0.1581448698337148 [Eh]
	 SCS Opposite-Spin Energy  =      -1.7391725638488025 [Eh]
	 SCS Correlation Energy    =      -1.8973174336825174 [Eh]
	 SCS Total Energy          =    -843.4121601914606572 [Eh]
	-----------------------------------------------------------

  Dipole Moment: [D]
     X:    -2.1459      Y:    -2.9930      Z:     1.4255     Total:     3.9490

*** Psi4 exiting successfully. Buy a developer a beer!
