                               Psi4 1.4a3.dev225

  ==> Input File <==

--------------------------------------------------------------------------
#psi4
#
memory 32 gb

molecule  {
0 1
 Cl        0.2076870     2.2487580     0.1866360
  O        2.2653220     0.2846580    -0.8778020
  C        0.1642190    -0.4887810    -0.0665560
  C       -0.5954215     0.6588768     0.0257028
  C       -0.5420740    -1.7002010    -0.1332520
  C        1.6632570    -0.5094160    -0.1597980
  C       -1.9684630     0.6780340     0.0679080
  C       -1.9349490    -1.7304420    -0.1201220
  C       -2.6487990    -0.5355840    -0.0206560
  C        2.3930500    -1.5536810     0.6569590
  H        0.0096830    -2.6331730    -0.2140200
  H       -2.5123770     1.6138940     0.1595600
  H       -2.4587670    -2.6802070    -0.1882350
  H       -3.7356500    -0.5434820    -0.0013820
  H        2.2064120    -2.5587800     0.2654600
  H        2.0546340    -1.5354670     1.6969810
  H        3.4631710    -1.3484660     0.6031360
units angstrom
no_reorient  #important for SAPT in psi4, default
symmetry c1  #important for SAPT in psi4, default
}

set PROPERTIES_ORIGIN ["COM"]
properties('MP2/aug-cc-pvtz', properties = ['dipole'])
--------------------------------------------------------------------------

    Molecular point group: c1
  Charge       = 0
  Multiplicity = 1
  Basis Set: AUG-CC-PVTZ
    Blend: AUG-CC-PVTZ
  Basis Set: (AUG-CC-PVTZ AUX)
    Blend: AUG-CC-PVTZ-JKFIT

    Orbital Energies [Eh]
    ---------------------

    Doubly Occupied:

       1A   -104.835041     2A    -20.554571     3A    -11.348237
       4A    -11.319032     5A    -11.270121     6A    -11.268765
       7A    -11.265439     8A    -11.259682     9A    -11.259159
      10A    -11.244300    11A    -10.558254    12A     -8.025040
      13A     -8.023220    14A     -8.023171    15A     -1.385089
      16A     -1.201626    17A     -1.117318    18A     -1.070094
      19A     -1.015256    20A     -1.002697    21A     -0.879383
      22A     -0.840919    23A     -0.775585    24A     -0.705849
      25A     -0.671684    26A     -0.664095    27A     -0.637643
      28A     -0.622757    29A     -0.603564    30A     -0.591384
      31A     -0.565345    32A     -0.553753    33A     -0.538898
      34A     -0.516634    35A     -0.497692    36A     -0.469108
      37A     -0.453631    38A     -0.421424    39A     -0.364070
      40A     -0.350319

  @DF-RHF Final Energy:  -841.52565760760501

   => Energetics <=

    Nuclear Repulsion Energy =            563.6474035178330269
    One-Electron Energy =               -2272.8064252904691784
    Two-Electron Energy =                 867.6333641650311392
    Total Energy =                       -841.5256576076050123
  Basis Set: (AUG-CC-PVTZ AUX)
    Blend: AUG-CC-PVTZ-RI
    Molecular point group: c1

    Geometry (in Angstrom), charge = 0, multiplicity = 1:

       Center              X                  Y                   Z               Mass
    ------------   -----------------  -----------------  -----------------  -----------------
         CL           0.201937463994     2.175690398693     0.200738365895    34.968852682000
         O            2.259572463994     0.211590398693    -0.863699634105    15.994914619570
         C            0.158469463994    -0.561848601307    -0.052453634105    12.000000000000
         C           -0.601171036006     0.585809198693     0.039805165895    12.000000000000
         C           -0.547823536006    -1.773268601307    -0.119149634105    12.000000000000
         C            1.657507463994    -0.582483601307    -0.145695634105    12.000000000000
         C           -1.974212536006     0.604966398693     0.082010365895    12.000000000000
         C           -1.940698536006    -1.803509601307    -0.106019634105    12.000000000000
         C           -2.654548536006    -0.608651601307    -0.006553634105    12.000000000000
         C            2.387300463994    -1.626748601307     0.671061365895    12.000000000000
         H            0.003933463994    -2.706240601307    -0.199917634105     1.007825032230
         H           -2.518126536006     1.540826398693     0.173662365895     1.007825032230
         H           -2.464516536006    -2.753274601307    -0.174132634105     1.007825032230
         H           -3.741399536006    -0.616549601307     0.012720365895     1.007825032230
         H            2.200662463994    -2.631847601307     0.279562365895     1.007825032230
         H            2.048884463994    -1.608534601307     1.711083365895     1.007825032230
         H            3.457421463994    -1.421533601307     0.617238365895     1.007825032230

  Basis Set: AUG-CC-PVTZ
    Blend: AUG-CC-PVTZ
  Basis Set: (AUG-CC-PVTZ AUX)
    Blend: AUG-CC-PVTZ-JKFIT
	 Reference Energy          =    -841.5256576076050123 [Eh]
	 Singles Energy            =      -0.0000000000000000 [Eh]
	 Same-Spin Energy          =      -0.4738683784343730 [Eh]
	 Opposite-Spin Energy      =      -1.4487655368531065 [Eh]
	 Correlation Energy        =      -1.9226339152874794 [Eh]
	 Total Energy              =    -843.4482915228925322 [Eh]

	 ================> DF-SCS-MP2 Energies <==================
	-----------------------------------------------------------
	 SCS Same-Spin Scale       =       0.3333333333333333 [-]
	 SCS Opposite-Spin Scale   =       1.2000000000000000 [-]
	 SCS Same-Spin Energy      =      -0.1579561261447910 [Eh]
	 SCS Opposite-Spin Energy  =      -1.7385186442237277 [Eh]
	 SCS Correlation Energy    =      -1.8964747703685187 [Eh]
	 SCS Total Energy          =    -843.4221323779735258 [Eh]
	-----------------------------------------------------------

  Dipole Moment: [D]
     X:    -2.2829      Y:    -3.2280      Z:     1.4018     Total:     4.1948

*** Psi4 exiting successfully. Buy a developer a beer!
