                               Psi4 1.4a3.dev225

  ==> Input File <==

--------------------------------------------------------------------------
#psi4
#
memory 32 gb

molecule  {
0 1
 Cl        0.2076870     2.2487580     0.1866360
  O        2.2653220     0.2846580    -0.8778020
  C        0.1642190    -0.4887810    -0.0665560
  C       -0.5729690     0.7033250     0.0302020
  C       -0.5420740    -1.7002010    -0.1332520
  C        1.6632570    -0.5094160    -0.1597980
  C       -1.9684630     0.6780340     0.0679080
  C       -1.9349490    -1.7304420    -0.1201220
  C       -2.6487990    -0.5355840    -0.0206560
  C        2.3930500    -1.5536810     0.6569590
  H        0.0096830    -2.6331730    -0.2140200
  H       -2.5123770     1.6138940     0.1595600
  H       -2.4587670    -2.6802070    -0.1882350
  H       -3.8356316    -0.5442086     0.0003911
  H        2.2064120    -2.5587800     0.2654600
  H        2.0546340    -1.5354670     1.6969810
  H        3.4631710    -1.3484660     0.6031360
units angstrom
no_reorient  #important for SAPT in psi4, default
symmetry c1  #important for SAPT in psi4, default
}

set PROPERTIES_ORIGIN ["COM"]
properties('MP2/aug-cc-pvtz', properties = ['dipole'])
--------------------------------------------------------------------------

    Molecular point group: c1
  Charge       = 0
  Multiplicity = 1
  Basis Set: AUG-CC-PVTZ
    Blend: AUG-CC-PVTZ
  Basis Set: (AUG-CC-PVTZ AUX)
    Blend: AUG-CC-PVTZ-JKFIT

    Orbital Energies [Eh]
    ---------------------

    Doubly Occupied:

       1A   -104.841669     2A    -20.553574     3A    -11.346530
       4A    -11.321035     5A    -11.274818     6A    -11.270890
       7A    -11.268058     8A    -11.261055     9A    -11.258970
      10A    -11.243290    11A    -10.565437    12A     -8.032334
      13A     -8.030371    14A     -8.030316    15A     -1.384351
      16A     -1.199821    17A     -1.126807    18A     -1.065287
      19A     -1.013588    20A     -0.999340    21A     -0.871950
      22A     -0.837724    23A     -0.771340    24A     -0.699589
      25A     -0.669114    26A     -0.656253    27A     -0.633989
      28A     -0.621938    29A     -0.603762    30A     -0.594079
      31A     -0.562915    32A     -0.550291    33A     -0.530407
      34A     -0.524009    35A     -0.498001    36A     -0.474094
      37A     -0.458236    38A     -0.419999    39A     -0.362346
      40A     -0.344906

  @DF-RHF Final Energy:  -841.51948865088116

   => Energetics <=

    Nuclear Repulsion Energy =            563.1157934214769512
    One-Electron Energy =               -2271.7255973420037662
    Two-Electron Energy =                 867.0903152696455436
    Total Energy =                       -841.5194886508811578
  Basis Set: (AUG-CC-PVTZ AUX)
    Blend: AUG-CC-PVTZ-RI
    Molecular point group: c1

    Geometry (in Angstrom), charge = 0, multiplicity = 1:

       Center              X                  Y                   Z               Mass
    ------------   -----------------  -----------------  -----------------  -----------------
         CL           0.200842361820     2.172232074094     0.200376218756    34.968852682000
         O            2.258477361820     0.208132074094    -0.864061781244    15.994914619570
         C            0.157374361820    -0.565306925906    -0.052815781244    12.000000000000
         C           -0.579813638180     0.626799074094     0.043942218756    12.000000000000
         C           -0.548918638180    -1.776726925906    -0.119511781244    12.000000000000
         C            1.656412361820    -0.585941925906    -0.146057781244    12.000000000000
         C           -1.975307638180     0.601508074094     0.081648218756    12.000000000000
         C           -1.941793638180    -1.806967925906    -0.106381781244    12.000000000000
         C           -2.655643638180    -0.612109925906    -0.006915781244    12.000000000000
         C            2.386205361820    -1.630206925906     0.670699218756    12.000000000000
         H            0.002838361820    -2.709698925906    -0.200279781244     1.007825032230
         H           -2.519221638180     1.537368074094     0.173300218756     1.007825032230
         H           -2.465611638180    -2.756732925906    -0.174494781244     1.007825032230
         H           -3.842476238180    -0.620734525906     0.014131318756     1.007825032230
         H            2.199567361820    -2.635305925906     0.279200218756     1.007825032230
         H            2.047789361820    -1.611992925906     1.710721218756     1.007825032230
         H            3.456326361820    -1.424991925906     0.616876218756     1.007825032230

  Basis Set: AUG-CC-PVTZ
    Blend: AUG-CC-PVTZ
  Basis Set: (AUG-CC-PVTZ AUX)
    Blend: AUG-CC-PVTZ-JKFIT
	 Reference Energy          =    -841.5194886508811578 [Eh]
	 Singles Energy            =      -0.0000000000000000 [Eh]
	 Same-Spin Energy          =      -0.4744479230794639 [Eh]
	 Opposite-Spin Energy      =      -1.4500697132322036 [Eh]
	 Correlation Energy        =      -1.9245176363116676 [Eh]
	 Total Energy              =    -843.4440062871927921 [Eh]

	 ================> DF-SCS-MP2 Energies <==================
	-----------------------------------------------------------
	 SCS Same-Spin Scale       =       0.3333333333333333 [-]
	 SCS Opposite-Spin Scale   =       1.2000000000000000 [-]
	 SCS Same-Spin Energy      =      -0.1581493076931546 [Eh]
	 SCS Opposite-Spin Energy  =      -1.7400836558786443 [Eh]
	 SCS Correlation Energy    =      -1.8982329635717989 [Eh]
	 SCS Total Energy          =    -843.4177216144529439 [Eh]
	-----------------------------------------------------------

  Dipole Moment: [D]
     X:    -2.1667      Y:    -2.9861      Z:     1.4276     Total:     3.9559

*** Psi4 exiting successfully. Buy a developer a beer!
