                               Psi4 1.4a3.dev225

  ==> Input File <==

--------------------------------------------------------------------------
#psi4
#
memory 32 gb

molecule  {
0 1
 Cl        0.2076870     2.2487580     0.1866360
  O        2.2653220     0.2846580    -0.8778020
  C        0.1642190    -0.4887810    -0.0665560
  C       -0.5729690     0.7033250     0.0302020
  C       -0.5169187    -1.6570551    -0.1308766
  C        1.6632570    -0.5094160    -0.1597980
  C       -1.9684630     0.6780340     0.0679080
  C       -1.9349490    -1.7304420    -0.1201220
  C       -2.6487990    -0.5355840    -0.0206560
  C        2.3930500    -1.5536810     0.6569590
  H        0.0096830    -2.6331730    -0.2140200
  H       -2.5123770     1.6138940     0.1595600
  H       -2.4587670    -2.6802070    -0.1882350
  H       -3.7356500    -0.5434820    -0.0013820
  H        2.2064120    -2.5587800     0.2654600
  H        2.0546340    -1.5354670     1.6969810
  H        3.4631710    -1.3484660     0.6031360
units angstrom
no_reorient  #important for SAPT in psi4, default
symmetry c1  #important for SAPT in psi4, default
}

set PROPERTIES_ORIGIN ["COM"]
properties('MP2/aug-cc-pvtz', properties = ['dipole'])
--------------------------------------------------------------------------

    Molecular point group: c1
  Charge       = 0
  Multiplicity = 1
  Basis Set: AUG-CC-PVTZ
    Blend: AUG-CC-PVTZ
  Basis Set: (AUG-CC-PVTZ AUX)
    Blend: AUG-CC-PVTZ-JKFIT

    Orbital Energies [Eh]
    ---------------------

    Doubly Occupied:

       1A   -104.841087     2A    -20.553695     3A    -11.346436
       4A    -11.320094     5A    -11.267317     6A    -11.265428
       7A    -11.263306     8A    -11.260216     9A    -11.259327
      10A    -11.242963    11A    -10.564862    12A     -8.031758
      13A     -8.029801    14A     -8.029746    15A     -1.384504
      16A     -1.201946    17A     -1.126734    18A     -1.071150
      19A     -1.010283    20A     -1.000113    21A     -0.873015
      22A     -0.839953    23A     -0.774549    24A     -0.702734
      25A     -0.670606    26A     -0.661451    27A     -0.635902
      28A     -0.623042    29A     -0.603500    30A     -0.591341
      31A     -0.564087    32A     -0.551785    33A     -0.533385
      34A     -0.525447    35A     -0.498802    36A     -0.473196
      37A     -0.458011    38A     -0.419386    39A     -0.368044
      40A     -0.340711

  @DF-RHF Final Energy:  -841.52396606635125

   => Energetics <=

    Nuclear Repulsion Energy =            564.4189612514045393
    One-Electron Energy =               -2274.3264364089823175
    Two-Electron Energy =                 868.3835090912264150
    Total Energy =                       -841.5239660663512495
  Basis Set: (AUG-CC-PVTZ AUX)
    Blend: AUG-CC-PVTZ-RI
    Molecular point group: c1

    Geometry (in Angstrom), charge = 0, multiplicity = 1:

       Center              X                  Y                   Z               Mass
    ------------   -----------------  -----------------  -----------------  -----------------
         CL           0.198228211909     2.168865706141     0.200202747270    34.968852682000
         O            2.255863211909     0.204765706141    -0.864235252730    15.994914619570
         C            0.154760211909    -0.568673293859    -0.052989252730    12.000000000000
         C           -0.582427788091     0.623432706141     0.043768747270    12.000000000000
         C           -0.526377488091    -1.736947393859    -0.117309852730    12.000000000000
         C            1.653798211909    -0.589308293859    -0.146231252730    12.000000000000
         C           -1.977921788091     0.598141706141     0.081474747270    12.000000000000
         C           -1.944407788091    -1.810334293859    -0.106555252730    12.000000000000
         C           -2.658257788091    -0.615476293859    -0.007089252730    12.000000000000
         C            2.383591211909    -1.633573293859     0.670525747270    12.000000000000
         H            0.000224211909    -2.713065293859    -0.200453252730     1.007825032230
         H           -2.521835788091     1.534001706141     0.173126747270     1.007825032230
         H           -2.468225788091    -2.760099293859    -0.174668252730     1.007825032230
         H           -3.745108788091    -0.623374293859     0.012184747270     1.007825032230
         H            2.196953211909    -2.638672293859     0.279026747270     1.007825032230
         H            2.045175211909    -1.615359293859     1.710547747270     1.007825032230
         H            3.453712211909    -1.428358293859     0.616702747270     1.007825032230

  Basis Set: AUG-CC-PVTZ
    Blend: AUG-CC-PVTZ
  Basis Set: (AUG-CC-PVTZ AUX)
    Blend: AUG-CC-PVTZ-JKFIT
	 Reference Energy          =    -841.5239660663512495 [Eh]
	 Singles Energy            =      -0.0000000000000000 [Eh]
	 Same-Spin Energy          =      -0.4741807947244177 [Eh]
	 Opposite-Spin Energy      =      -1.4492059766874279 [Eh]
	 Correlation Energy        =      -1.9233867714118456 [Eh]
	 Total Energy              =    -843.4473528377631055 [Eh]

	 ================> DF-SCS-MP2 Energies <==================
	-----------------------------------------------------------
	 SCS Same-Spin Scale       =       0.3333333333333333 [-]
	 SCS Opposite-Spin Scale   =       1.2000000000000000 [-]
	 SCS Same-Spin Energy      =      -0.1580602649081392 [Eh]
	 SCS Opposite-Spin Energy  =      -1.7390471720249134 [Eh]
	 SCS Correlation Energy    =      -1.8971074369330527 [Eh]
	 SCS Total Energy          =    -843.4210735032843331 [Eh]
	-----------------------------------------------------------

  Dipole Moment: [D]
     X:    -2.1897      Y:    -2.9919      Z:     1.4262     Total:     3.9724

*** Psi4 exiting successfully. Buy a developer a beer!
