                               Psi4 1.4a3.dev225

  ==> Input File <==

--------------------------------------------------------------------------
#psi4
#
memory 32 gb

molecule  {
0 1
 Cl        0.2076870     2.2487580     0.1866360
  O        2.2653220     0.2846580    -0.8778020
  C        0.1642190    -0.4887810    -0.0665560
  C       -0.5729690     0.7033250     0.0302020
  C       -0.5420740    -1.7002010    -0.1332520
  C        1.6632570    -0.5094160    -0.1597980
  C       -1.9684630     0.6780340     0.0679080
  C       -1.9349490    -1.7304420    -0.1201220
  C       -2.6487990    -0.5355840    -0.0206560
  C        2.2966016    -1.4156725     0.5490176
  H        0.0096830    -2.6331730    -0.2140200
  H       -2.5123770     1.6138940     0.1595600
  H       -2.4587670    -2.6802070    -0.1882350
  H       -3.7356500    -0.5434820    -0.0013820
  H        2.2064120    -2.5587800     0.2654600
  H        2.0546340    -1.5354670     1.6969810
  H        3.4631710    -1.3484660     0.6031360
units angstrom
no_reorient  #important for SAPT in psi4, default
symmetry c1  #important for SAPT in psi4, default
}

set PROPERTIES_ORIGIN ["COM"]
properties('MP2/aug-cc-pvtz', properties = ['dipole'])
--------------------------------------------------------------------------

    Molecular point group: c1
  Charge       = 0
  Multiplicity = 1
  Basis Set: AUG-CC-PVTZ
    Blend: AUG-CC-PVTZ
  Basis Set: (AUG-CC-PVTZ AUX)
    Blend: AUG-CC-PVTZ-JKFIT

    Orbital Energies [Eh]
    ---------------------

    Doubly Occupied:

       1A   -104.840101     2A    -20.548172     3A    -11.332744
       4A    -11.318911     5A    -11.268706     6A    -11.265750
       7A    -11.262576     8A    -11.258932     9A    -11.256872
      10A    -11.254388    11A    -10.563868    12A     -8.030764
      13A     -8.028807    14A     -8.028751    15A     -1.387447
      16A     -1.198635    17A     -1.126421    18A     -1.085694
      19A     -1.026089    20A     -1.004020    21A     -0.873090
      22A     -0.835804    23A     -0.773824    24A     -0.717040
      25A     -0.673381    26A     -0.668197    27A     -0.641103
      28A     -0.630591    29A     -0.602234    30A     -0.592462
      31A     -0.550232    32A     -0.546510    33A     -0.522459
      34A     -0.509676    35A     -0.479146    36A     -0.471404
      37A     -0.456998    38A     -0.427834    39A     -0.360299
      40A     -0.343216

  @DF-RHF Final Energy:  -841.47685726120176

   => Energetics <=

    Nuclear Repulsion Energy =            567.6674844436555532
    One-Electron Energy =               -2280.7623833381057921
    Two-Electron Energy =                 871.6180416332483674
    Total Energy =                       -841.4768572612017579
  Basis Set: (AUG-CC-PVTZ AUX)
    Blend: AUG-CC-PVTZ-RI
    Molecular point group: c1

    Geometry (in Angstrom), charge = 0, multiplicity = 1:

       Center              X                  Y                   Z               Mass
    ------------   -----------------  -----------------  -----------------  -----------------
         CL           0.207702684112     2.161474705153     0.208797826657    34.968852682000
         O            2.265337684112     0.197374705153    -0.855640173343    15.994914619570
         C            0.164234684112    -0.576064294847    -0.044394173343    12.000000000000
         C           -0.572953315888     0.616041705153     0.052363826657    12.000000000000
         C           -0.542058315888    -1.787484294847    -0.111090173343    12.000000000000
         C            1.663272684112    -0.596699294847    -0.137636173343    12.000000000000
         C           -1.968447315888     0.590750705153     0.090069826657    12.000000000000
         C           -1.934933315888    -1.817725294847    -0.097960173343    12.000000000000
         C           -2.648783315888    -0.622867294847     0.001505826657    12.000000000000
         C            2.296617284112    -1.502955794847     0.571179426657    12.000000000000
         H            0.009698684112    -2.720456294847    -0.191858173343     1.007825032230
         H           -2.512361315888     1.526610705153     0.181721826657     1.007825032230
         H           -2.458751315888    -2.767490294847    -0.166073173343     1.007825032230
         H           -3.735634315888    -0.630765294847     0.020779826657     1.007825032230
         H            2.206427684112    -2.646063294847     0.287621826657     1.007825032230
         H            2.054649684112    -1.622750294847     1.719142826657     1.007825032230
         H            3.463186684112    -1.435749294847     0.625297826657     1.007825032230

  Basis Set: AUG-CC-PVTZ
    Blend: AUG-CC-PVTZ
  Basis Set: (AUG-CC-PVTZ AUX)
    Blend: AUG-CC-PVTZ-JKFIT
	 Reference Energy          =    -841.4768572612017579 [Eh]
	 Singles Energy            =      -0.0000000000000000 [Eh]
	 Same-Spin Energy          =      -0.4775644573068395 [Eh]
	 Opposite-Spin Energy      =      -1.4533058616682031 [Eh]
	 Correlation Energy        =      -1.9308703189750425 [Eh]
	 Total Energy              =    -843.4077275801768110 [Eh]

	 ================> DF-SCS-MP2 Energies <==================
	-----------------------------------------------------------
	 SCS Same-Spin Scale       =       0.3333333333333333 [-]
	 SCS Opposite-Spin Scale   =       1.2000000000000000 [-]
	 SCS Same-Spin Energy      =      -0.1591881524356132 [Eh]
	 SCS Opposite-Spin Energy  =      -1.7439670340018436 [Eh]
	 SCS Correlation Energy    =      -1.9031551864374567 [Eh]
	 SCS Total Energy          =    -843.3800124476391602 [Eh]
	-----------------------------------------------------------

  Dipole Moment: [D]
     X:    -1.9756      Y:    -3.2940      Z:     1.6376     Total:     4.1755

*** Psi4 exiting successfully. Buy a developer a beer!
