                               Psi4 1.4a3.dev225

  ==> Input File <==

--------------------------------------------------------------------------
#psi4
#
memory 32 gb

molecule  {
0 1
 Cl        0.2076870     2.2487580     0.1866360
  O        2.2653220     0.2846580    -0.8778020
  C        0.1642190    -0.4887810    -0.0665560
  C       -0.5729690     0.7033250     0.0302020
  C       -0.5420740    -1.7002010    -0.1332520
  C        1.6632570    -0.5094160    -0.1597980
  C       -1.9684630     0.6780340     0.0679080
  C       -1.9349490    -1.7304420    -0.1201220
  C       -2.6487990    -0.5355840    -0.0206560
  C        2.3930500    -1.5536810     0.6569590
  H        0.0096830    -2.6331730    -0.2140200
  H       -2.5023631     1.5966640     0.1578726
  H       -2.4587670    -2.6802070    -0.1882350
  H       -3.7356500    -0.5434820    -0.0013820
  H        2.2064120    -2.5587800     0.2654600
  H        2.0546340    -1.5354670     1.6969810
  H        3.4631710    -1.3484660     0.6031360
units angstrom
no_reorient  #important for SAPT in psi4, default
symmetry c1  #important for SAPT in psi4, default
}

set PROPERTIES_ORIGIN ["COM"]
properties('MP2/aug-cc-pvtz', properties = ['dipole'])
--------------------------------------------------------------------------

    Molecular point group: c1
  Charge       = 0
  Multiplicity = 1
  Basis Set: AUG-CC-PVTZ
    Blend: AUG-CC-PVTZ
  Basis Set: (AUG-CC-PVTZ AUX)
    Blend: AUG-CC-PVTZ-JKFIT

    Orbital Energies [Eh]
    ---------------------

    Doubly Occupied:

       1A   -104.841266     2A    -20.553289     3A    -11.346225
       4A    -11.320277     5A    -11.270434     6A    -11.267367
       7A    -11.263779     8A    -11.257970     9A    -11.257832
      10A    -11.243043    11A    -10.565042    12A     -8.031939
      13A     -8.029980    14A     -8.029924    15A     -1.384071
      16A     -1.199544    17A     -1.126734    18A     -1.066699
      19A     -1.013629    20A     -0.999769    21A     -0.876541
      22A     -0.838788    23A     -0.772533    24A     -0.704652
      25A     -0.669076    26A     -0.664111    27A     -0.636177
      28A     -0.621920    29A     -0.604083    30A     -0.594021
      31A     -0.564293    32A     -0.552339    33A     -0.536626
      34A     -0.524814    35A     -0.497797    36A     -0.473600
      37A     -0.457989    38A     -0.419803    39A     -0.361819
      40A     -0.344330

  @DF-RHF Final Energy:  -841.52704982193461

   => Energetics <=

    Nuclear Repulsion Energy =            563.7251688054507213
    One-Electron Energy =               -2272.9361873925995496
    Two-Electron Energy =                 867.6839687652142175
    Total Energy =                       -841.5270498219346109
  Basis Set: (AUG-CC-PVTZ AUX)
    Blend: AUG-CC-PVTZ-RI
    Molecular point group: c1

    Geometry (in Angstrom), charge = 0, multiplicity = 1:

       Center              X                  Y                   Z               Mass
    ------------   -----------------  -----------------  -----------------  -----------------
         CL           0.200122602909     2.172340064595     0.200398862644    34.968852682000
         O            2.257757602909     0.208240064595    -0.864039137356    15.994914619570
         C            0.156654602909    -0.565198935405    -0.052793137356    12.000000000000
         C           -0.580533397091     0.626907064595     0.043964862644    12.000000000000
         C           -0.549638397091    -1.776618935405    -0.119489137356    12.000000000000
         C            1.655692602909    -0.585833935405    -0.146035137356    12.000000000000
         C           -1.976027397091     0.601616064595     0.081670862644    12.000000000000
         C           -1.942513397091    -1.806859935405    -0.106359137356    12.000000000000
         C           -2.656363397091    -0.612001935405    -0.006893137356    12.000000000000
         C            2.385485602909    -1.630098935405     0.670721862644    12.000000000000
         H            0.002118602909    -2.709590935405    -0.200257137356     1.007825032230
         H           -2.509927497091     1.520246064595     0.171635462644     1.007825032230
         H           -2.466331397091    -2.756624935405    -0.174472137356     1.007825032230
         H           -3.743214397091    -0.619899935405     0.012380862644     1.007825032230
         H            2.198847602909    -2.635197935405     0.279222862644     1.007825032230
         H            2.047069602909    -1.611884935405     1.710743862644     1.007825032230
         H            3.455606602909    -1.424883935405     0.616898862644     1.007825032230

  Basis Set: AUG-CC-PVTZ
    Blend: AUG-CC-PVTZ
  Basis Set: (AUG-CC-PVTZ AUX)
    Blend: AUG-CC-PVTZ-JKFIT
	 Reference Energy          =    -841.5270498219346109 [Eh]
	 Singles Energy            =      -0.0000000000000000 [Eh]
	 Same-Spin Energy          =      -0.4741764915559145 [Eh]
	 Opposite-Spin Energy      =      -1.4489889613195355 [Eh]
	 Correlation Energy        =      -1.9231654528754500 [Eh]
	 Total Energy              =    -843.4502152748100343 [Eh]

	 ================> DF-SCS-MP2 Energies <==================
	-----------------------------------------------------------
	 SCS Same-Spin Scale       =       0.3333333333333333 [-]
	 SCS Opposite-Spin Scale   =       1.2000000000000000 [-]
	 SCS Same-Spin Energy      =      -0.1580588305186381 [Eh]
	 SCS Opposite-Spin Energy  =      -1.7387867535834425 [Eh]
	 SCS Correlation Energy    =      -1.8968455841020806 [Eh]
	 SCS Total Energy          =    -843.4238954060366495 [Eh]
	-----------------------------------------------------------

  Dipole Moment: [D]
     X:    -2.2054      Y:    -2.9903      Z:     1.4275     Total:     3.9804

*** Psi4 exiting successfully. Buy a developer a beer!
