                               Psi4 1.4a3.dev225

  ==> Input File <==

--------------------------------------------------------------------------
#psi4
#
memory 32 gb

molecule  {
0 1
 Cl        0.2076870     2.2487580     0.1866360
  O        2.2653220     0.2846580    -0.8778020
  C        0.1642190    -0.4887810    -0.0665560
  C       -0.5729690     0.7033250     0.0302020
  C       -0.5420740    -1.7002010    -0.1332520
  C        1.5728613    -0.5572079    -0.1333012
  C       -1.9684630     0.6780340     0.0679080
  C       -1.9349490    -1.7304420    -0.1201220
  C       -2.6487990    -0.5355840    -0.0206560
  C        2.3930500    -1.5536810     0.6569590
  H        0.0096830    -2.6331730    -0.2140200
  H       -2.5123770     1.6138940     0.1595600
  H       -2.4587670    -2.6802070    -0.1882350
  H       -3.7356500    -0.5434820    -0.0013820
  H        2.2064120    -2.5587800     0.2654600
  H        2.0546340    -1.5354670     1.6969810
  H        3.4631710    -1.3484660     0.6031360
units angstrom
no_reorient  #important for SAPT in psi4, default
symmetry c1  #important for SAPT in psi4, default
}

set PROPERTIES_ORIGIN ["COM"]
properties('MP2/aug-cc-pvtz', properties = ['dipole'])
--------------------------------------------------------------------------

    Molecular point group: c1
  Charge       = 0
  Multiplicity = 1
  Basis Set: AUG-CC-PVTZ
    Blend: AUG-CC-PVTZ
  Basis Set: (AUG-CC-PVTZ AUX)
    Blend: AUG-CC-PVTZ-JKFIT

    Orbital Energies [Eh]
    ---------------------

    Doubly Occupied:

       1A   -104.843155     2A    -20.543322     3A    -11.348182
       4A    -11.327577     5A    -11.273994     6A    -11.270814
       7A    -11.270306     8A    -11.264211     9A    -11.261876
      10A    -11.245456    11A    -10.566815    12A     -8.033704
      13A     -8.031729    14A     -8.031656    15A     -1.326317
      16A     -1.204875    17A     -1.130812    18A     -1.080353
      19A     -1.016601    20A     -1.001541    21A     -0.891931
      22A     -0.846061    23A     -0.778604    24A     -0.703801
      25A     -0.674286    26A     -0.659222    27A     -0.633882
      28A     -0.612639    29A     -0.604129    30A     -0.587058
      31A     -0.563148    32A     -0.551162    33A     -0.539345
      34A     -0.524183    35A     -0.479962    36A     -0.470324
      37A     -0.452380    38A     -0.420324    39A     -0.364770
      40A     -0.347882

  @DF-RHF Final Energy:  -841.50079990283371

   => Energetics <=

    Nuclear Repulsion Energy =            563.8942173654980934
    One-Electron Energy =               -2273.2332618825930695
    Two-Electron Energy =                 867.8382446142611570
    Total Energy =                       -841.5007999028337053
  Basis Set: (AUG-CC-PVTZ AUX)
    Blend: AUG-CC-PVTZ-RI
    Molecular point group: c1

    Geometry (in Angstrom), charge = 0, multiplicity = 1:

       Center              X                  Y                   Z               Mass
    ------------   -----------------  -----------------  -----------------  -----------------
         CL           0.207231101933     2.175950915377     0.198323383947    34.968852682000
         O            2.264866101933     0.211850915377    -0.866114616053    15.994914619570
         C            0.163763101933    -0.561588084623    -0.054868616053    12.000000000000
         C           -0.573424898067     0.630517915377     0.041889383947    12.000000000000
         C           -0.542529898067    -1.773008084623    -0.121564616053    12.000000000000
         C            1.572405401933    -0.630014984623    -0.121613816053    12.000000000000
         C           -1.968918898067     0.605226915377     0.079595383947    12.000000000000
         C           -1.935404898067    -1.803249084623    -0.108434616053    12.000000000000
         C           -2.649254898067    -0.608391084623    -0.008968616053    12.000000000000
         C            2.392594101933    -1.626488084623     0.668646383947    12.000000000000
         H            0.009227101933    -2.705980084623    -0.202332616053     1.007825032230
         H           -2.512832898067     1.541086915377     0.171247383947     1.007825032230
         H           -2.459222898067    -2.753014084623    -0.176547616053     1.007825032230
         H           -3.736105898067    -0.616289084623     0.010305383947     1.007825032230
         H            2.205956101933    -2.631587084623     0.277147383947     1.007825032230
         H            2.054178101933    -1.608274084623     1.708668383947     1.007825032230
         H            3.462715101933    -1.421273084623     0.614823383947     1.007825032230

  Basis Set: AUG-CC-PVTZ
    Blend: AUG-CC-PVTZ
  Basis Set: (AUG-CC-PVTZ AUX)
    Blend: AUG-CC-PVTZ-JKFIT
	 Reference Energy          =    -841.5007999028337053 [Eh]
	 Singles Energy            =      -0.0000000000000000 [Eh]
	 Same-Spin Energy          =      -0.4778535933417370 [Eh]
	 Opposite-Spin Energy      =      -1.4565098211623271 [Eh]
	 Correlation Energy        =      -1.9343634145040642 [Eh]
	 Total Energy              =    -843.4351633173378104 [Eh]

	 ================> DF-SCS-MP2 Energies <==================
	-----------------------------------------------------------
	 SCS Same-Spin Scale       =       0.3333333333333333 [-]
	 SCS Opposite-Spin Scale   =       1.2000000000000000 [-]
	 SCS Same-Spin Energy      =      -0.1592845311139123 [Eh]
	 SCS Opposite-Spin Energy  =      -1.7478117853947925 [Eh]
	 SCS Correlation Energy    =      -1.9070963165087049 [Eh]
	 SCS Total Energy          =    -843.4078962193424331 [Eh]
	-----------------------------------------------------------

  Dipole Moment: [D]
     X:    -2.7071      Y:    -3.0497      Z:     1.5531     Total:     4.3636

*** Psi4 exiting successfully. Buy a developer a beer!
