                               Psi4 1.4a3.dev225

  ==> Input File <==

--------------------------------------------------------------------------
#psi4
#
memory 32 gb

molecule  {
0 1
 Cl        0.2076870     2.2487580     0.1866360
  O        2.2653220     0.2846580    -0.8778020
  C        0.1642190    -0.4887810    -0.0665560
  C       -0.5729690     0.7033250     0.0302020
  C       -0.5420740    -1.7002010    -0.1332520
  C        1.6632570    -0.5094160    -0.1597980
  C       -1.9684630     0.6780340     0.0679080
  C       -1.9349490    -1.7304420    -0.1201220
  C       -2.6487990    -0.5355840    -0.0206560
  C        2.3930500    -1.5536810     0.6569590
  H        0.0096830    -2.6331730    -0.2140200
  H       -2.5123770     1.6138940     0.1595600
  H       -2.4587670    -2.6802070    -0.1882350
  H       -3.7356500    -0.5434820    -0.0013820
  H        2.3193604    -2.5663075     0.2477078
  H        2.0546340    -1.5354670     1.6969810
  H        3.4631710    -1.3484660     0.6031360
units angstrom
no_reorient  #important for SAPT in psi4, default
symmetry c1  #important for SAPT in psi4, default
}

set PROPERTIES_ORIGIN ["COM"]
properties('MP2/aug-cc-pvtz', properties = ['dipole'])
--------------------------------------------------------------------------

    Molecular point group: c1
  Charge       = 0
  Multiplicity = 1
  Basis Set: AUG-CC-PVTZ
    Blend: AUG-CC-PVTZ
  Basis Set: (AUG-CC-PVTZ AUX)
    Blend: AUG-CC-PVTZ-JKFIT

    Orbital Energies [Eh]
    ---------------------

    Doubly Occupied:

       1A   -104.841178     2A    -20.553889     3A    -11.346963
       4A    -11.320288     5A    -11.270298     6A    -11.267107
       7A    -11.263816     8A    -11.259875     9A    -11.257754
      10A    -11.242480    11A    -10.564956    12A     -8.031852
      13A     -8.029893    14A     -8.029837    15A     -1.384472
      16A     -1.199312    17A     -1.126596    18A     -1.065881
      19A     -1.012886    20A     -0.999519    21A     -0.876447
      22A     -0.837908    23A     -0.772647    24A     -0.704053
      25A     -0.668820    26A     -0.663315    27A     -0.632879
      28A     -0.626293    29A     -0.603828    30A     -0.593837
      31A     -0.557515    32A     -0.552738    33A     -0.535410
      34A     -0.524157    35A     -0.498297    36A     -0.473473
      37A     -0.458258    38A     -0.420439    39A     -0.361635
      40A     -0.344245

  @DF-RHF Final Energy:  -841.52562705295054

   => Energetics <=

    Nuclear Repulsion Energy =            563.4447843302484671
    One-Electron Energy =               -2272.3907379261072492
    Two-Electron Energy =                 867.4203265429082421
    Total Energy =                       -841.5256270529505400
  Basis Set: (AUG-CC-PVTZ AUX)
    Blend: AUG-CC-PVTZ-RI
    Molecular point group: c1

    Geometry (in Angstrom), charge = 0, multiplicity = 1:

       Center              X                  Y                   Z               Mass
    ------------   -----------------  -----------------  -----------------  -----------------
         CL           0.199449047868     2.172276575991     0.200503983153    34.968852682000
         O            2.257084047868     0.208176575991    -0.863934016847    15.994914619570
         C            0.155981047868    -0.565262424009    -0.052688016847    12.000000000000
         C           -0.581206952132     0.626843575991     0.044069983153    12.000000000000
         C           -0.550311952132    -1.776682424009    -0.119384016847    12.000000000000
         C            1.655019047868    -0.585897424009    -0.145930016847    12.000000000000
         C           -1.976700952132     0.601552575991     0.081775983153    12.000000000000
         C           -1.943186952132    -1.806923424009    -0.106254016847    12.000000000000
         C           -2.657036952132    -0.612065424009    -0.006788016847    12.000000000000
         C            2.384812047868    -1.630162424009     0.670826983153    12.000000000000
         H            0.001445047868    -2.709654424009    -0.200152016847     1.007825032230
         H           -2.520614952132     1.537412575991     0.173427983153     1.007825032230
         H           -2.467004952132    -2.756688424009    -0.174367016847     1.007825032230
         H           -3.743887952132    -0.619963424009     0.012485983153     1.007825032230
         H            2.311122447868    -2.642788924009     0.261575783153     1.007825032230
         H            2.046396047868    -1.611948424009     1.710848983153     1.007825032230
         H            3.454933047868    -1.424947424009     0.617003983153     1.007825032230

  Basis Set: AUG-CC-PVTZ
    Blend: AUG-CC-PVTZ
  Basis Set: (AUG-CC-PVTZ AUX)
    Blend: AUG-CC-PVTZ-JKFIT
	 Reference Energy          =    -841.5256270529505400 [Eh]
	 Singles Energy            =      -0.0000000000000000 [Eh]
	 Same-Spin Energy          =      -0.4742266953349490 [Eh]
	 Opposite-Spin Energy      =      -1.4491773047997762 [Eh]
	 Correlation Energy        =      -1.9234040001347252 [Eh]
	 Total Energy              =    -843.4490310530852639 [Eh]

	 ================> DF-SCS-MP2 Energies <==================
	-----------------------------------------------------------
	 SCS Same-Spin Scale       =       0.3333333333333333 [-]
	 SCS Opposite-Spin Scale   =       1.2000000000000000 [-]
	 SCS Same-Spin Energy      =      -0.1580755651116497 [Eh]
	 SCS Opposite-Spin Energy  =      -1.7390127657597314 [Eh]
	 SCS Correlation Energy    =      -1.8970883308713811 [Eh]
	 SCS Total Energy          =    -843.4227153838219238 [Eh]
	-----------------------------------------------------------

  Dipole Moment: [D]
     X:    -2.1571      Y:    -3.0053      Z:     1.4013     Total:     3.9558

*** Psi4 exiting successfully. Buy a developer a beer!
