                               Psi4 1.4a3.dev225

  ==> Input File <==

--------------------------------------------------------------------------
#psi4
#
memory 32 gb

molecule  {
0 1
 Cl        0.2076870     2.2487580     0.1866360
  O        2.2653220     0.2846580    -0.8778020
  C        0.1642190    -0.4887810    -0.0665560
  C       -0.5729690     0.7033250     0.0302020
  C       -0.5420740    -1.7002010    -0.1332520
  C        1.6632570    -0.5094160    -0.1597980
  C       -1.9684630     0.6780340     0.0679080
  C       -1.8849630    -1.7293567    -0.1205932
  C       -2.6487990    -0.5355840    -0.0206560
  C        2.3930500    -1.5536810     0.6569590
  H        0.0096830    -2.6331730    -0.2140200
  H       -2.5123770     1.6138940     0.1595600
  H       -2.4587670    -2.6802070    -0.1882350
  H       -3.7356500    -0.5434820    -0.0013820
  H        2.2064120    -2.5587800     0.2654600
  H        2.0546340    -1.5354670     1.6969810
  H        3.4631710    -1.3484660     0.6031360
units angstrom
no_reorient  #important for SAPT in psi4, default
symmetry c1  #important for SAPT in psi4, default
}

set PROPERTIES_ORIGIN ["COM"]
properties('MP2/aug-cc-pvtz', properties = ['dipole'])
--------------------------------------------------------------------------

    Molecular point group: c1
  Charge       = 0
  Multiplicity = 1
  Basis Set: AUG-CC-PVTZ
    Blend: AUG-CC-PVTZ
  Basis Set: (AUG-CC-PVTZ AUX)
    Blend: AUG-CC-PVTZ-JKFIT

    Orbital Energies [Eh]
    ---------------------

    Doubly Occupied:

       1A   -104.841334     2A    -20.553093     3A    -11.345961
       4A    -11.320453     5A    -11.269935     6A    -11.266638
       7A    -11.261029     8A    -11.260233     9A    -11.256818
      10A    -11.243016    11A    -10.565107    12A     -8.032003
      13A     -8.030043    14A     -8.029988    15A     -1.383855
      16A     -1.201044    17A     -1.129094    18A     -1.065048
      19A     -1.017931    20A     -0.998159    21A     -0.878078
      22A     -0.835211    23A     -0.770722    24A     -0.704361
      25A     -0.671026    26A     -0.664072    27A     -0.632071
      28A     -0.621626    29A     -0.601867    30A     -0.594862
      31A     -0.565278    32A     -0.554253    33A     -0.539337
      34A     -0.517858    35A     -0.495821    36A     -0.475323
      37A     -0.457899    38A     -0.420029    39A     -0.363520
      40A     -0.344644

  @DF-RHF Final Energy:  -841.52377347664458

   => Energetics <=

    Nuclear Repulsion Energy =            564.2695377040296307
    One-Electron Energy =               -2274.0293388671639150
    Two-Electron Energy =                 868.2360276864898196
    Total Energy =                       -841.5237734766445783
  Basis Set: (AUG-CC-PVTZ AUX)
    Blend: AUG-CC-PVTZ-RI
    Molecular point group: c1

    Geometry (in Angstrom), charge = 0, multiplicity = 1:

       Center              X                  Y                   Z               Mass
    ------------   -----------------  -----------------  -----------------  -----------------
         CL           0.196293585109     2.172142760915     0.200424533553    34.968852682000
         O            2.253928585109     0.208042760915    -0.864013466447    15.994914619570
         C            0.152825585109    -0.565396239085    -0.052767466447    12.000000000000
         C           -0.584362414891     0.626709760915     0.043990533553    12.000000000000
         C           -0.553467414891    -1.776816239085    -0.119463466447    12.000000000000
         C            1.651863585109    -0.586031239085    -0.146009466447    12.000000000000
         C           -1.979856414891     0.601418760915     0.081696533553    12.000000000000
         C           -1.896356414891    -1.805971939085    -0.106804666447    12.000000000000
         C           -2.660192414891    -0.612199239085    -0.006867466447    12.000000000000
         C            2.381656585109    -1.630296239085     0.670747533553    12.000000000000
         H           -0.001710414891    -2.709788239085    -0.200231466447     1.007825032230
         H           -2.523770414891     1.537278760915     0.173348533553     1.007825032230
         H           -2.470160414891    -2.756822239085    -0.174446466447     1.007825032230
         H           -3.747043414891    -0.620097239085     0.012406533553     1.007825032230
         H            2.195018585109    -2.635395239085     0.279248533553     1.007825032230
         H            2.043240585109    -1.612082239085     1.710769533553     1.007825032230
         H            3.451777585109    -1.425081239085     0.616924533553     1.007825032230

  Basis Set: AUG-CC-PVTZ
    Blend: AUG-CC-PVTZ
  Basis Set: (AUG-CC-PVTZ AUX)
    Blend: AUG-CC-PVTZ-JKFIT
	 Reference Energy          =    -841.5237734766445783 [Eh]
	 Singles Energy            =      -0.0000000000000000 [Eh]
	 Same-Spin Energy          =      -0.4742320767401995 [Eh]
	 Opposite-Spin Energy      =      -1.4491488559916104 [Eh]
	 Correlation Energy        =      -1.9233809327318099 [Eh]
	 Total Energy              =    -843.4471544093763669 [Eh]

	 ================> DF-SCS-MP2 Energies <==================
	-----------------------------------------------------------
	 SCS Same-Spin Scale       =       0.3333333333333333 [-]
	 SCS Opposite-Spin Scale   =       1.2000000000000000 [-]
	 SCS Same-Spin Energy      =      -0.1580773589133998 [Eh]
	 SCS Opposite-Spin Energy  =      -1.7389786271899323 [Eh]
	 SCS Correlation Energy    =      -1.8970559861033323 [Eh]
	 SCS Total Energy          =    -843.4208294627478608 [Eh]
	-----------------------------------------------------------

  Dipole Moment: [D]
     X:    -2.2233      Y:    -2.9676      Z:     1.4302     Total:     3.9743

*** Psi4 exiting successfully. Buy a developer a beer!
