                               Psi4 1.4a3.dev225

  ==> Input File <==

--------------------------------------------------------------------------
#psi4
#
memory 32 gb

molecule  {
0 1
 Cl        0.2076870     2.2487580     0.1866360
  O        2.2653220     0.2846580    -0.8778020
  C        0.1642190    -0.4887810    -0.0665560
  C       -0.5505165     0.7477732     0.0347012
  C       -0.5420740    -1.7002010    -0.1332520
  C        1.6632570    -0.5094160    -0.1597980
  C       -1.9684630     0.6780340     0.0679080
  C       -1.9349490    -1.7304420    -0.1201220
  C       -2.6487990    -0.5355840    -0.0206560
  C        2.3930500    -1.5536810     0.6569590
  H        0.0096830    -2.6331730    -0.2140200
  H       -2.5123770     1.6138940     0.1595600
  H       -2.4587670    -2.6802070    -0.1882350
  H       -3.7356500    -0.5434820    -0.0013820
  H        2.2064120    -2.5587800     0.2654600
  H        2.0546340    -1.5354670     1.6969810
  H        3.4631710    -1.3484660     0.6031360
units angstrom
no_reorient  #important for SAPT in psi4, default
symmetry c1  #important for SAPT in psi4, default
}

set PROPERTIES_ORIGIN ["COM"]
properties('MP2/aug-cc-pvtz', properties = ['dipole'])
--------------------------------------------------------------------------

    Molecular point group: c1
  Charge       = 0
  Multiplicity = 1
  Basis Set: AUG-CC-PVTZ
    Blend: AUG-CC-PVTZ
  Basis Set: (AUG-CC-PVTZ AUX)
    Blend: AUG-CC-PVTZ-JKFIT

    Orbital Energies [Eh]
    ---------------------

    Doubly Occupied:

       1A   -104.846834     2A    -20.552115     3A    -11.344398
       4A    -11.322470     5A    -11.271300     6A    -11.266077
       7A    -11.262696     8A    -11.260676     9A    -11.256800
      10A    -11.241895    11A    -10.571394    12A     -8.038419
      13A     -8.036291    14A     -8.036223    15A     -1.383148
      16A     -1.200924    17A     -1.134970    18A     -1.063241
      19A     -1.010830    20A     -0.996561    21A     -0.873188
      22A     -0.835105    23A     -0.768305    24A     -0.703249
      25A     -0.667667    26A     -0.663627    27A     -0.631471
      28A     -0.620990    29A     -0.605881    30A     -0.594735
      31A     -0.563501    32A     -0.551988    33A     -0.535696
      34A     -0.528834    35A     -0.497201    36A     -0.477015
      37A     -0.461607    38A     -0.417712    39A     -0.359894
      40A     -0.338027

  @DF-RHF Final Energy:  -841.52300342931687

   => Energetics <=

    Nuclear Repulsion Energy =            563.6364691507178577
    One-Electron Energy =               -2272.7330254608564246
    Two-Electron Energy =                 867.5735528808216941
    Total Energy =                       -841.5230034293168728
  Basis Set: (AUG-CC-PVTZ AUX)
    Blend: AUG-CC-PVTZ-RI
    Molecular point group: c1

    Geometry (in Angstrom), charge = 0, multiplicity = 1:

       Center              X                  Y                   Z               Mass
    ------------   -----------------  -----------------  -----------------  -----------------
         CL           0.198438794346     2.168764240436     0.200037276285    34.968852682000
         O            2.256073794346     0.204664240436    -0.864400723715    15.994914619570
         C            0.154970794346    -0.568774759564    -0.053154723715    12.000000000000
         C           -0.559764705654     0.667779440436     0.048102476285    12.000000000000
         C           -0.551322205654    -1.780194759564    -0.119850723715    12.000000000000
         C            1.654008794346    -0.589409759564    -0.146396723715    12.000000000000
         C           -1.977711205654     0.598040240436     0.081309276285    12.000000000000
         C           -1.944197205654    -1.810435759564    -0.106720723715    12.000000000000
         C           -2.658047205654    -0.615577759564    -0.007254723715    12.000000000000
         C            2.383801794346    -1.633674759564     0.670360276285    12.000000000000
         H            0.000434794346    -2.713166759564    -0.200618723715     1.007825032230
         H           -2.521625205654     1.533900240436     0.172961276285     1.007825032230
         H           -2.468015205654    -2.760200759564    -0.174833723715     1.007825032230
         H           -3.744898205654    -0.623475759564     0.012019276285     1.007825032230
         H            2.197163794346    -2.638773759564     0.278861276285     1.007825032230
         H            2.045385794346    -1.615460759564     1.710382276285     1.007825032230
         H            3.453922794346    -1.428459759564     0.616537276285     1.007825032230

  Basis Set: AUG-CC-PVTZ
    Blend: AUG-CC-PVTZ
  Basis Set: (AUG-CC-PVTZ AUX)
    Blend: AUG-CC-PVTZ-JKFIT
	 Reference Energy          =    -841.5230034293168728 [Eh]
	 Singles Energy            =      -0.0000000000000000 [Eh]
	 Same-Spin Energy          =      -0.4748431631806930 [Eh]
	 Opposite-Spin Energy      =      -1.4498584963183130 [Eh]
	 Correlation Energy        =      -1.9247016594990061 [Eh]
	 Total Energy              =    -843.4477050888158374 [Eh]

	 ================> DF-SCS-MP2 Energies <==================
	-----------------------------------------------------------
	 SCS Same-Spin Scale       =       0.3333333333333333 [-]
	 SCS Opposite-Spin Scale   =       1.2000000000000000 [-]
	 SCS Same-Spin Energy      =      -0.1582810543935643 [Eh]
	 SCS Opposite-Spin Energy  =      -1.7398301955819755 [Eh]
	 SCS Correlation Energy    =      -1.8981112499755399 [Eh]
	 SCS Total Energy          =    -843.4211146792923728 [Eh]
	-----------------------------------------------------------

  Dipole Moment: [D]
     X:    -2.1261      Y:    -2.7578      Z:     1.4527     Total:     3.7730

*** Psi4 exiting successfully. Buy a developer a beer!
