                               Psi4 1.4a3.dev225

  ==> Input File <==

--------------------------------------------------------------------------
#psi4
#
memory 32 gb

molecule  {
0 1
 Cl        0.2076870     2.2487580     0.1866360
  O        2.2653220     0.2846580    -0.8778020
  C        0.1642190    -0.4887810    -0.0665560
  C       -0.5729690     0.7033250     0.0302020
  C       -0.5420740    -1.7002010    -0.1332520
  C        1.6632570    -0.5094160    -0.1597980
  C       -1.9684630     0.6780340     0.0679080
  C       -1.9349490    -1.7304420    -0.1201220
  C       -2.6487990    -0.5355840    -0.0206560
  C        2.3930500    -1.5536810     0.6569590
  H        0.0096830    -2.6331730    -0.2140200
  H       -2.5123770     1.6138940     0.1595600
  H       -2.4587670    -2.6802070    -0.1882350
  H       -3.7356500    -0.5434820    -0.0013820
  H        2.2357863    -2.5354078     0.1989090
  H        2.0546340    -1.5354670     1.6969810
  H        3.4631710    -1.3484660     0.6031360
units angstrom
no_reorient  #important for SAPT in psi4, default
symmetry c1  #important for SAPT in psi4, default
}

set PROPERTIES_ORIGIN ["COM"]
properties('MP2/aug-cc-pvtz', properties = ['dipole'])
--------------------------------------------------------------------------

    Molecular point group: c1
  Charge       = 0
  Multiplicity = 1
  Basis Set: AUG-CC-PVTZ
    Blend: AUG-CC-PVTZ
  Basis Set: (AUG-CC-PVTZ AUX)
    Blend: AUG-CC-PVTZ-JKFIT

    Orbital Energies [Eh]
    ---------------------

    Doubly Occupied:

       1A   -104.841190     2A    -20.552816     3A    -11.345691
       4A    -11.320377     5A    -11.270440     6A    -11.267306
       7A    -11.263884     8A    -11.260034     9A    -11.257927
      10A    -11.243077    11A    -10.564966    12A     -8.031862
      13A     -8.029903    14A     -8.029847    15A     -1.383736
      16A     -1.199413    17A     -1.126704    18A     -1.066445
      19A     -1.013240    20A     -0.999953    21A     -0.876157
      22A     -0.837854    23A     -0.771462    24A     -0.703348
      25A     -0.668921    26A     -0.662920    27A     -0.633320
      28A     -0.622599    29A     -0.606596    30A     -0.595496
      31A     -0.561242    32A     -0.552345    33A     -0.535873
      34A     -0.524558    35A     -0.498235    36A     -0.473533
      37A     -0.457600    38A     -0.419120    39A     -0.361804
      40A     -0.344338

  @DF-RHF Final Energy:  -841.52645194463321

   => Energetics <=

    Nuclear Repulsion Energy =            563.6452637358576112
    One-Electron Energy =               -2272.7911664908988314
    Two-Electron Energy =                 867.6194508104081251
    Total Energy =                       -841.5264519446332088
  Basis Set: (AUG-CC-PVTZ AUX)
    Blend: AUG-CC-PVTZ-RI
    Molecular point group: c1

    Geometry (in Angstrom), charge = 0, multiplicity = 1:

       Center              X                  Y                   Z               Mass
    ------------   -----------------  -----------------  -----------------  -----------------
         CL           0.199995917541     2.172074382861     0.200823299589    34.968852682000
         O            2.257630917541     0.207974382861    -0.863614700411    15.994914619570
         C            0.156527917541    -0.565464617139    -0.052368700411    12.000000000000
         C           -0.580660082459     0.626641382861     0.044389299589    12.000000000000
         C           -0.549765082459    -1.776884617139    -0.119064700411    12.000000000000
         C            1.655565917541    -0.586099617139    -0.145610700411    12.000000000000
         C           -1.976154082459     0.601350382861     0.082095299589    12.000000000000
         C           -1.942640082459    -1.807125617139    -0.105934700411    12.000000000000
         C           -2.656490082459    -0.612267617139    -0.006468700411    12.000000000000
         C            2.385358917541    -1.630364617139     0.671146299589    12.000000000000
         H            0.001991917541    -2.709856617139    -0.199832700411     1.007825032230
         H           -2.520068082459     1.537210382861     0.173747299589     1.007825032230
         H           -2.466458082459    -2.756890617139    -0.174047700411     1.007825032230
         H           -3.743341082459    -0.620165617139     0.012805299589     1.007825032230
         H            2.228095217541    -2.612091417139     0.213096299589     1.007825032230
         H            2.046942917541    -1.612150617139     1.711168299589     1.007825032230
         H            3.455479917541    -1.425149617139     0.617323299589     1.007825032230

  Basis Set: AUG-CC-PVTZ
    Blend: AUG-CC-PVTZ
  Basis Set: (AUG-CC-PVTZ AUX)
    Blend: AUG-CC-PVTZ-JKFIT
	 Reference Energy          =    -841.5264519446332088 [Eh]
	 Singles Energy            =      -0.0000000000000000 [Eh]
	 Same-Spin Energy          =      -0.4742313424007450 [Eh]
	 Opposite-Spin Energy      =      -1.4491631066900035 [Eh]
	 Correlation Energy        =      -1.9233944490907484 [Eh]
	 Total Energy              =    -843.4498463937239876 [Eh]

	 ================> DF-SCS-MP2 Energies <==================
	-----------------------------------------------------------
	 SCS Same-Spin Scale       =       0.3333333333333333 [-]
	 SCS Opposite-Spin Scale   =       1.2000000000000000 [-]
	 SCS Same-Spin Energy      =      -0.1580771141335817 [Eh]
	 SCS Opposite-Spin Energy  =      -1.7389957280280042 [Eh]
	 SCS Correlation Energy    =      -1.8970728421615859 [Eh]
	 SCS Total Energy          =    -843.4235247867948146 [Eh]
	-----------------------------------------------------------

  Dipole Moment: [D]
     X:    -2.1885      Y:    -2.9824      Z:     1.4073     Total:     3.9579

*** Psi4 exiting successfully. Buy a developer a beer!
