                               Psi4 1.4a3.dev225

  ==> Input File <==

--------------------------------------------------------------------------
#psi4
#
memory 32 gb

molecule  {
0 1
 Cl        0.2076870     2.2487580     0.1866360
  O        2.2653220     0.2846580    -0.8778020
  C        0.1642190    -0.4887810    -0.0665560
  C       -0.5729690     0.7033250     0.0302020
  C       -0.5420740    -1.7002010    -0.1332520
  C        1.6632570    -0.5094160    -0.1597980
  C       -1.9684630     0.6780340     0.0679080
  C       -1.9349490    -1.7304420    -0.1201220
  C       -2.6385676    -0.5527096    -0.0220816
  C        2.3930500    -1.5536810     0.6569590
  H        0.0096830    -2.6331730    -0.2140200
  H       -2.5123770     1.6138940     0.1595600
  H       -2.4587670    -2.6802070    -0.1882350
  H       -3.7356500    -0.5434820    -0.0013820
  H        2.2064120    -2.5587800     0.2654600
  H        2.0546340    -1.5354670     1.6969810
  H        3.4631710    -1.3484660     0.6031360
units angstrom
no_reorient  #important for SAPT in psi4, default
symmetry c1  #important for SAPT in psi4, default
}

set PROPERTIES_ORIGIN ["COM"]
properties('MP2/aug-cc-pvtz', properties = ['dipole'])
--------------------------------------------------------------------------

    Molecular point group: c1
  Charge       = 0
  Multiplicity = 1
  Basis Set: AUG-CC-PVTZ
    Blend: AUG-CC-PVTZ
  Basis Set: (AUG-CC-PVTZ AUX)
    Blend: AUG-CC-PVTZ-JKFIT

    Orbital Energies [Eh]
    ---------------------

    Doubly Occupied:

       1A   -104.840974     2A    -20.553277     3A    -11.346275
       4A    -11.320144     5A    -11.270534     6A    -11.267778
       7A    -11.263622     8A    -11.260913     9A    -11.255863
      10A    -11.243042    11A    -10.564765    12A     -8.031661
      13A     -8.029702    14A     -8.029647    15A     -1.384082
      16A     -1.199858    17A     -1.127919    18A     -1.066148
      19A     -1.012900    20A     -1.000703    21A     -0.876601
      22A     -0.837654    23A     -0.771749    24A     -0.704178
      25A     -0.669208    26A     -0.662997    27A     -0.634435
      28A     -0.621713    29A     -0.603810    30A     -0.593948
      31A     -0.563897    32A     -0.552529    33A     -0.536357
      34A     -0.523520    35A     -0.497967    36A     -0.474498
      37A     -0.457734    38A     -0.419698    39A     -0.360734
      40A     -0.345950

  @DF-RHF Final Energy:  -841.52649764130331

   => Energetics <=

    Nuclear Repulsion Energy =            563.7926088405747578
    One-Electron Energy =               -2273.0802475591017355
    Two-Electron Energy =                 867.7611410772236695
    Total Energy =                       -841.5264976413033082
  Basis Set: (AUG-CC-PVTZ AUX)
    Blend: AUG-CC-PVTZ-RI
    Molecular point group: c1

    Geometry (in Angstrom), charge = 0, multiplicity = 1:

       Center              X                  Y                   Z               Mass
    ------------   -----------------  -----------------  -----------------  -----------------
         CL           0.199390973204     2.173561621244     0.200498893431    34.968852682000
         O            2.257025973204     0.209461621244    -0.863939106569    15.994914619570
         C            0.155922973204    -0.563977378756    -0.052693106569    12.000000000000
         C           -0.581265026796     0.628128621244     0.044064893431    12.000000000000
         C           -0.550370026796    -1.775397378756    -0.119389106569    12.000000000000
         C            1.654960973204    -0.584612378756    -0.145935106569    12.000000000000
         C           -1.976759026796     0.602837621244     0.081770893431    12.000000000000
         C           -1.943245026796    -1.805638378756    -0.106259106569    12.000000000000
         C           -2.646863626796    -0.627905978756    -0.008218706569    12.000000000000
         C            2.384753973204    -1.628877378756     0.670821893431    12.000000000000
         H            0.001386973204    -2.708369378756    -0.200157106569     1.007825032230
         H           -2.520673026796     1.538697621244     0.173422893431     1.007825032230
         H           -2.467063026796    -2.755403378756    -0.174372106569     1.007825032230
         H           -3.743946026796    -0.618678378756     0.012480893431     1.007825032230
         H            2.198115973204    -2.633976378756     0.279322893431     1.007825032230
         H            2.046337973204    -1.610663378756     1.710843893431     1.007825032230
         H            3.454874973204    -1.423662378756     0.616998893431     1.007825032230

  Basis Set: AUG-CC-PVTZ
    Blend: AUG-CC-PVTZ
  Basis Set: (AUG-CC-PVTZ AUX)
    Blend: AUG-CC-PVTZ-JKFIT
	 Reference Energy          =    -841.5264976413033082 [Eh]
	 Singles Energy            =      -0.0000000000000000 [Eh]
	 Same-Spin Energy          =      -0.4742281405550586 [Eh]
	 Opposite-Spin Energy      =      -1.4490776848221010 [Eh]
	 Correlation Energy        =      -1.9233058253771596 [Eh]
	 Total Energy              =    -843.4498034666804642 [Eh]

	 ================> DF-SCS-MP2 Energies <==================
	-----------------------------------------------------------
	 SCS Same-Spin Scale       =       0.3333333333333333 [-]
	 SCS Opposite-Spin Scale   =       1.2000000000000000 [-]
	 SCS Same-Spin Energy      =      -0.1580760468516862 [Eh]
	 SCS Opposite-Spin Energy  =      -1.7388932217865212 [Eh]
	 SCS Correlation Energy    =      -1.8969692686382074 [Eh]
	 SCS Total Energy          =    -843.4234669099415669 [Eh]
	-----------------------------------------------------------

  Dipole Moment: [D]
     X:    -2.2007      Y:    -2.9963      Z:     1.4267     Total:     3.9820

*** Psi4 exiting successfully. Buy a developer a beer!
