                               Psi4 1.4a3.dev225

  ==> Input File <==

--------------------------------------------------------------------------
#psi4
#
memory 32 gb

molecule  {
0 1
 Cl        0.2076870     2.2487580     0.1866360
  O        2.2653220     0.2846580    -0.8778020
  C        0.1642190    -0.4887810    -0.0665560
  C       -0.5729690     0.7033250     0.0302020
  C       -0.5420740    -1.7002010    -0.1332520
  C        1.6632570    -0.5094160    -0.1597980
  C       -1.9684630     0.6780340     0.0679080
  C       -1.9349490    -1.7304420    -0.1201220
  C       -2.6487990    -0.5355840    -0.0206560
  C        2.4171621    -1.5881831     0.6839444
  H        0.0096830    -2.6331730    -0.2140200
  H       -2.5123770     1.6138940     0.1595600
  H       -2.4587670    -2.6802070    -0.1882350
  H       -3.7356500    -0.5434820    -0.0013820
  H        2.2064120    -2.5587800     0.2654600
  H        2.0546340    -1.5354670     1.6969810
  H        3.4631710    -1.3484660     0.6031360
units angstrom
no_reorient  #important for SAPT in psi4, default
symmetry c1  #important for SAPT in psi4, default
}

set PROPERTIES_ORIGIN ["COM"]
properties('MP2/aug-cc-pvtz', properties = ['dipole'])
--------------------------------------------------------------------------

    Molecular point group: c1
  Charge       = 0
  Multiplicity = 1
  Basis Set: AUG-CC-PVTZ
    Blend: AUG-CC-PVTZ
  Basis Set: (AUG-CC-PVTZ AUX)
    Blend: AUG-CC-PVTZ-JKFIT

    Orbital Energies [Eh]
    ---------------------

    Doubly Occupied:

       1A   -104.841392     2A    -20.554279     3A    -11.348252
       4A    -11.320631     5A    -11.270904     6A    -11.267673
       7A    -11.264136     8A    -11.260271     9A    -11.258191
      10A    -11.241654    11A    -10.565170    12A     -8.032067
      13A     -8.030107    14A     -8.030051    15A     -1.383575
      16A     -1.199599    17A     -1.126854    18A     -1.064343
      19A     -1.011826    20A     -0.997585    21A     -0.876826
      22A     -0.838280    23A     -0.771328    24A     -0.702480
      25A     -0.668650    26A     -0.662352    27A     -0.634270
      28A     -0.618242    29A     -0.604494    30A     -0.594353
      31A     -0.571592    32A     -0.552265    33A     -0.538031
      34A     -0.524917    35A     -0.500631    36A     -0.473832
      37A     -0.457359    38A     -0.415729    39A     -0.362042
      40A     -0.344554

  @DF-RHF Final Energy:  -841.52507352958639

   => Energetics <=

    Nuclear Repulsion Energy =            562.6914573631105441
    One-Electron Energy =               -2270.8714892679445256
    Two-Electron Energy =                 866.6549583752474746
    Total Energy =                       -841.5250735295863933
  Basis Set: (AUG-CC-PVTZ AUX)
    Blend: AUG-CC-PVTZ-RI
    Molecular point group: c1

    Geometry (in Angstrom), charge = 0, multiplicity = 1:

       Center              X                  Y                   Z               Mass
    ------------   -----------------  -----------------  -----------------  -----------------
         CL           0.198309490434     2.174915471220     0.198285315803    34.968852682000
         O            2.255944490434     0.210815471220    -0.866152684197    15.994914619570
         C            0.154841490434    -0.562623528780    -0.054906684197    12.000000000000
         C           -0.582346509566     0.629482471220     0.041851315803    12.000000000000
         C           -0.551451509566    -1.774043528780    -0.121602684197    12.000000000000
         C            1.653879490434    -0.583258528780    -0.148148684197    12.000000000000
         C           -1.977840509566     0.604191471220     0.079557315803    12.000000000000
         C           -1.944326509566    -1.804284528780    -0.108472684197    12.000000000000
         C           -2.658176509566    -0.609426528780    -0.009006684197    12.000000000000
         C            2.407784590434    -1.662025628780     0.695593715803    12.000000000000
         H            0.000305490434    -2.707015528780    -0.202370684197     1.007825032230
         H           -2.521754509566     1.540051471220     0.171209315803     1.007825032230
         H           -2.468144509566    -2.754049528780    -0.176585684197     1.007825032230
         H           -3.745027509566    -0.617324528780     0.010267315803     1.007825032230
         H            2.197034490434    -2.632622528780     0.277109315803     1.007825032230
         H            2.045256490434    -1.609309528780     1.708630315803     1.007825032230
         H            3.453793490434    -1.422308528780     0.614785315803     1.007825032230

  Basis Set: AUG-CC-PVTZ
    Blend: AUG-CC-PVTZ
  Basis Set: (AUG-CC-PVTZ AUX)
    Blend: AUG-CC-PVTZ-JKFIT
	 Reference Energy          =    -841.5250735295863933 [Eh]
	 Singles Energy            =      -0.0000000000000000 [Eh]
	 Same-Spin Energy          =      -0.4740089301590062 [Eh]
	 Opposite-Spin Energy      =      -1.4491096649317641 [Eh]
	 Correlation Energy        =      -1.9231185950907703 [Eh]
	 Total Energy              =    -843.4481921246771208 [Eh]

	 ================> DF-SCS-MP2 Energies <==================
	-----------------------------------------------------------
	 SCS Same-Spin Scale       =       0.3333333333333333 [-]
	 SCS Opposite-Spin Scale   =       1.2000000000000000 [-]
	 SCS Same-Spin Energy      =      -0.1580029767196687 [Eh]
	 SCS Opposite-Spin Energy  =      -1.7389315979181168 [Eh]
	 SCS Correlation Energy    =      -1.8969345746377855 [Eh]
	 SCS Total Energy          =    -843.4220081042242327 [Eh]
	-----------------------------------------------------------

  Dipole Moment: [D]
     X:    -2.2563      Y:    -2.9229      Z:     1.3796     Total:     3.9418

*** Psi4 exiting successfully. Buy a developer a beer!
