                               Psi4 1.4a3.dev225

  ==> Input File <==

--------------------------------------------------------------------------
#psi4
#
memory 32 gb

molecule  {
0 1
 Cl        0.2076870     2.2487580     0.1866360
  O        2.2653220     0.2846580    -0.8778020
  C        0.1642190    -0.4887810    -0.0665560
  C       -0.5729690     0.7033250     0.0302020
  C       -0.5420740    -1.7002010    -0.1332520
  C        1.6632570    -0.5094160    -0.1597980
  C       -1.9684630     0.6780340     0.0679080
  C       -1.9349490    -1.7304420    -0.1201220
  C       -2.6487990    -0.5355840    -0.0206560
  C        2.3930500    -1.5536810     0.6569590
  H        0.0096830    -2.6331730    -0.2140200
  H       -2.5123770     1.6138940     0.1595600
  H       -2.4587670    -2.6802070    -0.1882350
  H       -3.7356500    -0.5434820    -0.0013820
  H        2.2030021    -2.5771433     0.2583073
  H        2.0546340    -1.5354670     1.6969810
  H        3.4631710    -1.3484660     0.6031360
units angstrom
no_reorient  #important for SAPT in psi4, default
symmetry c1  #important for SAPT in psi4, default
}

set PROPERTIES_ORIGIN ["COM"]
properties('MP2/aug-cc-pvtz', properties = ['dipole'])
--------------------------------------------------------------------------

    Molecular point group: c1
  Charge       = 0
  Multiplicity = 1
  Basis Set: AUG-CC-PVTZ
    Blend: AUG-CC-PVTZ
  Basis Set: (AUG-CC-PVTZ AUX)
    Blend: AUG-CC-PVTZ-JKFIT

    Orbital Energies [Eh]
    ---------------------

    Doubly Occupied:

       1A   -104.841240     2A    -20.553437     3A    -11.346437
       4A    -11.320409     5A    -11.270530     6A    -11.267338
       7A    -11.263920     8A    -11.260066     9A    -11.257962
      10A    -11.245433    11A    -10.565017    12A     -8.031913
      13A     -8.029954    14A     -8.029898    15A     -1.384209
      16A     -1.199461    17A     -1.126741    18A     -1.066208
      19A     -1.012772    20A     -0.998942    21A     -0.876105
      22A     -0.837855    23A     -0.771633    24A     -0.704024
      25A     -0.668979    26A     -0.663705    27A     -0.633946
      28A     -0.621020    29A     -0.603412    30A     -0.593021
      31A     -0.563665    32A     -0.552040    33A     -0.536237
      34A     -0.524367    35A     -0.497246    36A     -0.473586
      37A     -0.457889    38A     -0.419924    39A     -0.361848
      40A     -0.344379

  @DF-RHF Final Energy:  -841.52635626335496

   => Energetics <=

    Nuclear Repulsion Energy =            563.5312554690393654
    One-Electron Energy =               -2272.5616799698204886
    Two-Electron Energy =                 867.5040682374260541
    Total Energy =                       -841.5263562633549554
  Basis Set: (AUG-CC-PVTZ AUX)
    Blend: AUG-CC-PVTZ-RI
    Molecular point group: c1

    Geometry (in Angstrom), charge = 0, multiplicity = 1:

       Center              X                  Y                   Z               Mass
    ------------   -----------------  -----------------  -----------------  -----------------
         CL           0.200210441954     2.172347480379     0.200434625001    34.968852682000
         O            2.257845441954     0.208247480379    -0.864003374999    15.994914619570
         C            0.156742441954    -0.565191519621    -0.052757374999    12.000000000000
         C           -0.580445558046     0.626914480379     0.044000625001    12.000000000000
         C           -0.549550558046    -1.776611519621    -0.119453374999    12.000000000000
         C            1.655780441954    -0.585826519621    -0.145999374999    12.000000000000
         C           -1.975939558046     0.601623480379     0.081706625001    12.000000000000
         C           -1.942425558046    -1.806852519621    -0.106323374999    12.000000000000
         C           -2.656275558046    -0.611994519621    -0.006857374999    12.000000000000
         C            2.385573441954    -1.630091519621     0.670757625001    12.000000000000
         H            0.002206441954    -2.709583519621    -0.200221374999     1.007825032230
         H           -2.519853558046     1.537483480379     0.173358625001     1.007825032230
         H           -2.466243558046    -2.756617519621    -0.174436374999     1.007825032230
         H           -3.743126558046    -0.619892519621     0.012416625001     1.007825032230
         H            2.195525541954    -2.653553819621     0.272105925001     1.007825032230
         H            2.047157441954    -1.611877519621     1.710779625001     1.007825032230
         H            3.455694441954    -1.424876519621     0.616934625001     1.007825032230

  Basis Set: AUG-CC-PVTZ
    Blend: AUG-CC-PVTZ
  Basis Set: (AUG-CC-PVTZ AUX)
    Blend: AUG-CC-PVTZ-JKFIT
	 Reference Energy          =    -841.5263562633549554 [Eh]
	 Singles Energy            =      -0.0000000000000000 [Eh]
	 Same-Spin Energy          =      -0.4742394834196124 [Eh]
	 Opposite-Spin Energy      =      -1.4492583016242813 [Eh]
	 Correlation Energy        =      -1.9234977850438937 [Eh]
	 Total Energy              =    -843.4498540483988336 [Eh]

	 ================> DF-SCS-MP2 Energies <==================
	-----------------------------------------------------------
	 SCS Same-Spin Scale       =       0.3333333333333333 [-]
	 SCS Opposite-Spin Scale   =       1.2000000000000000 [-]
	 SCS Same-Spin Energy      =      -0.1580798278065375 [Eh]
	 SCS Opposite-Spin Energy  =      -1.7391099619491375 [Eh]
	 SCS Correlation Energy    =      -1.8971897897556749 [Eh]
	 SCS Total Energy          =    -843.4235460531106128 [Eh]
	-----------------------------------------------------------

  Dipole Moment: [D]
     X:    -2.2030      Y:    -2.9869      Z:     1.4287     Total:     3.9769

*** Psi4 exiting successfully. Buy a developer a beer!
