                               Psi4 1.4a3.dev225

  ==> Input File <==

--------------------------------------------------------------------------
#psi4
#
memory 32 gb

molecule  {
0 1
 Cl        0.2076870     2.2487580     0.1866360
  O        2.2653220     0.2846580    -0.8778020
  C        0.1642190    -0.4887810    -0.0665560
  C       -0.5729690     0.7033250     0.0302020
  C       -0.5420740    -1.7002010    -0.1332520
  C        1.7098164    -0.4874143    -0.1715615
  C       -1.9684630     0.6780340     0.0679080
  C       -1.9349490    -1.7304420    -0.1201220
  C       -2.6487990    -0.5355840    -0.0206560
  C        2.3930500    -1.5536810     0.6569590
  H        0.0096830    -2.6331730    -0.2140200
  H       -2.5123770     1.6138940     0.1595600
  H       -2.4587670    -2.6802070    -0.1882350
  H       -3.7356500    -0.5434820    -0.0013820
  H        2.2064120    -2.5587800     0.2654600
  H        2.0546340    -1.5354670     1.6969810
  H        3.4631710    -1.3484660     0.6031360
units angstrom
no_reorient  #important for SAPT in psi4, default
symmetry c1  #important for SAPT in psi4, default
}

set PROPERTIES_ORIGIN ["COM"]
properties('MP2/aug-cc-pvtz', properties = ['dipole'])
--------------------------------------------------------------------------

    Molecular point group: c1
  Charge       = 0
  Multiplicity = 1
  Basis Set: AUG-CC-PVTZ
    Blend: AUG-CC-PVTZ
  Basis Set: (AUG-CC-PVTZ AUX)
    Blend: AUG-CC-PVTZ-JKFIT

    Orbital Energies [Eh]
    ---------------------

    Doubly Occupied:

       1A   -104.840121     2A    -20.558095     3A    -11.345361
       4A    -11.316707     5A    -11.268490     6A    -11.264085
       7A    -11.260725     8A    -11.257836     9A    -11.255842
      10A    -11.242675    11A    -10.563953    12A     -8.030852
      13A     -8.028903    14A     -8.028854    15A     -1.416034
      16A     -1.196400    17A     -1.124642    18A     -1.060136
      19A     -1.011898    20A     -0.998570    21A     -0.868889
      22A     -0.833675    23A     -0.768517    24A     -0.706078
      25A     -0.667554    26A     -0.665672    27A     -0.637949
      28A     -0.627016    29A     -0.607010    30A     -0.594677
      31A     -0.564230    32A     -0.551186    33A     -0.536062
      34A     -0.526249    35A     -0.509055    36A     -0.472549
      37A     -0.457159    38A     -0.415535    39A     -0.359372
      40A     -0.342238

  @DF-RHF Final Energy:  -841.52814409523148

   => Energetics <=

    Nuclear Repulsion Energy =            563.5270176320047995
    One-Electron Energy =               -2272.5486190626770622
    Two-Electron Energy =                 867.4934573354407803
    Total Energy =                       -841.5281440952314824
  Basis Set: (AUG-CC-PVTZ AUX)
    Blend: AUG-CC-PVTZ-RI
    Molecular point group: c1

    Geometry (in Angstrom), charge = 0, multiplicity = 1:

       Center              X                  Y                   Z               Mass
    ------------   -----------------  -----------------  -----------------  -----------------
         CL           0.196560560756     2.170513107784     0.201304347099    34.968852682000
         O            2.254195560756     0.206413107784    -0.863133652901    15.994914619570
         C            0.153092560756    -0.567025892216    -0.051887652901    12.000000000000
         C           -0.584095439244     0.625080107784     0.044870347099    12.000000000000
         C           -0.553200439244    -1.778445892216    -0.118583652901    12.000000000000
         C            1.698689960756    -0.565659192216    -0.156893152901    12.000000000000
         C           -1.979589439244     0.599789107784     0.082576347099    12.000000000000
         C           -1.946075439244    -1.808686892216    -0.105453652901    12.000000000000
         C           -2.659925439244    -0.613828892216    -0.005987652901    12.000000000000
         C            2.381923560756    -1.631925892216     0.671627347099    12.000000000000
         H           -0.001443439244    -2.711417892216    -0.199351652901     1.007825032230
         H           -2.523503439244     1.535649107784     0.174228347099     1.007825032230
         H           -2.469893439244    -2.758451892216    -0.173566652901     1.007825032230
         H           -3.746776439244    -0.621726892216     0.013286347099     1.007825032230
         H            2.195285560756    -2.637024892216     0.280128347099     1.007825032230
         H            2.043507560756    -1.613711892216     1.711649347099     1.007825032230
         H            3.452044560756    -1.426710892216     0.617804347099     1.007825032230

  Basis Set: AUG-CC-PVTZ
    Blend: AUG-CC-PVTZ
  Basis Set: (AUG-CC-PVTZ AUX)
    Blend: AUG-CC-PVTZ-JKFIT
	 Reference Energy          =    -841.5281440952314824 [Eh]
	 Singles Energy            =      -0.0000000000000000 [Eh]
	 Same-Spin Energy          =      -0.4729451690918302 [Eh]
	 Opposite-Spin Energy      =      -1.4463180464066845 [Eh]
	 Correlation Energy        =      -1.9192632154985148 [Eh]
	 Total Energy              =    -843.4474073107300001 [Eh]

	 ================> DF-SCS-MP2 Energies <==================
	-----------------------------------------------------------
	 SCS Same-Spin Scale       =       0.3333333333333333 [-]
	 SCS Opposite-Spin Scale   =       1.2000000000000000 [-]
	 SCS Same-Spin Energy      =      -0.1576483896972767 [Eh]
	 SCS Opposite-Spin Energy  =      -1.7355816556880213 [Eh]
	 SCS Correlation Energy    =      -1.8932300453852979 [Eh]
	 SCS Total Energy          =    -843.4213741406167628 [Eh]
	-----------------------------------------------------------

  Dipole Moment: [D]
     X:    -1.8910      Y:    -2.9490      Z:     1.3497     Total:     3.7542

*** Psi4 exiting successfully. Buy a developer a beer!
