                               Psi4 1.4a3.dev225

  ==> Input File <==

--------------------------------------------------------------------------
#psi4
#
memory 32 gb

molecule  {
0 1
 Cl        0.2076870     2.2487580     0.1866360
  O        2.2653220     0.2846580    -0.8778020
  C        0.1642190    -0.4887810    -0.0665560
  C       -0.5729690     0.7033250     0.0302020
  C       -0.5420740    -1.7002010    -0.1332520
  C        1.6632570    -0.5094160    -0.1597980
  C       -1.9684630     0.6780340     0.0679080
  C       -1.9330851    -1.7788816    -0.1240165
  C       -2.6487990    -0.5355840    -0.0206560
  C        2.3930500    -1.5536810     0.6569590
  H        0.0096830    -2.6331730    -0.2140200
  H       -2.5123770     1.6138940     0.1595600
  H       -2.4587670    -2.6802070    -0.1882350
  H       -3.7356500    -0.5434820    -0.0013820
  H        2.2064120    -2.5587800     0.2654600
  H        2.0546340    -1.5354670     1.6969810
  H        3.4631710    -1.3484660     0.6031360
units angstrom
no_reorient  #important for SAPT in psi4, default
symmetry c1  #important for SAPT in psi4, default
}

set PROPERTIES_ORIGIN ["COM"]
properties('MP2/aug-cc-pvtz', properties = ['dipole'])
--------------------------------------------------------------------------

    Molecular point group: c1
  Charge       = 0
  Multiplicity = 1
  Basis Set: AUG-CC-PVTZ
    Blend: AUG-CC-PVTZ
  Basis Set: (AUG-CC-PVTZ AUX)
    Blend: AUG-CC-PVTZ-JKFIT

    Orbital Energies [Eh]
    ---------------------

    Doubly Occupied:

       1A   -104.841977     2A    -20.553107     3A    -11.346278
       4A    -11.321877     5A    -11.270298     6A    -11.268886
       7A    -11.267689     8A    -11.260166     9A    -11.259289
      10A    -11.242732    11A    -10.565748    12A     -8.032641
      13A     -8.030684    14A     -8.030625    15A     -1.383923
      16A     -1.197846    17A     -1.124718    18A     -1.063973
      19A     -1.014646    20A     -0.998864    21A     -0.873821
      22A     -0.838757    23A     -0.775734    24A     -0.703751
      25A     -0.666933    26A     -0.663543    27A     -0.634993
      28A     -0.621746    29A     -0.609690    30A     -0.595264
      31A     -0.563031    32A     -0.549691    33A     -0.535815
      34A     -0.524228    35A     -0.497500    36A     -0.471656
      37A     -0.458331    38A     -0.420005    39A     -0.361691
      40A     -0.342664

  @DF-RHF Final Energy:  -841.52336414327397

   => Energetics <=

    Nuclear Repulsion Energy =            562.8296851304913844
    One-Electron Energy =               -2271.1364796575417131
    Two-Electron Energy =                 866.7834303837764764
    Total Energy =                       -841.5233641432739660
  Basis Set: (AUG-CC-PVTZ AUX)
    Blend: AUG-CC-PVTZ-RI
    Molecular point group: c1

    Geometry (in Angstrom), charge = 0, multiplicity = 1:

       Center              X                  Y                   Z               Mass
    ------------   -----------------  -----------------  -----------------  -----------------
         CL           0.200042907694     2.176001379431     0.200691252088    34.968852682000
         O            2.257677907694     0.211901379431    -0.863746747912    15.994914619570
         C            0.156574907694    -0.561537620569    -0.052500747912    12.000000000000
         C           -0.580613092306     0.630568379431     0.044257252088    12.000000000000
         C           -0.549718092306    -1.772957620569    -0.119196747912    12.000000000000
         C            1.655612907694    -0.582172620569    -0.145742747912    12.000000000000
         C           -1.976107092306     0.605277379431     0.081963252088    12.000000000000
         C           -1.940729192306    -1.851638220569    -0.109961247912    12.000000000000
         C           -2.656443092306    -0.608340620569    -0.006600747912    12.000000000000
         C            2.385405907694    -1.626437620569     0.671014252088    12.000000000000
         H            0.002038907694    -2.705929620569    -0.199964747912     1.007825032230
         H           -2.520021092306     1.541137379431     0.173615252088     1.007825032230
         H           -2.466411092306    -2.752963620569    -0.174179747912     1.007825032230
         H           -3.743294092306    -0.616238620569     0.012673252088     1.007825032230
         H            2.198767907694    -2.631536620569     0.279515252088     1.007825032230
         H            2.046989907694    -1.608223620569     1.711036252088     1.007825032230
         H            3.455526907694    -1.421222620569     0.617191252088     1.007825032230

  Basis Set: AUG-CC-PVTZ
    Blend: AUG-CC-PVTZ
  Basis Set: (AUG-CC-PVTZ AUX)
    Blend: AUG-CC-PVTZ-JKFIT
	 Reference Energy          =    -841.5233641432739660 [Eh]
	 Singles Energy            =      -0.0000000000000000 [Eh]
	 Same-Spin Energy          =      -0.4742042970996051 [Eh]
	 Opposite-Spin Energy      =      -1.4495151174448189 [Eh]
	 Correlation Energy        =      -1.9237194145444239 [Eh]
	 Total Energy              =    -843.4470835578183596 [Eh]

	 ================> DF-SCS-MP2 Energies <==================
	-----------------------------------------------------------
	 SCS Same-Spin Scale       =       0.3333333333333333 [-]
	 SCS Opposite-Spin Scale   =       1.2000000000000000 [-]
	 SCS Same-Spin Energy      =      -0.1580680990332017 [Eh]
	 SCS Opposite-Spin Energy  =      -1.7394181409337826 [Eh]
	 SCS Correlation Energy    =      -1.8974862399669843 [Eh]
	 SCS Total Energy          =    -843.4208503832409178 [Eh]
	-----------------------------------------------------------

  Dipole Moment: [D]
     X:    -2.2155      Y:    -2.9918      Z:     1.4261     Total:     3.9866

*** Psi4 exiting successfully. Buy a developer a beer!
