                               Psi4 1.4a3.dev225

  ==> Input File <==

--------------------------------------------------------------------------
#psi4
#
memory 32 gb

molecule  {
0 1
 Cl        0.2076870     2.2487580     0.1866360
  O        2.2653220     0.2846580    -0.8778020
  C        0.1642190    -0.4887810    -0.0665560
  C       -0.5729690     0.7033250     0.0302020
  C       -0.5420740    -1.7002010    -0.1332520
  C        1.6632570    -0.5094160    -0.1597980
  C       -1.9684630     0.6780340     0.0679080
  C       -1.9349490    -1.7304420    -0.1201220
  C       -2.6487990    -0.5355840    -0.0206560
  C        2.3930500    -1.5536810     0.6569590
  H        0.0096830    -2.6331730    -0.2140200
  H       -2.5123770     1.6138940     0.1595600
  H       -2.4587670    -2.6802070    -0.1882350
  H       -3.7356500    -0.5434820    -0.0013820
  H        2.1691563    -2.5538161     0.2723416
  H        2.0546340    -1.5354670     1.6969810
  H        3.4631710    -1.3484660     0.6031360
units angstrom
no_reorient  #important for SAPT in psi4, default
symmetry c1  #important for SAPT in psi4, default
}

set PROPERTIES_ORIGIN ["COM"]
properties('MP2/aug-cc-pvtz', properties = ['dipole'])
--------------------------------------------------------------------------

    Molecular point group: c1
  Charge       = 0
  Multiplicity = 1
  Basis Set: AUG-CC-PVTZ
    Blend: AUG-CC-PVTZ
  Basis Set: (AUG-CC-PVTZ AUX)
    Blend: AUG-CC-PVTZ-JKFIT

    Orbital Energies [Eh]
    ---------------------

    Doubly Occupied:

       1A   -104.841240     2A    -20.553084     3A    -11.346043
       4A    -11.320448     5A    -11.270620     6A    -11.267506
       7A    -11.263974     8A    -11.260160     9A    -11.258094
      10A    -11.243279    11A    -10.565015    12A     -8.031912
      13A     -8.029952    14A     -8.029896    15A     -1.383950
      16A     -1.199525    17A     -1.126810    18A     -1.066676
      19A     -1.013300    20A     -0.999953    21A     -0.876254
      22A     -0.837961    23A     -0.771660    24A     -0.704375
      25A     -0.669060    26A     -0.664012    27A     -0.634924
      28A     -0.620327    29A     -0.603922    30A     -0.593699
      31A     -0.566507    32A     -0.551960    33A     -0.536367
      34A     -0.524431    35A     -0.497362    36A     -0.473649
      37A     -0.457793    38A     -0.419606    39A     -0.361948
      40A     -0.344437

  @DF-RHF Final Energy:  -841.52678644292655

   => Energetics <=

    Nuclear Repulsion Energy =            563.6797977345172512
    One-Electron Energy =               -2272.8497879837186701
    Two-Electron Energy =                 867.6432038062748688
    Total Energy =                       -841.5267864429265501
  Basis Set: (AUG-CC-PVTZ AUX)
    Blend: AUG-CC-PVTZ-RI
    Molecular point group: c1

    Geometry (in Angstrom), charge = 0, multiplicity = 1:

       Center              X                  Y                   Z               Mass
    ------------   -----------------  -----------------  -----------------  -----------------
         CL           0.200431912979     2.172194838134     0.200342791131    34.968852682000
         O            2.258066912979     0.208094838134    -0.864095208869    15.994914619570
         C            0.156963912979    -0.565344161866    -0.052849208869    12.000000000000
         C           -0.580224087021     0.626761838134     0.043908791131    12.000000000000
         C           -0.549329087021    -1.776764161866    -0.119545208869    12.000000000000
         C            1.656001912979    -0.585979161866    -0.146091208869    12.000000000000
         C           -1.975718087021     0.601470838134     0.081614791131    12.000000000000
         C           -1.942204087021    -1.807005161866    -0.106415208869    12.000000000000
         C           -2.656054087021    -0.612147161866    -0.006949208869    12.000000000000
         C            2.385794912979    -1.630244161866     0.670665791131    12.000000000000
         H            0.002427912979    -2.709736161866    -0.200313208869     1.007825032230
         H           -2.519632087021     1.537330838134     0.173266791131     1.007825032230
         H           -2.466022087021    -2.756770161866    -0.174528208869     1.007825032230
         H           -3.742905087021    -0.620045161866     0.012324791131     1.007825032230
         H            2.161901212979    -2.630379261866     0.286048391131     1.007825032230
         H            2.047378912979    -1.612030161866     1.710687791131     1.007825032230
         H            3.455915912979    -1.425029161866     0.616842791131     1.007825032230

  Basis Set: AUG-CC-PVTZ
    Blend: AUG-CC-PVTZ
  Basis Set: (AUG-CC-PVTZ AUX)
    Blend: AUG-CC-PVTZ-JKFIT
	 Reference Energy          =    -841.5267864429265501 [Eh]
	 Singles Energy            =      -0.0000000000000000 [Eh]
	 Same-Spin Energy          =      -0.4742605836839856 [Eh]
	 Opposite-Spin Energy      =      -1.4491468396061293 [Eh]
	 Correlation Energy        =      -1.9234074232901150 [Eh]
	 Total Energy              =    -843.4501938662166367 [Eh]

	 ================> DF-SCS-MP2 Energies <==================
	-----------------------------------------------------------
	 SCS Same-Spin Scale       =       0.3333333333333333 [-]
	 SCS Opposite-Spin Scale   =       1.2000000000000000 [-]
	 SCS Same-Spin Energy      =      -0.1580868612279952 [Eh]
	 SCS Opposite-Spin Energy  =      -1.7389762075273552 [Eh]
	 SCS Correlation Energy    =      -1.8970630687553502 [Eh]
	 SCS Total Energy          =    -843.4238495116818513 [Eh]
	-----------------------------------------------------------

  Dipole Moment: [D]
     X:    -2.2194      Y:    -2.9855      Z:     1.4369     Total:     3.9879

*** Psi4 exiting successfully. Buy a developer a beer!
