                               Psi4 1.4a3.dev225

  ==> Input File <==

--------------------------------------------------------------------------
#psi4
#
memory 32 gb

molecule  {
0 1
 Cl        0.2076870     2.2487580     0.1866360
  O        2.2653220     0.2846580    -0.8778020
  C        0.1642190    -0.4887810    -0.0665560
  C       -0.5729690     0.7033250     0.0302020
  C       -0.5420740    -1.7002010    -0.1332520
  C        1.6632570    -0.5094160    -0.1597980
  C       -1.9684630     0.6780340     0.0679080
  C       -1.9349490    -1.7304420    -0.1201220
  C       -2.6487990    -0.5355840    -0.0206560
  C        2.3930500    -1.5536810     0.6569590
  H        0.0096830    -2.6331730    -0.2140200
  H       -2.5123770     1.6138940     0.1595600
  H       -2.3623683    -2.5054209    -0.1757001
  H       -3.7356500    -0.5434820    -0.0013820
  H        2.2064120    -2.5587800     0.2654600
  H        2.0546340    -1.5354670     1.6969810
  H        3.4631710    -1.3484660     0.6031360
units angstrom
no_reorient  #important for SAPT in psi4, default
symmetry c1  #important for SAPT in psi4, default
}

set PROPERTIES_ORIGIN ["COM"]
properties('MP2/aug-cc-pvtz', properties = ['dipole'])
--------------------------------------------------------------------------

    Molecular point group: c1
  Charge       = 0
  Multiplicity = 1
  Basis Set: AUG-CC-PVTZ
    Blend: AUG-CC-PVTZ
  Basis Set: (AUG-CC-PVTZ AUX)
    Blend: AUG-CC-PVTZ-JKFIT

    Orbital Energies [Eh]
    ---------------------

    Doubly Occupied:

       1A   -104.840995     2A    -20.552855     3A    -11.345759
       4A    -11.320188     5A    -11.269624     6A    -11.266364
       7A    -11.262810     8A    -11.259125     9A    -11.242827
      10A    -11.234461    11A    -10.564771    12A     -8.031667
      13A     -8.029709    14A     -8.029652    15A     -1.383673
      16A     -1.199575    17A     -1.129359    18A     -1.066533
      19A     -1.020138    20A     -1.002298    21A     -0.875667
      22A     -0.849475    23A     -0.787626    24A     -0.711736
      25A     -0.668470    26A     -0.664946    27A     -0.642436
      28A     -0.621606    29A     -0.614345    30A     -0.595694
      31A     -0.563907    32A     -0.551495    33A     -0.536238
      34A     -0.529824    35A     -0.498080    36A     -0.473151
      37A     -0.457638    38A     -0.419533    39A     -0.361071
      40A     -0.344171

  @DF-RHF Final Energy:  -841.49210881275917

   => Energetics <=

    Nuclear Repulsion Energy =            564.8221795902070426
    One-Electron Energy =               -2274.9895886126237201
    Two-Electron Energy =                 868.6753002096575074
    Total Energy =                       -841.4921088127591702
  Basis Set: (AUG-CC-PVTZ AUX)
    Blend: AUG-CC-PVTZ-RI
    Molecular point group: c1

    Geometry (in Angstrom), charge = 0, multiplicity = 1:

       Center              X                  Y                   Z               Mass
    ------------   -----------------  -----------------  -----------------  -----------------
         CL           0.199557341335     2.171083601387     0.200305798590    34.968852682000
         O            2.257192341335     0.206983601387    -0.864132201410    15.994914619570
         C            0.156089341335    -0.566455398613    -0.052886201410    12.000000000000
         C           -0.581098658665     0.625650601387     0.043871798590    12.000000000000
         C           -0.550203658665    -1.777875398613    -0.119582201410    12.000000000000
         C            1.655127341335    -0.587090398613    -0.146128201410    12.000000000000
         C           -1.976592658665     0.600359601387     0.081577798590    12.000000000000
         C           -1.943078658665    -1.808116398613    -0.106452201410    12.000000000000
         C           -2.656928658665    -0.613258398613    -0.006986201410    12.000000000000
         C            2.384920341335    -1.631355398613     0.670628798590    12.000000000000
         H            0.001553341335    -2.710847398613    -0.200350201410     1.007825032230
         H           -2.520506658665     1.536219601387     0.173229798590     1.007825032230
         H           -2.370497958665    -2.583095298613    -0.162030301410     1.007825032230
         H           -3.743779658665    -0.621156398613     0.012287798590     1.007825032230
         H            2.198282341335    -2.636454398613     0.279129798590     1.007825032230
         H            2.046504341335    -1.613141398613     1.710650798590     1.007825032230
         H            3.455041341335    -1.426140398613     0.616805798590     1.007825032230

  Basis Set: AUG-CC-PVTZ
    Blend: AUG-CC-PVTZ
  Basis Set: (AUG-CC-PVTZ AUX)
    Blend: AUG-CC-PVTZ-JKFIT
	 Reference Energy          =    -841.4921088127591702 [Eh]
	 Singles Energy            =      -0.0000000000000000 [Eh]
	 Same-Spin Energy          =      -0.4740552720305810 [Eh]
	 Opposite-Spin Energy      =      -1.4486781813884111 [Eh]
	 Correlation Energy        =      -1.9227334534189922 [Eh]
	 Total Energy              =    -843.4148422661781979 [Eh]

	 ================> DF-SCS-MP2 Energies <==================
	-----------------------------------------------------------
	 SCS Same-Spin Scale       =       0.3333333333333333 [-]
	 SCS Opposite-Spin Scale   =       1.2000000000000000 [-]
	 SCS Same-Spin Energy      =      -0.1580184240101936 [Eh]
	 SCS Opposite-Spin Energy  =      -1.7384138176660933 [Eh]
	 SCS Correlation Energy    =      -1.8964322416762869 [Eh]
	 SCS Total Energy          =    -843.3885410544354500 [Eh]
	-----------------------------------------------------------

  Dipole Moment: [D]
     X:    -2.2239      Y:    -3.0124      Z:     1.4266     Total:     4.0069

*** Psi4 exiting successfully. Buy a developer a beer!
