                               Psi4 1.4a3.dev225

  ==> Input File <==

--------------------------------------------------------------------------
#psi4
#
memory 32 gb

molecule  {
0 1
 Cl        0.2076870     2.2487580     0.1866360
  O        2.2653220     0.2846580    -0.8778020
  C        0.1642190    -0.4887810    -0.0665560
  C       -0.5729690     0.7033250     0.0302020
  C       -0.5420740    -1.7002010    -0.1332520
  C        1.6632570    -0.5094160    -0.1597980
  C       -1.9684630     0.6780340     0.0679080
  C       -1.9349490    -1.7304420    -0.1201220
  C       -2.6487990    -0.5355840    -0.0206560
  C        2.3930500    -1.5536810     0.6569590
  H        0.0096830    -2.6331730    -0.2140200
  H       -2.5123770     1.6138940     0.1595600
  H       -2.4587670    -2.6802070    -0.1882350
  H       -3.7356500    -0.5434820    -0.0013820
  H        2.2234615    -2.4669635     0.3012237
  H        2.0546340    -1.5354670     1.6969810
  H        3.4631710    -1.3484660     0.6031360
units angstrom
no_reorient  #important for SAPT in psi4, default
symmetry c1  #important for SAPT in psi4, default
}

set PROPERTIES_ORIGIN ["COM"]
properties('MP2/aug-cc-pvtz', properties = ['dipole'])
--------------------------------------------------------------------------

    Molecular point group: c1
  Charge       = 0
  Multiplicity = 1
  Basis Set: AUG-CC-PVTZ
    Blend: AUG-CC-PVTZ
  Basis Set: (AUG-CC-PVTZ AUX)
    Blend: AUG-CC-PVTZ-JKFIT

    Orbital Energies [Eh]
    ---------------------

    Doubly Occupied:

       1A   -104.841170     2A    -20.552920     3A    -11.345572
       4A    -11.320395     5A    -11.270557     6A    -11.267680
       7A    -11.263987     8A    -11.260173     9A    -11.258200
      10A    -11.230949    11A    -10.564945    12A     -8.031841
      13A     -8.029881    14A     -8.029826    15A     -1.383708
      16A     -1.199512    17A     -1.126828    18A     -1.068210
      19A     -1.016871    20A     -1.003886    21A     -0.877389
      22A     -0.838405    23A     -0.773572    24A     -0.706011
      25A     -0.668977    26A     -0.665043    27A     -0.638213
      28A     -0.625821    29A     -0.606500    30A     -0.596128
      31A     -0.566814    32A     -0.552545    33A     -0.536028
      34A     -0.524469    35A     -0.499783    36A     -0.473717
      37A     -0.458115    38A     -0.419524    39A     -0.361952
      40A     -0.344429

  @DF-RHF Final Energy:  -841.52095607560966

   => Energetics <=

    Nuclear Repulsion Energy =            564.0813585274123625
    One-Electron Energy =               -2273.6035379014042519
    Two-Electron Energy =                 868.0012232983823424
    Total Energy =                       -841.5209560756096607
  Basis Set: (AUG-CC-PVTZ AUX)
    Blend: AUG-CC-PVTZ-RI
    Molecular point group: c1

    Geometry (in Angstrom), charge = 0, multiplicity = 1:

       Center              X                  Y                   Z               Mass
    ------------   -----------------  -----------------  -----------------  -----------------
         CL           0.200076565246     2.171626515496     0.200153800228    34.968852682000
         O            2.257711565246     0.207526515496    -0.864284199772    15.994914619570
         C            0.156608565246    -0.565912484504    -0.053038199772    12.000000000000
         C           -0.580579434754     0.626193515496     0.043719800228    12.000000000000
         C           -0.549684434754    -1.777332484504    -0.119734199772    12.000000000000
         C            1.655646565246    -0.586547484504    -0.146280199772    12.000000000000
         C           -1.976073434754     0.600902515496     0.081425800228    12.000000000000
         C           -1.942559434754    -1.807573484504    -0.106604199772    12.000000000000
         C           -2.656409434754    -0.612715484504    -0.007138199772    12.000000000000
         C            2.385439565246    -1.630812484504     0.670476800228    12.000000000000
         H            0.002072565246    -2.710304484504    -0.200502199772     1.007825032230
         H           -2.519987434754     1.536762515496     0.173077800228     1.007825032230
         H           -2.466377434754    -2.757338484504    -0.174717199772     1.007825032230
         H           -3.743260434754    -0.620613484504     0.012135800228     1.007825032230
         H            2.215851065246    -2.544094984504     0.314741500228     1.007825032230
         H            2.047023565246    -1.612598484504     1.710498800228     1.007825032230
         H            3.455560565246    -1.425597484504     0.616653800228     1.007825032230

  Basis Set: AUG-CC-PVTZ
    Blend: AUG-CC-PVTZ
  Basis Set: (AUG-CC-PVTZ AUX)
    Blend: AUG-CC-PVTZ-JKFIT
	 Reference Energy          =    -841.5209560756096607 [Eh]
	 Singles Energy            =      -0.0000000000000000 [Eh]
	 Same-Spin Energy          =      -0.4741948802490543 [Eh]
	 Opposite-Spin Energy      =      -1.4486403470443201 [Eh]
	 Correlation Energy        =      -1.9228352272933744 [Eh]
	 Total Energy              =    -843.4437913029030369 [Eh]

	 ================> DF-SCS-MP2 Energies <==================
	-----------------------------------------------------------
	 SCS Same-Spin Scale       =       0.3333333333333333 [-]
	 SCS Opposite-Spin Scale   =       1.2000000000000000 [-]
	 SCS Same-Spin Energy      =      -0.1580649600830181 [Eh]
	 SCS Opposite-Spin Energy  =      -1.7383684164531841 [Eh]
	 SCS Correlation Energy    =      -1.8964333765362023 [Eh]
	 SCS Total Energy          =    -843.4173894521458124 [Eh]
	-----------------------------------------------------------

  Dipole Moment: [D]
     X:    -2.2126      Y:    -3.0056      Z:     1.4217     Total:     3.9938

*** Psi4 exiting successfully. Buy a developer a beer!
