                               Psi4 1.4a3.dev225

  ==> Input File <==

--------------------------------------------------------------------------
#psi4
#
memory 32 gb

molecule  {
0 1
 Cl        0.2076870     2.2487580     0.1866360
  O        2.2653220     0.2846580    -0.8778020
  C        0.1642190    -0.4887810    -0.0665560
  C       -0.5729690     0.7033250     0.0302020
  C       -0.5420740    -1.7002010    -0.1332520
  C        1.6632570    -0.5094160    -0.1597980
  C       -1.9684630     0.6780340     0.0679080
  C       -1.9349490    -1.7304420    -0.1201220
  C       -2.5195683    -0.4676333    -0.0167036
  C        2.3930500    -1.5536810     0.6569590
  H        0.0096830    -2.6331730    -0.2140200
  H       -2.5123770     1.6138940     0.1595600
  H       -2.4587670    -2.6802070    -0.1882350
  H       -3.7356500    -0.5434820    -0.0013820
  H        2.2064120    -2.5587800     0.2654600
  H        2.0546340    -1.5354670     1.6969810
  H        3.4631710    -1.3484660     0.6031360
units angstrom
no_reorient  #important for SAPT in psi4, default
symmetry c1  #important for SAPT in psi4, default
}

set PROPERTIES_ORIGIN ["COM"]
properties('MP2/aug-cc-pvtz', properties = ['dipole'])
--------------------------------------------------------------------------

    Molecular point group: c1
  Charge       = 0
  Multiplicity = 1
  Basis Set: AUG-CC-PVTZ
    Blend: AUG-CC-PVTZ
  Basis Set: (AUG-CC-PVTZ AUX)
    Blend: AUG-CC-PVTZ-JKFIT

    Orbital Energies [Eh]
    ---------------------

    Doubly Occupied:

       1A   -104.842621     2A    -20.552727     3A    -11.345966
       4A    -11.323188     5A    -11.268203     6A    -11.266799
       7A    -11.260201     8A    -11.257747     9A    -11.246431
      10A    -11.242945    11A    -10.566425    12A     -8.033308
      13A     -8.031373    14A     -8.031303    15A     -1.383636
      16A     -1.210948    17A     -1.131209    18A     -1.076592
      19A     -1.022000    20A     -0.997666    21A     -0.865738
      22A     -0.846461    23A     -0.773884    24A     -0.702241
      25A     -0.677152    26A     -0.648788    27A     -0.640063
      28A     -0.624362    29A     -0.612893    30A     -0.593990
      31A     -0.564575    32A     -0.553016    33A     -0.537007
      34A     -0.504558    35A     -0.493381    36A     -0.477829
      37A     -0.458472    38A     -0.418622    39A     -0.376814
      40A     -0.341610

  @DF-RHF Final Energy:  -841.49901792846617

   => Energetics <=

    Nuclear Repulsion Energy =            566.5872287006543502
    One-Electron Energy =               -2278.5670007168450866
    Two-Electron Energy =                 870.4807540877245629
    Total Energy =                       -841.4990179284661735
  Basis Set: (AUG-CC-PVTZ AUX)
    Blend: AUG-CC-PVTZ-RI
    Molecular point group: c1

    Geometry (in Angstrom), charge = 0, multiplicity = 1:

       Center              X                  Y                   Z               Mass
    ------------   -----------------  -----------------  -----------------  -----------------
         CL           0.190119416828     2.166933097281     0.200079878948    34.968852682000
         O            2.247754416828     0.202833097281    -0.864358121052    15.994914619570
         C            0.146651416828    -0.570605902719    -0.053112121052    12.000000000000
         C           -0.590536583172     0.621500097281     0.043645878948    12.000000000000
         C           -0.559641583172    -1.782025902719    -0.119808121052    12.000000000000
         C            1.645689416828    -0.591240902719    -0.146354121052    12.000000000000
         C           -1.986030583172     0.596209097281     0.081351878948    12.000000000000
         C           -1.952516583172    -1.812266902719    -0.106678121052    12.000000000000
         C           -2.537135883172    -0.549458202719    -0.003259721052    12.000000000000
         C            2.375482416828    -1.635505902719     0.670402878948    12.000000000000
         H           -0.007884583172    -2.714997902719    -0.200576121052     1.007825032230
         H           -2.529944583172     1.532069097281     0.173003878948     1.007825032230
         H           -2.476334583172    -2.762031902719    -0.174791121052     1.007825032230
         H           -3.753217583172    -0.625306902719     0.012061878948     1.007825032230
         H            2.188844416828    -2.640604902719     0.278903878948     1.007825032230
         H            2.037066416828    -1.617291902719     1.710424878948     1.007825032230
         H            3.445603416828    -1.430290902719     0.616579878948     1.007825032230

  Basis Set: AUG-CC-PVTZ
    Blend: AUG-CC-PVTZ
  Basis Set: (AUG-CC-PVTZ AUX)
    Blend: AUG-CC-PVTZ-JKFIT
	 Reference Energy          =    -841.4990179284661735 [Eh]
	 Singles Energy            =      -0.0000000000000000 [Eh]
	 Same-Spin Energy          =      -0.4746495502778569 [Eh]
	 Opposite-Spin Energy      =      -1.4498735522836181 [Eh]
	 Correlation Energy        =      -1.9245231025614751 [Eh]
	 Total Energy              =    -843.4235410310276393 [Eh]

	 ================> DF-SCS-MP2 Energies <==================
	-----------------------------------------------------------
	 SCS Same-Spin Scale       =       0.3333333333333333 [-]
	 SCS Opposite-Spin Scale   =       1.2000000000000000 [-]
	 SCS Same-Spin Energy      =      -0.1582165167592856 [Eh]
	 SCS Opposite-Spin Energy  =      -1.7398482627403418 [Eh]
	 SCS Correlation Energy    =      -1.8980647794996275 [Eh]
	 SCS Total Energy          =    -843.3970827079657511 [Eh]
	-----------------------------------------------------------

  Dipole Moment: [D]
     X:    -2.0934      Y:    -2.9934      Z:     1.4243     Total:     3.9206

*** Psi4 exiting successfully. Buy a developer a beer!
