                               Psi4 1.4a3.dev225

  ==> Input File <==

--------------------------------------------------------------------------
#psi4
#
memory 32 gb

molecule  {
0 1
 Cl        0.2076870     2.2487580     0.1866360
  O        2.2653220     0.2846580    -0.8778020
  C        0.1642190    -0.4887810    -0.0665560
  C       -0.5729690     0.7033250     0.0302020
  C       -0.5420740    -1.7002010    -0.1332520
  C        1.6632570    -0.5094160    -0.1597980
  C       -1.9684630     0.6780340     0.0679080
  C       -1.9349490    -1.7304420    -0.1201220
  C       -2.6487990    -0.5355840    -0.0206560
  C        2.3930500    -1.5536810     0.6569590
  H        0.0096830    -2.6331730    -0.2140200
  H       -2.5123770     1.6138940     0.1595600
  H       -2.4105677    -2.5928140    -0.1819676
  H       -3.7356500    -0.5434820    -0.0013820
  H        2.2064120    -2.5587800     0.2654600
  H        2.0546340    -1.5354670     1.6969810
  H        3.4631710    -1.3484660     0.6031360
units angstrom
no_reorient  #important for SAPT in psi4, default
symmetry c1  #important for SAPT in psi4, default
}

set PROPERTIES_ORIGIN ["COM"]
properties('MP2/aug-cc-pvtz', properties = ['dipole'])
--------------------------------------------------------------------------

    Molecular point group: c1
  Charge       = 0
  Multiplicity = 1
  Basis Set: AUG-CC-PVTZ
    Blend: AUG-CC-PVTZ
  Basis Set: (AUG-CC-PVTZ AUX)
    Blend: AUG-CC-PVTZ-JKFIT

    Orbital Energies [Eh]
    ---------------------

    Doubly Occupied:

       1A   -104.841048     2A    -20.553045     3A    -11.345967
       4A    -11.320208     5A    -11.270003     6A    -11.266725
       7A    -11.263203     8A    -11.259527     9A    -11.246257
      10A    -11.242919    11A    -10.564825    12A     -8.031721
      13A     -8.029762    14A     -8.029706    15A     -1.383844
      16A     -1.199362    17A     -1.127649    18A     -1.066325
      19A     -1.015621    20A     -1.001111    21A     -0.875902
      22A     -0.842188    23A     -0.779166    24A     -0.707922
      25A     -0.668618    26A     -0.664204    27A     -0.637879
      28A     -0.621597    29A     -0.610031    30A     -0.595280
      31A     -0.564071    32A     -0.551751    33A     -0.536053
      34A     -0.527699    35A     -0.497957    36A     -0.473293
      37A     -0.457731    38A     -0.419645    39A     -0.361401
      40A     -0.344164

  @DF-RHF Final Energy:  -841.52103921334128

   => Energetics <=

    Nuclear Repulsion Energy =            564.1801202439412464
    One-Electron Energy =               -2273.8115547546603921
    Two-Electron Energy =                 868.1103952973778632
    Total Energy =                       -841.5210392133412824
  Basis Set: (AUG-CC-PVTZ AUX)
    Blend: AUG-CC-PVTZ-RI
    Molecular point group: c1

    Geometry (in Angstrom), charge = 0, multiplicity = 1:

       Center              X                  Y                   Z               Mass
    ------------   -----------------  -----------------  -----------------  -----------------
         CL           0.199872735579     2.171655460803     0.200346810167    34.968852682000
         O            2.257507735579     0.207555460803    -0.864091189833    15.994914619570
         C            0.156404735579    -0.565883539197    -0.052845189833    12.000000000000
         C           -0.580783264421     0.626222460803     0.043912810167    12.000000000000
         C           -0.549888264421    -1.777303539197    -0.119541189833    12.000000000000
         C            1.655442735579    -0.586518539197    -0.146087189833    12.000000000000
         C           -1.976277264421     0.600931460803     0.081618810167    12.000000000000
         C           -1.942763264421    -1.807544539197    -0.106411189833    12.000000000000
         C           -2.656613264421    -0.612686539197    -0.006945189833    12.000000000000
         C            2.385235735579    -1.630783539197     0.670669810167    12.000000000000
         H            0.001868735579    -2.710275539197    -0.200309189833     1.007825032230
         H           -2.520191264421     1.536791460803     0.173270810167     1.007825032230
         H           -2.418381964421    -2.669916539197    -0.168256789833     1.007825032230
         H           -3.743464264421    -0.620584539197     0.012328810167     1.007825032230
         H            2.198597735579    -2.635882539197     0.279170810167     1.007825032230
         H            2.046819735579    -1.612569539197     1.710691810167     1.007825032230
         H            3.455356735579    -1.425568539197     0.616846810167     1.007825032230

  Basis Set: AUG-CC-PVTZ
    Blend: AUG-CC-PVTZ
  Basis Set: (AUG-CC-PVTZ AUX)
    Blend: AUG-CC-PVTZ-JKFIT
	 Reference Energy          =    -841.5210392133412824 [Eh]
	 Singles Energy            =      -0.0000000000000000 [Eh]
	 Same-Spin Energy          =      -0.4740866858574745 [Eh]
	 Opposite-Spin Energy      =      -1.4486546657631947 [Eh]
	 Correlation Energy        =      -1.9227413516206693 [Eh]
	 Total Energy              =    -843.4437805649619122 [Eh]

	 ================> DF-SCS-MP2 Energies <==================
	-----------------------------------------------------------
	 SCS Same-Spin Scale       =       0.3333333333333333 [-]
	 SCS Opposite-Spin Scale   =       1.2000000000000000 [-]
	 SCS Same-Spin Energy      =      -0.1580288952858248 [Eh]
	 SCS Opposite-Spin Energy  =      -1.7383855989158337 [Eh]
	 SCS Correlation Energy    =      -1.8964144942016585 [Eh]
	 SCS Total Energy          =    -843.4174537075429043 [Eh]
	-----------------------------------------------------------

  Dipole Moment: [D]
     X:    -2.2191      Y:    -3.0088      Z:     1.4265     Total:     4.0015

*** Psi4 exiting successfully. Buy a developer a beer!
