                               Psi4 1.4a3.dev225

  ==> Input File <==

--------------------------------------------------------------------------
#psi4
#
memory 32 gb

molecule  {
0 1
 Cl        0.2076870     2.2487580     0.1866360
  O        2.2653220     0.2846580    -0.8778020
  C        0.1642190    -0.4887810    -0.0665560
  C       -0.5729690     0.7033250     0.0302020
  C       -0.5420740    -1.7002010    -0.1332520
  C        1.6877663    -0.4770902    -0.1890271
  C       -1.9684630     0.6780340     0.0679080
  C       -1.9349490    -1.7304420    -0.1201220
  C       -2.6487990    -0.5355840    -0.0206560
  C        2.3930500    -1.5536810     0.6569590
  H        0.0096830    -2.6331730    -0.2140200
  H       -2.5123770     1.6138940     0.1595600
  H       -2.4587670    -2.6802070    -0.1882350
  H       -3.7356500    -0.5434820    -0.0013820
  H        2.2064120    -2.5587800     0.2654600
  H        2.0546340    -1.5354670     1.6969810
  H        3.4631710    -1.3484660     0.6031360
units angstrom
no_reorient  #important for SAPT in psi4, default
symmetry c1  #important for SAPT in psi4, default
}

set PROPERTIES_ORIGIN ["COM"]
properties('MP2/aug-cc-pvtz', properties = ['dipole'])
--------------------------------------------------------------------------

    Molecular point group: c1
  Charge       = 0
  Multiplicity = 1
  Basis Set: AUG-CC-PVTZ
    Blend: AUG-CC-PVTZ
  Basis Set: (AUG-CC-PVTZ AUX)
    Blend: AUG-CC-PVTZ-JKFIT

    Orbital Energies [Eh]
    ---------------------

    Doubly Occupied:

       1A   -104.841158     2A    -20.557583     3A    -11.343656
       4A    -11.317977     5A    -11.268543     6A    -11.265523
       7A    -11.262046     8A    -11.258681     9A    -11.256761
      10A    -11.240781    11A    -10.564985    12A     -8.031883
      13A     -8.029931    14A     -8.029882    15A     -1.419858
      16A     -1.197946    17A     -1.125744    18A     -1.060715
      19A     -1.010189    20A     -0.994762    21A     -0.872318
      22A     -0.834943    23A     -0.769554    24A     -0.705797
      25A     -0.668764    26A     -0.666836    27A     -0.637284
      28A     -0.626210    29A     -0.604879    30A     -0.594765
      31A     -0.563601    32A     -0.551638    33A     -0.537012
      34A     -0.527692    35A     -0.510393    36A     -0.473545
      37A     -0.457970    38A     -0.414024    39A     -0.360536
      40A     -0.343310

  @DF-RHF Final Energy:  -841.52854596553584

   => Energetics <=

    Nuclear Repulsion Energy =            563.8284137685781161
    One-Electron Energy =               -2273.1145642223691539
    Two-Electron Energy =                 867.7576044882550832
    Total Energy =                       -841.5285459655358409
  Basis Set: (AUG-CC-PVTZ AUX)
    Blend: AUG-CC-PVTZ-RI
    Molecular point group: c1

    Geometry (in Angstrom), charge = 0, multiplicity = 1:

       Center              X                  Y                   Z               Mass
    ------------   -----------------  -----------------  -----------------  -----------------
         CL           0.198278543511     2.169708729312     0.202665139095    34.968852682000
         O            2.255913543511     0.205608729312    -0.861772860905    15.994914619570
         C            0.154810543511    -0.567830270688    -0.050526860905    12.000000000000
         C           -0.582377456489     0.624275729312     0.046231139095    12.000000000000
         C           -0.551482456489    -1.779250270688    -0.117222860905    12.000000000000
         C            1.678357843511    -0.556139470688    -0.172997960905    12.000000000000
         C           -1.977871456489     0.598984729312     0.083937139095    12.000000000000
         C           -1.944357456489    -1.809491270688    -0.104092860905    12.000000000000
         C           -2.658207456489    -0.614633270688    -0.004626860905    12.000000000000
         C            2.383641543511    -1.632730270688     0.672988139095    12.000000000000
         H            0.000274543511    -2.712222270688    -0.197990860905     1.007825032230
         H           -2.521785456489     1.534844729312     0.175589139095     1.007825032230
         H           -2.468175456489    -2.759256270688    -0.172205860905     1.007825032230
         H           -3.745058456489    -0.622531270688     0.014647139095     1.007825032230
         H            2.197003543511    -2.637829270688     0.281489139095     1.007825032230
         H            2.045225543511    -1.614516270688     1.713010139095     1.007825032230
         H            3.453762543511    -1.427515270688     0.619165139095     1.007825032230

  Basis Set: AUG-CC-PVTZ
    Blend: AUG-CC-PVTZ
  Basis Set: (AUG-CC-PVTZ AUX)
    Blend: AUG-CC-PVTZ-JKFIT
	 Reference Energy          =    -841.5285459655358409 [Eh]
	 Singles Energy            =      -0.0000000000000000 [Eh]
	 Same-Spin Energy          =      -0.4727361948213204 [Eh]
	 Opposite-Spin Energy      =      -1.4459708595034655 [Eh]
	 Correlation Energy        =      -1.9187070543247859 [Eh]
	 Total Energy              =    -843.4472530198606819 [Eh]

	 ================> DF-SCS-MP2 Energies <==================
	-----------------------------------------------------------
	 SCS Same-Spin Scale       =       0.3333333333333333 [-]
	 SCS Opposite-Spin Scale   =       1.2000000000000000 [-]
	 SCS Same-Spin Energy      =      -0.1575787316071068 [Eh]
	 SCS Opposite-Spin Energy  =      -1.7351650314041585 [Eh]
	 SCS Correlation Energy    =      -1.8927437630112653 [Eh]
	 SCS Total Energy          =    -843.4212897285470945 [Eh]
	-----------------------------------------------------------

  Dipole Moment: [D]
     X:    -2.0556      Y:    -2.8594      Z:     1.2843     Total:     3.7485

*** Psi4 exiting successfully. Buy a developer a beer!
