                               Psi4 1.4a3.dev225

  ==> Input File <==

--------------------------------------------------------------------------
#psi4
#
memory 32 gb

molecule  {
0 1
 Cl        0.2076870     2.2487580     0.1866360
  O        2.2653220     0.2846580    -0.8778020
  C        0.1642190    -0.4887810    -0.0665560
  C       -0.5729690     0.7033250     0.0302020
  C       -0.5420740    -1.7002010    -0.1332520
  C        1.6632570    -0.5094160    -0.1597980
  C       -1.9684630     0.6780340     0.0679080
  C       -1.9349490    -1.7304420    -0.1201220
  C       -2.6487990    -0.5355840    -0.0206560
  C        2.3930500    -1.5536810     0.6569590
  H        0.0096830    -2.6331730    -0.2140200
  H       -2.5123770     1.6138940     0.1595600
  H       -2.4587670    -2.6802070    -0.1882350
  H       -3.7356500    -0.5434820    -0.0013820
  H        2.2251279    -2.5608030     0.2621976
  H        2.0546340    -1.5354670     1.6969810
  H        3.4631710    -1.3484660     0.6031360
units angstrom
no_reorient  #important for SAPT in psi4, default
symmetry c1  #important for SAPT in psi4, default
}

set PROPERTIES_ORIGIN ["COM"]
properties('MP2/aug-cc-pvtz', properties = ['dipole'])
--------------------------------------------------------------------------

    Molecular point group: c1
  Charge       = 0
  Multiplicity = 1
  Basis Set: AUG-CC-PVTZ
    Blend: AUG-CC-PVTZ
  Basis Set: (AUG-CC-PVTZ AUX)
    Blend: AUG-CC-PVTZ-JKFIT

    Orbital Energies [Eh]
    ---------------------

    Doubly Occupied:

       1A   -104.841216     2A    -20.553434     3A    -11.346386
       4A    -11.320382     5A    -11.270488     6A    -11.267346
       7A    -11.263908     8A    -11.260046     9A    -11.257959
      10A    -11.242971    11A    -10.564993    12A     -8.031889
      13A     -8.029930    14A     -8.029874    15A     -1.384174
      16A     -1.199439    17A     -1.126724    18A     -1.066345
      19A     -1.013118    20A     -0.999744    21A     -0.876308
      22A     -0.837922    23A     -0.772008    24A     -0.704233
      25A     -0.668938    26A     -0.663737    27A     -0.634059
      28A     -0.622453    29A     -0.603936    30A     -0.593759
      31A     -0.563209    32A     -0.552286    33A     -0.536093
      34A     -0.524360    35A     -0.497906    36A     -0.473588
      37A     -0.457995    38A     -0.419951    39A     -0.361823
      40A     -0.344361

  @DF-RHF Final Energy:  -841.52685106244462

   => Energetics <=

    Nuclear Repulsion Energy =            563.5871671542411150
    One-Electron Energy =               -2272.6694553088213979
    Two-Electron Energy =                 867.5554370921356622
    Total Energy =                       -841.5268510624446208
  Basis Set: (AUG-CC-PVTZ AUX)
    Blend: AUG-CC-PVTZ-RI
    Molecular point group: c1

    Geometry (in Angstrom), charge = 0, multiplicity = 1:

       Center              X                  Y                   Z               Mass
    ------------   -----------------  -----------------  -----------------  -----------------
         CL           0.200065661107     2.172240557127     0.200409168704    34.968852682000
         O            2.257700661107     0.208140557127    -0.864028831296    15.994914619570
         C            0.156597661107    -0.565298442873    -0.052782831296    12.000000000000
         C           -0.580590338893     0.626807557127     0.043975168704    12.000000000000
         C           -0.549695338893    -1.776718442873    -0.119478831296    12.000000000000
         C            1.655635661107    -0.585933442873    -0.146024831296    12.000000000000
         C           -1.976084338893     0.601516557127     0.081681168704    12.000000000000
         C           -1.942570338893    -1.806959442873    -0.106348831296    12.000000000000
         C           -2.656420338893    -0.612101442873    -0.006882831296    12.000000000000
         C            2.385428661107    -1.630198442873     0.670732168704    12.000000000000
         H            0.002061661107    -2.709690442873    -0.200246831296     1.007825032230
         H           -2.519998338893     1.537376557127     0.173333168704     1.007825032230
         H           -2.466388338893    -2.756724442873    -0.174461831296     1.007825032230
         H           -3.743271338893    -0.619999442873     0.012391168704     1.007825032230
         H            2.217506561107    -2.637320442873     0.275970768704     1.007825032230
         H            2.047012661107    -1.611984442873     1.710754168704     1.007825032230
         H            3.455549661107    -1.424983442873     0.616909168704     1.007825032230

  Basis Set: AUG-CC-PVTZ
    Blend: AUG-CC-PVTZ
  Basis Set: (AUG-CC-PVTZ AUX)
    Blend: AUG-CC-PVTZ-JKFIT
	 Reference Energy          =    -841.5268510624446208 [Eh]
	 Singles Energy            =      -0.0000000000000000 [Eh]
	 Same-Spin Energy          =      -0.4742172268839281 [Eh]
	 Opposite-Spin Energy      =      -1.4491221389049009 [Eh]
	 Correlation Energy        =      -1.9233393657888289 [Eh]
	 Total Energy              =    -843.4501904282334408 [Eh]

	 ================> DF-SCS-MP2 Energies <==================
	-----------------------------------------------------------
	 SCS Same-Spin Scale       =       0.3333333333333333 [-]
	 SCS Opposite-Spin Scale   =       1.2000000000000000 [-]
	 SCS Same-Spin Energy      =      -0.1580724089613094 [Eh]
	 SCS Opposite-Spin Energy  =      -1.7389465666858810 [Eh]
	 SCS Correlation Energy    =      -1.8970189756471902 [Eh]
	 SCS Total Energy          =    -843.4238700380917635 [Eh]
	-----------------------------------------------------------

  Dipole Moment: [D]
     X:    -2.1970      Y:    -2.9936      Z:     1.4228     Total:     3.9766

*** Psi4 exiting successfully. Buy a developer a beer!
