                               Psi4 1.4a3.dev225

  ==> Input File <==

--------------------------------------------------------------------------
#psi4
#
memory 32 gb

molecule  {
0 1
 Cl        0.2076870     2.2487580     0.1866360
  O        2.2653220     0.2846580    -0.8778020
  C        0.1642190    -0.4887810    -0.0665560
  C       -0.5729690     0.7033250     0.0302020
  C       -0.5420740    -1.7002010    -0.1332520
  C        1.6632570    -0.5094160    -0.1597980
  C       -1.9684630     0.6780340     0.0679080
  C       -1.9349490    -1.7304420    -0.1201220
  C       -2.6277664    -0.5233278    -0.0199203
  C        2.3930500    -1.5536810     0.6569590
  H        0.0096830    -2.6331730    -0.2140200
  H       -2.5123770     1.6138940     0.1595600
  H       -2.4587670    -2.6802070    -0.1882350
  H       -3.7356500    -0.5434820    -0.0013820
  H        2.2064120    -2.5587800     0.2654600
  H        2.0546340    -1.5354670     1.6969810
  H        3.4631710    -1.3484660     0.6031360
units angstrom
no_reorient  #important for SAPT in psi4, default
symmetry c1  #important for SAPT in psi4, default
}

set PROPERTIES_ORIGIN ["COM"]
properties('MP2/aug-cc-pvtz', properties = ['dipole'])
--------------------------------------------------------------------------

    Molecular point group: c1
  Charge       = 0
  Multiplicity = 1
  Basis Set: AUG-CC-PVTZ
    Blend: AUG-CC-PVTZ
  Basis Set: (AUG-CC-PVTZ AUX)
    Blend: AUG-CC-PVTZ-JKFIT

    Orbital Energies [Eh]
    ---------------------

    Doubly Occupied:

       1A   -104.841417     2A    -20.553172     3A    -11.346164
       4A    -11.320782     5A    -11.270039     6A    -11.267219
       7A    -11.263167     8A    -11.257866     9A    -11.257687
      10A    -11.243012    11A    -10.565197    12A     -8.032091
      13A     -8.030136    14A     -8.030078    15A     -1.383973
      16A     -1.200952    17A     -1.127384    18A     -1.067787
      19A     -1.014659    20A     -0.999386    21A     -0.874361
      22A     -0.839254    23A     -0.771952    24A     -0.703485
      25A     -0.670164    26A     -0.661152    27A     -0.635202
      28A     -0.622033    29A     -0.605395    30A     -0.593898
      31A     -0.563545    32A     -0.551437    33A     -0.532420
      34A     -0.526910    35A     -0.497787    36A     -0.474201
      37A     -0.458058    38A     -0.419666    39A     -0.364174
      40A     -0.343829

  @DF-RHF Final Energy:  -841.52631441448887

   => Energetics <=

    Nuclear Repulsion Energy =            564.0891603976366468
    One-Electron Energy =               -2273.6687718037605919
    Two-Electron Energy =                 868.0532969916351931
    Total Energy =                       -841.5263144144888656
  Basis Set: (AUG-CC-PVTZ AUX)
    Blend: AUG-CC-PVTZ-RI
    Molecular point group: c1

    Geometry (in Angstrom), charge = 0, multiplicity = 1:

       Center              X                  Y                   Z               Mass
    ------------   -----------------  -----------------  -----------------  -----------------
         CL           0.198549422584     2.171272405971     0.200330500719    34.968852682000
         O            2.256184422584     0.207172405971    -0.864107499281    15.994914619570
         C            0.155081422584    -0.566266594029    -0.052861499281    12.000000000000
         C           -0.582106577416     0.625839405971     0.043896500719    12.000000000000
         C           -0.551211577416    -1.777686594029    -0.119557499281    12.000000000000
         C            1.654119422584    -0.586901594029    -0.146103499281    12.000000000000
         C           -1.977600577416     0.600548405971     0.081602500719    12.000000000000
         C           -1.944086577416    -1.807927594029    -0.106427499281    12.000000000000
         C           -2.636903977416    -0.600813394029    -0.006225799281    12.000000000000
         C            2.383912422584    -1.631166594029     0.670653500719    12.000000000000
         H            0.000545422584    -2.710658594029    -0.200325499281     1.007825032230
         H           -2.521514577416     1.536408405971     0.173254500719     1.007825032230
         H           -2.467904577416    -2.757692594029    -0.174540499281     1.007825032230
         H           -3.744787577416    -0.620967594029     0.012312500719     1.007825032230
         H            2.197274422584    -2.636265594029     0.279154500719     1.007825032230
         H            2.045496422584    -1.612952594029     1.710675500719     1.007825032230
         H            3.454033422584    -1.425951594029     0.616830500719     1.007825032230

  Basis Set: AUG-CC-PVTZ
    Blend: AUG-CC-PVTZ
  Basis Set: (AUG-CC-PVTZ AUX)
    Blend: AUG-CC-PVTZ-JKFIT
	 Reference Energy          =    -841.5263144144888656 [Eh]
	 Singles Energy            =      -0.0000000000000000 [Eh]
	 Same-Spin Energy          =      -0.4742538208587352 [Eh]
	 Opposite-Spin Energy      =      -1.4490454529282273 [Eh]
	 Correlation Energy        =      -1.9232992737869625 [Eh]
	 Total Energy              =    -843.4496136882758037 [Eh]

	 ================> DF-SCS-MP2 Energies <==================
	-----------------------------------------------------------
	 SCS Same-Spin Scale       =       0.3333333333333333 [-]
	 SCS Opposite-Spin Scale   =       1.2000000000000000 [-]
	 SCS Same-Spin Energy      =      -0.1580846069529117 [Eh]
	 SCS Opposite-Spin Energy  =      -1.7388545435138727 [Eh]
	 SCS Correlation Energy    =      -1.8969391504667845 [Eh]
	 SCS Total Energy          =    -843.4232535649556439 [Eh]
	-----------------------------------------------------------

  Dipole Moment: [D]
     X:    -2.1950      Y:    -2.9914      Z:     1.4270     Total:     3.9753

*** Psi4 exiting successfully. Buy a developer a beer!
