                               Psi4 1.4a3.dev225

  ==> Input File <==

--------------------------------------------------------------------------
#psi4
#
memory 32 gb

molecule  {
0 1
 Cl        0.2076870     2.2487580     0.1866360
  O        2.2653220     0.2846580    -0.8778020
  C        0.1642190    -0.4887810    -0.0665560
  C       -0.5729690     0.7033250     0.0302020
  C       -0.5420740    -1.7002010    -0.1332520
  C        1.6632570    -0.5094160    -0.1597980
  C       -1.9684630     0.6780340     0.0679080
  C       -1.9349490    -1.7304420    -0.1201220
  C       -2.6232204    -0.5783980    -0.0242200
  C        2.3930500    -1.5536810     0.6569590
  H        0.0096830    -2.6331730    -0.2140200
  H       -2.5123770     1.6138940     0.1595600
  H       -2.4587670    -2.6802070    -0.1882350
  H       -3.7356500    -0.5434820    -0.0013820
  H        2.2064120    -2.5587800     0.2654600
  H        2.0546340    -1.5354670     1.6969810
  H        3.4631710    -1.3484660     0.6031360
units angstrom
no_reorient  #important for SAPT in psi4, default
symmetry c1  #important for SAPT in psi4, default
}

set PROPERTIES_ORIGIN ["COM"]
properties('MP2/aug-cc-pvtz', properties = ['dipole'])
--------------------------------------------------------------------------

    Molecular point group: c1
  Charge       = 0
  Multiplicity = 1
  Basis Set: AUG-CC-PVTZ
    Blend: AUG-CC-PVTZ
  Basis Set: (AUG-CC-PVTZ AUX)
    Blend: AUG-CC-PVTZ-JKFIT

    Orbital Energies [Eh]
    ---------------------

    Doubly Occupied:

       1A   -104.840594     2A    -20.553222     3A    -11.346295
       4A    -11.319756     5A    -11.270588     6A    -11.268355
       7A    -11.263197     8A    -11.261997     9A    -11.252422
      10A    -11.243005    11A    -10.564407    12A     -8.031303
      13A     -8.029346    14A     -8.029290    15A     -1.384063
      16A     -1.200568    17A     -1.129870    18A     -1.065972
      19A     -1.012544    20A     -1.001853    21A     -0.877427
      22A     -0.836852    23A     -0.771516    24A     -0.704133
      25A     -0.670216    26A     -0.661422    27A     -0.634590
      28A     -0.621725    29A     -0.603768    30A     -0.594246
      31A     -0.563272    32A     -0.553152    33A     -0.537568
      34A     -0.520155    35A     -0.498217    36A     -0.475981
      37A     -0.457413    38A     -0.419468    39A     -0.359892
      40A     -0.347703

  @DF-RHF Final Energy:  -841.52386870132784

   => Energetics <=

    Nuclear Repulsion Energy =            564.0651881223765258
    One-Electron Energy =               -2273.6233856856511011
    Two-Electron Energy =                 868.0343288619466193
    Total Energy =                       -841.5238687013278422
  Basis Set: (AUG-CC-PVTZ AUX)
    Blend: AUG-CC-PVTZ-RI
    Molecular point group: c1

    Geometry (in Angstrom), charge = 0, multiplicity = 1:

       Center              X                  Y                   Z               Mass
    ------------   -----------------  -----------------  -----------------  -----------------
         CL           0.198195231464     2.175563073764     0.200665501941    34.968852682000
         O            2.255830231464     0.211463073764    -0.863772498059    15.994914619570
         C            0.154727231464    -0.561975926236    -0.052526498059    12.000000000000
         C           -0.582460768536     0.630130073764     0.044231501941    12.000000000000
         C           -0.551565768536    -1.773395926236    -0.119222498059    12.000000000000
         C            1.653765231464    -0.582610926236    -0.145768498059    12.000000000000
         C           -1.977954768536     0.604839073764     0.081937501941    12.000000000000
         C           -1.944440768536    -1.803636926236    -0.106092498059    12.000000000000
         C           -2.632712168536    -0.651592926236    -0.010190498059    12.000000000000
         C            2.383558231464    -1.626875926236     0.670988501941    12.000000000000
         H            0.000191231464    -2.706367926236    -0.199990498059     1.007825032230
         H           -2.521868768536     1.540699073764     0.173589501941     1.007825032230
         H           -2.468258768536    -2.753401926236    -0.174205498059     1.007825032230
         H           -3.745141768536    -0.616676926236     0.012647501941     1.007825032230
         H            2.196920231464    -2.631974926236     0.279489501941     1.007825032230
         H            2.045142231464    -1.608661926236     1.711010501941     1.007825032230
         H            3.453679231464    -1.421660926236     0.617165501941     1.007825032230

  Basis Set: AUG-CC-PVTZ
    Blend: AUG-CC-PVTZ
  Basis Set: (AUG-CC-PVTZ AUX)
    Blend: AUG-CC-PVTZ-JKFIT
	 Reference Energy          =    -841.5238687013278422 [Eh]
	 Singles Energy            =      -0.0000000000000000 [Eh]
	 Same-Spin Energy          =      -0.4742026151525910 [Eh]
	 Opposite-Spin Energy      =      -1.4490892335753400 [Eh]
	 Correlation Energy        =      -1.9232918487279309 [Eh]
	 Total Energy              =    -843.4471605500557416 [Eh]

	 ================> DF-SCS-MP2 Energies <==================
	-----------------------------------------------------------
	 SCS Same-Spin Scale       =       0.3333333333333333 [-]
	 SCS Opposite-Spin Scale   =       1.2000000000000000 [-]
	 SCS Same-Spin Energy      =      -0.1580675383841970 [Eh]
	 SCS Opposite-Spin Energy  =      -1.7389070802904081 [Eh]
	 SCS Correlation Energy    =      -1.8969746186746050 [Eh]
	 SCS Total Energy          =    -843.4208433200024047 [Eh]
	-----------------------------------------------------------

  Dipole Moment: [D]
     X:    -2.1934      Y:    -3.0043      Z:     1.4255     Total:     3.9836

*** Psi4 exiting successfully. Buy a developer a beer!
