                               Psi4 1.4a3.dev225

  ==> Input File <==

--------------------------------------------------------------------------
#psi4
#
memory 32 gb

molecule  {
0 1
 Cl        0.2076870     2.2487580     0.1866360
  O        2.2653220     0.2846580    -0.8778020
  C        0.1642190    -0.4887810    -0.0665560
  C       -0.5729690     0.7033250     0.0302020
  C       -0.5420740    -1.7002010    -0.1332520
  C        1.6632570    -0.5094160    -0.1597980
  C       -1.9684630     0.6780340     0.0679080
  C       -1.9352447    -1.7062047    -0.1181805
  C       -2.6487990    -0.5355840    -0.0206560
  C        2.3930500    -1.5536810     0.6569590
  H        0.0096830    -2.6331730    -0.2140200
  H       -2.5123770     1.6138940     0.1595600
  H       -2.4587670    -2.6802070    -0.1882350
  H       -3.7356500    -0.5434820    -0.0013820
  H        2.2064120    -2.5587800     0.2654600
  H        2.0546340    -1.5354670     1.6969810
  H        3.4631710    -1.3484660     0.6031360
units angstrom
no_reorient  #important for SAPT in psi4, default
symmetry c1  #important for SAPT in psi4, default
}

set PROPERTIES_ORIGIN ["COM"]
properties('MP2/aug-cc-pvtz', properties = ['dipole'])
--------------------------------------------------------------------------

    Molecular point group: c1
  Charge       = 0
  Multiplicity = 1
  Basis Set: AUG-CC-PVTZ
    Blend: AUG-CC-PVTZ
  Basis Set: (AUG-CC-PVTZ AUX)
    Blend: AUG-CC-PVTZ-JKFIT

    Orbital Energies [Eh]
    ---------------------

    Doubly Occupied:

       1A   -104.840884     2A    -20.553449     3A    -11.346284
       4A    -11.319707     5A    -11.270695     6A    -11.267373
       7A    -11.261549     8A    -11.259941     9A    -11.257366
      10A    -11.243253    11A    -10.564662    12A     -8.031560
      13A     -8.029599    14A     -8.029545    15A     -1.384210
      16A     -1.200482    17A     -1.127884    18A     -1.067820
      19A     -1.012513    20A     -1.000297    21A     -0.877653
      22A     -0.837730    23A     -0.769974    24A     -0.704671
      25A     -0.670267    26A     -0.664126    27A     -0.634283
      28A     -0.621746    29A     -0.601892    30A     -0.591906
      31A     -0.565207    32A     -0.553656    33A     -0.537613
      34A     -0.522059    35A     -0.497645    36A     -0.474695
      37A     -0.457755    38A     -0.419742    39A     -0.362346
      40A     -0.345010

  @DF-RHF Final Energy:  -841.52627039589561

   => Energetics <=

    Nuclear Repulsion Energy =            564.0268825462840141
    One-Electron Energy =               -2273.5482104277721191
    Two-Electron Energy =                 867.9950574855924970
    Total Energy =                       -841.5262703958956081
  Basis Set: (AUG-CC-PVTZ AUX)
    Blend: AUG-CC-PVTZ-RI
    Molecular point group: c1

    Geometry (in Angstrom), charge = 0, multiplicity = 1:

       Center              X                  Y                   Z               Mass
    ------------   -----------------  -----------------  -----------------  -----------------
         CL           0.200211167954     2.170338926159     0.200236553589    34.968852682000
         O            2.257846167954     0.206238926159    -0.864201446411    15.994914619570
         C            0.156743167954    -0.567200073841    -0.052955446411    12.000000000000
         C           -0.580444832046     0.624905926159     0.043802553589    12.000000000000
         C           -0.549549832046    -1.778620073841    -0.119651446411    12.000000000000
         C            1.655781167954    -0.587835073841    -0.146197446411    12.000000000000
         C           -1.975938832046     0.599614926159     0.081508553589    12.000000000000
         C           -1.942720532046    -1.784623773841    -0.104579946411    12.000000000000
         C           -2.656274832046    -0.614003073841    -0.007055446411    12.000000000000
         C            2.385574167954    -1.632100073841     0.670559553589    12.000000000000
         H            0.002207167954    -2.711592073841    -0.200419446411     1.007825032230
         H           -2.519852832046     1.535474926159     0.173160553589     1.007825032230
         H           -2.466242832046    -2.758626073841    -0.174634446411     1.007825032230
         H           -3.743125832046    -0.621901073841     0.012218553589     1.007825032230
         H            2.198936167954    -2.637199073841     0.279060553589     1.007825032230
         H            2.047158167954    -1.613886073841     1.710581553589     1.007825032230
         H            3.455695167954    -1.426885073841     0.616736553589     1.007825032230

  Basis Set: AUG-CC-PVTZ
    Blend: AUG-CC-PVTZ
  Basis Set: (AUG-CC-PVTZ AUX)
    Blend: AUG-CC-PVTZ-JKFIT
	 Reference Energy          =    -841.5262703958956081 [Eh]
	 Singles Energy            =      -0.0000000000000000 [Eh]
	 Same-Spin Energy          =      -0.4742598286736868 [Eh]
	 Opposite-Spin Energy      =      -1.4490554540165097 [Eh]
	 Correlation Energy        =      -1.9233152826901965 [Eh]
	 Total Energy              =    -843.4495856785857768 [Eh]

	 ================> DF-SCS-MP2 Energies <==================
	-----------------------------------------------------------
	 SCS Same-Spin Scale       =       0.3333333333333333 [-]
	 SCS Opposite-Spin Scale   =       1.2000000000000000 [-]
	 SCS Same-Spin Energy      =      -0.1580866095578956 [Eh]
	 SCS Opposite-Spin Energy  =      -1.7388665448198115 [Eh]
	 SCS Correlation Energy    =      -1.8969531543777072 [Eh]
	 SCS Total Energy          =    -843.4232235502732919 [Eh]
	-----------------------------------------------------------

  Dipole Moment: [D]
     X:    -2.1961      Y:    -2.9870      Z:     1.4284     Total:     3.9731

*** Psi4 exiting successfully. Buy a developer a beer!
