                               Psi4 1.4a3.dev225

  ==> Input File <==

--------------------------------------------------------------------------
#psi4
#
memory 32 gb

molecule  {
0 1
 Cl        0.2076870     2.2487580     0.1866360
  O        2.2653220     0.2846580    -0.8778020
  C        0.1642190    -0.4887810    -0.0665560
  C       -0.5639880     0.7211043     0.0320017
  C       -0.5420740    -1.7002010    -0.1332520
  C        1.6632570    -0.5094160    -0.1597980
  C       -1.9684630     0.6780340     0.0679080
  C       -1.9349490    -1.7304420    -0.1201220
  C       -2.6487990    -0.5355840    -0.0206560
  C        2.3930500    -1.5536810     0.6569590
  H        0.0096830    -2.6331730    -0.2140200
  H       -2.5123770     1.6138940     0.1595600
  H       -2.4587670    -2.6802070    -0.1882350
  H       -3.7356500    -0.5434820    -0.0013820
  H        2.2064120    -2.5587800     0.2654600
  H        2.0546340    -1.5354670     1.6969810
  H        3.4631710    -1.3484660     0.6031360
units angstrom
no_reorient  #important for SAPT in psi4, default
symmetry c1  #important for SAPT in psi4, default
}

set PROPERTIES_ORIGIN ["COM"]
properties('MP2/aug-cc-pvtz', properties = ['dipole'])
--------------------------------------------------------------------------

    Molecular point group: c1
  Charge       = 0
  Multiplicity = 1
  Basis Set: AUG-CC-PVTZ
    Blend: AUG-CC-PVTZ
  Basis Set: (AUG-CC-PVTZ AUX)
    Blend: AUG-CC-PVTZ-JKFIT

    Orbital Energies [Eh]
    ---------------------

    Doubly Occupied:

       1A   -104.843525     2A    -20.552837     3A    -11.345513
       4A    -11.321153     5A    -11.270817     6A    -11.266853
       7A    -11.263399     8A    -11.260312     9A    -11.257532
      10A    -11.242597    11A    -10.567588    12A     -8.034533
      13A     -8.032510    14A     -8.032450    15A     -1.383719
      16A     -1.199529    17A     -1.130266    18A     -1.065121
      19A     -1.012262    20A     -0.998554    21A     -0.875050
      22A     -0.836785    23A     -0.770443    24A     -0.703801
      25A     -0.668244    26A     -0.663762    27A     -0.633106
      28A     -0.621386    29A     -0.604551    30A     -0.594347
      31A     -0.563977    32A     -0.551913    33A     -0.535609
      34A     -0.526686    35A     -0.497579    36A     -0.475119
      37A     -0.459497    38A     -0.419051    39A     -0.361051
      40A     -0.341893

  @DF-RHF Final Energy:  -841.52598083731607

   => Energetics <=

    Nuclear Repulsion Energy =            563.6187778030034679
    One-Electron Energy =               -2272.7196780797480642
    Two-Electron Energy =                 867.5749194394285269
    Total Energy =                       -841.5259808373160695
  Basis Set: (AUG-CC-PVTZ AUX)
    Blend: AUG-CC-PVTZ-RI
    Molecular point group: c1

    Geometry (in Angstrom), charge = 0, multiplicity = 1:

       Center              X                  Y                   Z               Mass
    ------------   -----------------  -----------------  -----------------  -----------------
         CL           0.199488395240     2.170842086355     0.200247601610    34.968852682000
         O            2.257123395240     0.206742086355    -0.864190398390    15.994914619570
         C            0.156020395240    -0.566696913645    -0.052944398390    12.000000000000
         C           -0.572186604760     0.643188386355     0.045613301610    12.000000000000
         C           -0.550272604760    -1.778116913645    -0.119640398390    12.000000000000
         C            1.655058395240    -0.587331913645    -0.146186398390    12.000000000000
         C           -1.976661604760     0.600118086355     0.081519601610    12.000000000000
         C           -1.943147604760    -1.808357913645    -0.106510398390    12.000000000000
         C           -2.656997604760    -0.613499913645    -0.007044398390    12.000000000000
         C            2.384851395240    -1.631596913645     0.670570601610    12.000000000000
         H            0.001484395240    -2.711088913645    -0.200408398390     1.007825032230
         H           -2.520575604760     1.535978086355     0.173171601610     1.007825032230
         H           -2.466965604760    -2.758122913645    -0.174623398390     1.007825032230
         H           -3.743848604760    -0.621397913645     0.012229601610     1.007825032230
         H            2.198213395240    -2.636695913645     0.279071601610     1.007825032230
         H            2.046435395240    -1.613382913645     1.710592601610     1.007825032230
         H            3.454972395240    -1.426381913645     0.616747601610     1.007825032230

  Basis Set: AUG-CC-PVTZ
    Blend: AUG-CC-PVTZ
  Basis Set: (AUG-CC-PVTZ AUX)
    Blend: AUG-CC-PVTZ-JKFIT
	 Reference Energy          =    -841.5259808373160695 [Eh]
	 Singles Energy            =      -0.0000000000000000 [Eh]
	 Same-Spin Energy          =      -0.4744421813178875 [Eh]
	 Opposite-Spin Energy      =      -1.4493719899831763 [Eh]
	 Correlation Energy        =      -1.9238141713010637 [Eh]
	 Total Energy              =    -843.4497950086171159 [Eh]

	 ================> DF-SCS-MP2 Energies <==================
	-----------------------------------------------------------
	 SCS Same-Spin Scale       =       0.3333333333333333 [-]
	 SCS Opposite-Spin Scale   =       1.2000000000000000 [-]
	 SCS Same-Spin Energy      =      -0.1581473937726292 [Eh]
	 SCS Opposite-Spin Energy  =      -1.7392463879798115 [Eh]
	 SCS Correlation Energy    =      -1.8973937817524407 [Eh]
	 SCS Total Energy          =    -843.4233746190684542 [Eh]
	-----------------------------------------------------------

  Dipole Moment: [D]
     X:    -2.1733      Y:    -2.8976      Z:     1.4375     Total:     3.8969

*** Psi4 exiting successfully. Buy a developer a beer!
