                               Psi4 1.4a3.dev225

  ==> Input File <==

--------------------------------------------------------------------------
#psi4
#
memory 32 gb

molecule  {
0 1
 Cl        0.2076870     2.2487580     0.1866360
  O        2.2653220     0.2846580    -0.8778020
  C        0.1642190    -0.4887810    -0.0665560
  C       -0.5729690     0.7033250     0.0302020
  C       -0.5420740    -1.7002010    -0.1332520
  C        1.6632570    -0.5094160    -0.1597980
  C       -1.9684630     0.6780340     0.0679080
  C       -1.9349490    -1.7304420    -0.1201220
  C       -2.6487990    -0.5355840    -0.0206560
  C        2.3930500    -1.5536810     0.6569590
  H        0.0096830    -2.6331730    -0.2140200
  H       -2.5123770     1.6138940     0.1595600
  H       -2.4587670    -2.6802070    -0.1882350
  H       -3.6356684    -0.5427554    -0.0031551
  H        2.2064120    -2.5587800     0.2654600
  H        2.0546340    -1.5354670     1.6969810
  H        3.4631710    -1.3484660     0.6031360
units angstrom
no_reorient  #important for SAPT in psi4, default
symmetry c1  #important for SAPT in psi4, default
}

set PROPERTIES_ORIGIN ["COM"]
properties('MP2/aug-cc-pvtz', properties = ['dipole'])
--------------------------------------------------------------------------

    Molecular point group: c1
  Charge       = 0
  Multiplicity = 1
  Basis Set: AUG-CC-PVTZ
    Blend: AUG-CC-PVTZ
  Basis Set: (AUG-CC-PVTZ AUX)
    Blend: AUG-CC-PVTZ-JKFIT

    Orbital Energies [Eh]
    ---------------------

    Doubly Occupied:

       1A   -104.840887     2A    -20.553185     3A    -11.346121
       4A    -11.319913     5A    -11.270345     6A    -11.266885
       7A    -11.259596     8A    -11.257480     9A    -11.251913
      10A    -11.242939    11A    -10.564670    12A     -8.031567
      13A     -8.029609    14A     -8.029553    15A     -1.383961
      16A     -1.199389    17A     -1.127108    18A     -1.068540
      19A     -1.013013    20A     -1.000696    21A     -0.882955
      22A     -0.838351    23A     -0.773111    24A     -0.712233
      25A     -0.672269    26A     -0.667479    27A     -0.634438
      28A     -0.621584    29A     -0.604219    30A     -0.593494
      31A     -0.566762    32A     -0.554195    33A     -0.539392
      34A     -0.524125    35A     -0.497569    36A     -0.473269
      37A     -0.457711    38A     -0.419762    39A     -0.361591
      40A     -0.344006

  @DF-RHF Final Energy:  -841.52103201028126

   => Energetics <=

    Nuclear Repulsion Energy =            564.1811771888493467
    One-Electron Energy =               -2273.8126447855038350
    Two-Electron Energy =                 868.1104355863733417
    Total Energy =                       -841.5210320102812602
  Basis Set: (AUG-CC-PVTZ AUX)
    Blend: AUG-CC-PVTZ-RI
    Molecular point group: c1

    Geometry (in Angstrom), charge = 0, multiplicity = 1:

       Center              X                  Y                   Z               Mass
    ------------   -----------------  -----------------  -----------------  -----------------
         CL           0.199533896520     2.172222565035     0.200399423424    34.968852682000
         O            2.257168896520     0.208122565035    -0.864038576576    15.994914619570
         C            0.156065896520    -0.565316434965    -0.052792576576    12.000000000000
         C           -0.581122103480     0.626789565035     0.043965423424    12.000000000000
         C           -0.550227103480    -1.776736434965    -0.119488576576    12.000000000000
         C            1.655103896520    -0.585951434965    -0.146034576576    12.000000000000
         C           -1.976616103480     0.601498565035     0.081671423424    12.000000000000
         C           -1.943102103480    -1.806977434965    -0.106358576576    12.000000000000
         C           -2.656952103480    -0.612119434965    -0.006892576576    12.000000000000
         C            2.384896896520    -1.630216434965     0.670722423424    12.000000000000
         H            0.001529896520    -2.709708434965    -0.200256576576     1.007825032230
         H           -2.520530103480     1.537358565035     0.173323423424     1.007825032230
         H           -2.466920103480    -2.756742434965    -0.174471576576     1.007825032230
         H           -3.643821503480    -0.619290834965     0.010608323424     1.007825032230
         H            2.198258896520    -2.635315434965     0.279223423424     1.007825032230
         H            2.046480896520    -1.612002434965     1.710744423424     1.007825032230
         H            3.455017896520    -1.425001434965     0.616899423424     1.007825032230

  Basis Set: AUG-CC-PVTZ
    Blend: AUG-CC-PVTZ
  Basis Set: (AUG-CC-PVTZ AUX)
    Blend: AUG-CC-PVTZ-JKFIT
	 Reference Energy          =    -841.5210320102812602 [Eh]
	 Singles Energy            =      -0.0000000000000000 [Eh]
	 Same-Spin Energy          =      -0.4740886398318789 [Eh]
	 Opposite-Spin Energy      =      -1.4486286651699736 [Eh]
	 Correlation Energy        =      -1.9227173050018525 [Eh]
	 Total Energy              =    -843.4437493152830712 [Eh]

	 ================> DF-SCS-MP2 Energies <==================
	-----------------------------------------------------------
	 SCS Same-Spin Scale       =       0.3333333333333333 [-]
	 SCS Opposite-Spin Scale   =       1.2000000000000000 [-]
	 SCS Same-Spin Energy      =      -0.1580295466106263 [Eh]
	 SCS Opposite-Spin Energy  =      -1.7383543982039682 [Eh]
	 SCS Correlation Energy    =      -1.8963839448145945 [Eh]
	 SCS Total Energy          =    -843.4174159550958620 [Eh]
	-----------------------------------------------------------

  Dipole Moment: [D]
     X:    -2.2252      Y:    -2.9946      Z:     1.4272     Total:     3.9945

*** Psi4 exiting successfully. Buy a developer a beer!
