                               Psi4 1.4a3.dev225

  ==> Input File <==

--------------------------------------------------------------------------
#psi4
#
memory 32 gb

molecule  {
0 1
 Cl        0.2076870     2.2487580     0.1866360
  O        2.2653220     0.2846580    -0.8778020
  C        0.1642190    -0.4887810    -0.0665560
  C       -0.5729690     0.7033250     0.0302020
  C       -0.5420740    -1.7002010    -0.1332520
  C        1.6632570    -0.5094160    -0.1597980
  C       -1.9684630     0.6780340     0.0679080
  C       -1.9349490    -1.7304420    -0.1201220
  C       -2.6487990    -0.5355840    -0.0206560
  C        2.3930500    -1.5536810     0.6569590
  H        0.0096830    -2.6331730    -0.2140200
  H       -2.5624467     1.7000441     0.1679970
  H       -2.4587670    -2.6802070    -0.1882350
  H       -3.7356500    -0.5434820    -0.0013820
  H        2.2064120    -2.5587800     0.2654600
  H        2.0546340    -1.5354670     1.6969810
  H        3.4631710    -1.3484660     0.6031360
units angstrom
no_reorient  #important for SAPT in psi4, default
symmetry c1  #important for SAPT in psi4, default
}

set PROPERTIES_ORIGIN ["COM"]
properties('MP2/aug-cc-pvtz', properties = ['dipole'])
--------------------------------------------------------------------------

    Molecular point group: c1
  Charge       = 0
  Multiplicity = 1
  Basis Set: AUG-CC-PVTZ
    Blend: AUG-CC-PVTZ
  Basis Set: (AUG-CC-PVTZ AUX)
    Blend: AUG-CC-PVTZ-JKFIT

    Orbital Energies [Eh]
    ---------------------

    Doubly Occupied:

       1A   -104.841045     2A    -20.553537     3A    -11.346547
       4A    -11.321171     5A    -11.271085     6A    -11.270822
       7A    -11.267640     8A    -11.264484     9A    -11.258552
      10A    -11.243257    11A    -10.564821    12A     -8.031716
      13A     -8.029753    14A     -8.029697    15A     -1.384304
      16A     -1.199289    17A     -1.126888    18A     -1.065628
      19A     -1.011441    20A     -1.000061    21A     -0.875533
      22A     -0.834544    23A     -0.769228    24A     -0.702888
      25A     -0.668937    26A     -0.662873    27A     -0.627447
      28A     -0.619370    29A     -0.603040    30A     -0.591569
      31A     -0.564559    32A     -0.551505    33A     -0.534267
      34A     -0.520777    35A     -0.497348    36A     -0.473690
      37A     -0.457600    38A     -0.420065    39A     -0.362194
      40A     -0.344740

  @DF-RHF Final Energy:  -841.51932952261632

   => Energetics <=

    Nuclear Repulsion Energy =            563.1114518667919810
    One-Electron Energy =               -2271.7337399101193114
    Two-Electron Energy =                 867.1029585207111268
    Total Energy =                       -841.5193295226163173
  Basis Set: (AUG-CC-PVTZ AUX)
    Blend: AUG-CC-PVTZ-RI
    Molecular point group: c1

    Geometry (in Angstrom), charge = 0, multiplicity = 1:

       Center              X                  Y                   Z               Mass
    ------------   -----------------  -----------------  -----------------  -----------------
         CL           0.200515761779     2.171663593757     0.200332613323    34.968852682000
         O            2.258150761779     0.207563593757    -0.864105386677    15.994914619570
         C            0.157047761779    -0.565875406243    -0.052859386677    12.000000000000
         C           -0.580140238221     0.626230593757     0.043898613323    12.000000000000
         C           -0.549245238221    -1.777295406243    -0.119555386677    12.000000000000
         C            1.656085761779    -0.586510406243    -0.146101386677    12.000000000000
         C           -1.975634238221     0.600939593757     0.081604613323    12.000000000000
         C           -1.942120238221    -1.807536406243    -0.106425386677    12.000000000000
         C           -2.655970238221    -0.612678406243    -0.006959386677    12.000000000000
         C            2.385878761779    -1.630775406243     0.670655613323    12.000000000000
         H            0.002511761779    -2.710267406243    -0.200323386677     1.007825032230
         H           -2.569617938221     1.622949693757     0.181693613323     1.007825032230
         H           -2.465938238221    -2.757301406243    -0.174538386677     1.007825032230
         H           -3.742821238221    -0.620576406243     0.012314613323     1.007825032230
         H            2.199240761779    -2.635874406243     0.279156613323     1.007825032230
         H            2.047462761779    -1.612561406243     1.710677613323     1.007825032230
         H            3.455999761779    -1.425560406243     0.616832613323     1.007825032230

  Basis Set: AUG-CC-PVTZ
    Blend: AUG-CC-PVTZ
  Basis Set: (AUG-CC-PVTZ AUX)
    Blend: AUG-CC-PVTZ-JKFIT
	 Reference Energy          =    -841.5193295226163173 [Eh]
	 Singles Energy            =      -0.0000000000000000 [Eh]
	 Same-Spin Energy          =      -0.4745283218571479 [Eh]
	 Opposite-Spin Energy      =      -1.4500597153123291 [Eh]
	 Correlation Energy        =      -1.9245880371694770 [Eh]
	 Total Energy              =    -843.4439175597857457 [Eh]

	 ================> DF-SCS-MP2 Energies <==================
	-----------------------------------------------------------
	 SCS Same-Spin Scale       =       0.3333333333333333 [-]
	 SCS Opposite-Spin Scale   =       1.2000000000000000 [-]
	 SCS Same-Spin Energy      =      -0.1581761072857160 [Eh]
	 SCS Opposite-Spin Energy  =      -1.7400716583747948 [Eh]
	 SCS Correlation Energy    =      -1.8982477656605108 [Eh]
	 SCS Total Energy          =    -843.4175772882767887 [Eh]
	-----------------------------------------------------------

  Dipole Moment: [D]
     X:    -2.1951      Y:    -2.9999      Z:     1.4265     Total:     3.9816

*** Psi4 exiting successfully. Buy a developer a beer!
