                               Psi4 1.4a3.dev225

  ==> Input File <==

--------------------------------------------------------------------------
#psi4
#
memory 32 gb

molecule  {
0 1
 Cl        0.2076870     2.2487580     0.1866360
  O        2.2653220     0.2846580    -0.8778020
  C        0.1642190    -0.4887810    -0.0665560
  C       -0.5729690     0.7033250     0.0302020
  C       -0.5420740    -1.7002010    -0.1332520
  C        1.6632570    -0.5094160    -0.1597980
  C       -1.9684630     0.6780340     0.0679080
  C       -1.9349490    -1.7304420    -0.1201220
  C       -2.6487990    -0.5355840    -0.0206560
  C        2.3930500    -1.5536810     0.6569590
  H        0.0096830    -2.6331730    -0.2140200
  H       -2.5123770     1.6138940     0.1595600
  H       -2.4587670    -2.6802070    -0.1882350
  H       -3.5356867    -0.5420289    -0.0049281
  H        2.2064120    -2.5587800     0.2654600
  H        2.0546340    -1.5354670     1.6969810
  H        3.4631710    -1.3484660     0.6031360
units angstrom
no_reorient  #important for SAPT in psi4, default
symmetry c1  #important for SAPT in psi4, default
}

set PROPERTIES_ORIGIN ["COM"]
properties('MP2/aug-cc-pvtz', properties = ['dipole'])
--------------------------------------------------------------------------

    Molecular point group: c1
  Charge       = 0
  Multiplicity = 1
  Basis Set: AUG-CC-PVTZ
    Blend: AUG-CC-PVTZ
  Basis Set: (AUG-CC-PVTZ AUX)
    Blend: AUG-CC-PVTZ-JKFIT

    Orbital Energies [Eh]
    ---------------------

    Doubly Occupied:

       1A   -104.840656     2A    -20.553154     3A    -11.346074
       4A    -11.319559     5A    -11.270330     6A    -11.266514
       7A    -11.259230     8A    -11.257082     9A    -11.242886
      10A    -11.240247    11A    -10.564446    12A     -8.031342
      13A     -8.029387    14A     -8.029331    15A     -1.383921
      16A     -1.199652    17A     -1.128056    18A     -1.071899
      19A     -1.013185    20A     -1.002052    21A     -0.892520
      22A     -0.838928    23A     -0.775274    24A     -0.722855
      25A     -0.676980    26A     -0.667697    27A     -0.634449
      28A     -0.621530    29A     -0.604574    30A     -0.593341
      31A     -0.569690    32A     -0.555587    33A     -0.540922
      34A     -0.523935    35A     -0.497483    36A     -0.473079
      37A     -0.457583    38A     -0.419770    39A     -0.361531
      40A     -0.343762

  @DF-RHF Final Energy:  -841.49211753349095

   => Energetics <=

    Nuclear Repulsion Energy =            564.8244046181029034
    One-Electron Energy =               -2274.9920566034520562
    Two-Electron Energy =                 868.6755344518580841
    Total Energy =                       -841.4921175334909549
  Basis Set: (AUG-CC-PVTZ AUX)
    Blend: AUG-CC-PVTZ-RI
    Molecular point group: c1

    Geometry (in Angstrom), charge = 0, multiplicity = 1:

       Center              X                  Y                   Z               Mass
    ------------   -----------------  -----------------  -----------------  -----------------
         CL           0.198879663215     2.172217811161     0.200411025104    34.968852682000
         O            2.256514663215     0.208117811161    -0.864026974896    15.994914619570
         C            0.155411663215    -0.565321188839    -0.052780974896    12.000000000000
         C           -0.581776336785     0.626784811161     0.043977025104    12.000000000000
         C           -0.550881336785    -1.776741188839    -0.119476974896    12.000000000000
         C            1.654449663215    -0.585956188839    -0.146022974896    12.000000000000
         C           -1.977270336785     0.601493811161     0.081683025104    12.000000000000
         C           -1.943756336785    -1.806982188839    -0.106346974896    12.000000000000
         C           -2.657606336785    -0.612124188839    -0.006880974896    12.000000000000
         C            2.384242663215    -1.630221188839     0.670734025104    12.000000000000
         H            0.000875663215    -2.709713188839    -0.200244974896     1.007825032230
         H           -2.521184336785     1.537353811161     0.173335025104     1.007825032230
         H           -2.467574336785    -2.756747188839    -0.174459974896     1.007825032230
         H           -3.544494036785    -0.618569088839     0.008846925104     1.007825032230
         H            2.197604663215    -2.635320188839     0.279235025104     1.007825032230
         H            2.045826663215    -1.612007188839     1.710756025104     1.007825032230
         H            3.454363663215    -1.425006188839     0.616911025104     1.007825032230

  Basis Set: AUG-CC-PVTZ
    Blend: AUG-CC-PVTZ
  Basis Set: (AUG-CC-PVTZ AUX)
    Blend: AUG-CC-PVTZ-JKFIT
	 Reference Energy          =    -841.4921175334909549 [Eh]
	 Singles Energy            =      -0.0000000000000000 [Eh]
	 Same-Spin Energy          =      -0.4740631265782751 [Eh]
	 Opposite-Spin Energy      =      -1.4486405025582645 [Eh]
	 Correlation Energy        =      -1.9227036291365396 [Eh]
	 Total Energy              =    -843.4148211626275042 [Eh]

	 ================> DF-SCS-MP2 Energies <==================
	-----------------------------------------------------------
	 SCS Same-Spin Scale       =       0.3333333333333333 [-]
	 SCS Opposite-Spin Scale   =       1.2000000000000000 [-]
	 SCS Same-Spin Energy      =      -0.1580210421927584 [Eh]
	 SCS Opposite-Spin Energy  =      -1.7383686030699173 [Eh]
	 SCS Correlation Energy    =      -1.8963896452626756 [Eh]
	 SCS Total Energy          =    -843.3885071787536845 [Eh]
	-----------------------------------------------------------

  Dipole Moment: [D]
     X:    -2.2285      Y:    -2.9968      Z:     1.4269     Total:     3.9979

*** Psi4 exiting successfully. Buy a developer a beer!
