                               Psi4 1.4a3.dev225

  ==> Input File <==

--------------------------------------------------------------------------
#psi4
#
memory 32 gb

molecule  {
0 1
 Cl        0.2076870     2.2487580     0.1866360
  O        2.2653220     0.2846580    -0.8778020
  C        0.1642190    -0.4887810    -0.0665560
  C       -0.5729690     0.7033250     0.0302020
  C       -0.5420740    -1.7002010    -0.1332520
  C        1.6632570    -0.5094160    -0.1597980
  C       -1.9684630     0.6780340     0.0679080
  C       -1.9242773    -1.8754144    -0.1318344
  C       -2.6487990    -0.5355840    -0.0206560
  C        2.3930500    -1.5536810     0.6569590
  H        0.0096830    -2.6331730    -0.2140200
  H       -2.5123770     1.6138940     0.1595600
  H       -2.4587670    -2.6802070    -0.1882350
  H       -3.7356500    -0.5434820    -0.0013820
  H        2.2064120    -2.5587800     0.2654600
  H        2.0546340    -1.5354670     1.6969810
  H        3.4631710    -1.3484660     0.6031360
units angstrom
no_reorient  #important for SAPT in psi4, default
symmetry c1  #important for SAPT in psi4, default
}

set PROPERTIES_ORIGIN ["COM"]
properties('MP2/aug-cc-pvtz', properties = ['dipole'])
--------------------------------------------------------------------------

    Molecular point group: c1
  Charge       = 0
  Multiplicity = 1
  Basis Set: AUG-CC-PVTZ
    Blend: AUG-CC-PVTZ
  Basis Set: (AUG-CC-PVTZ AUX)
    Blend: AUG-CC-PVTZ-JKFIT

    Orbital Energies [Eh]
    ---------------------

    Doubly Occupied:

       1A   -104.843720     2A    -20.552783     3A    -11.346393
       4A    -11.325100     5A    -11.277862     6A    -11.270342
       7A    -11.269120     8A    -11.262209     9A    -11.260411
      10A    -11.242123    11A    -10.567474    12A     -8.034358
      13A     -8.032407    14A     -8.032341    15A     -1.383674
      16A     -1.195910    17A     -1.121562    18A     -1.060052
      19A     -1.018006    20A     -0.997359    21A     -0.870117
      22A     -0.843039    23A     -0.782685    24A     -0.704042
      25A     -0.668866    26A     -0.662732    27A     -0.637283
      28A     -0.622166    29A     -0.617648    30A     -0.595596
      31A     -0.561570    32A     -0.547259    33A     -0.540390
      34A     -0.511926    35A     -0.494097    36A     -0.468596
      37A     -0.459249    38A     -0.420223    39A     -0.363597
      40A     -0.338240

  @DF-RHF Final Energy:  -841.49775748064121

   => Energetics <=

    Nuclear Repulsion Energy =            561.3783628602121780
    One-Electron Energy =               -2268.1471917421640683
    Two-Electron Energy =                 865.2710714013105644
    Total Energy =                       -841.4977574806412122
  Basis Set: (AUG-CC-PVTZ AUX)
    Blend: AUG-CC-PVTZ-RI
    Molecular point group: c1

    Geometry (in Angstrom), charge = 0, multiplicity = 1:

       Center              X                  Y                   Z               Mass
    ------------   -----------------  -----------------  -----------------  -----------------
         CL           0.199356668244     2.183522510205     0.201300365760    34.968852682000
         O            2.256991668244     0.219422510205    -0.863137634240    15.994914619570
         C            0.155888668244    -0.554016489795    -0.051891634240    12.000000000000
         C           -0.581299331756     0.638089510205     0.044866365760    12.000000000000
         C           -0.550404331756    -1.765436489795    -0.118587634240    12.000000000000
         C            1.654926668244    -0.574651489795    -0.145133634240    12.000000000000
         C           -1.976793331756     0.612798510205     0.082572365760    12.000000000000
         C           -1.932607631756    -1.940649889795    -0.117170034240    12.000000000000
         C           -2.657129331756    -0.600819489795    -0.005991634240    12.000000000000
         C            2.384719668244    -1.618916489795     0.671623365760    12.000000000000
         H            0.001352668244    -2.698408489795    -0.199355634240     1.007825032230
         H           -2.520707331756     1.548658510205     0.174224365760     1.007825032230
         H           -2.467097331756    -2.745442489795    -0.173570634240     1.007825032230
         H           -3.743980331756    -0.608717489795     0.013282365760     1.007825032230
         H            2.198081668244    -2.624015489795     0.280124365760     1.007825032230
         H            2.046303668244    -1.600702489795     1.711645365760     1.007825032230
         H            3.454840668244    -1.413701489795     0.617800365760     1.007825032230

  Basis Set: AUG-CC-PVTZ
    Blend: AUG-CC-PVTZ
  Basis Set: (AUG-CC-PVTZ AUX)
    Blend: AUG-CC-PVTZ-JKFIT
	 Reference Energy          =    -841.4977574806412122 [Eh]
	 Singles Energy            =      -0.0000000000000000 [Eh]
	 Same-Spin Energy          =      -0.4743306728737332 [Eh]
	 Opposite-Spin Energy      =      -1.4512835365048349 [Eh]
	 Correlation Energy        =      -1.9256142093785682 [Eh]
	 Total Energy              =    -843.4233716900197351 [Eh]

	 ================> DF-SCS-MP2 Energies <==================
	-----------------------------------------------------------
	 SCS Same-Spin Scale       =       0.3333333333333333 [-]
	 SCS Opposite-Spin Scale   =       1.2000000000000000 [-]
	 SCS Same-Spin Energy      =      -0.1581102242912444 [Eh]
	 SCS Opposite-Spin Energy  =      -1.7415402438058019 [Eh]
	 SCS Correlation Energy    =      -1.8996504680970463 [Eh]
	 SCS Total Energy          =    -843.3974079487383051 [Eh]
	-----------------------------------------------------------

  Dipole Moment: [D]
     X:    -2.2152      Y:    -2.9712      Z:     1.4249     Total:     3.9706

*** Psi4 exiting successfully. Buy a developer a beer!
