                               Psi4 1.4a3.dev225

  ==> Input File <==

--------------------------------------------------------------------------
#psi4
#
memory 32 gb

molecule  {
0 1
 Cl        0.2076870     2.2487580     0.1866360
  O        2.2653220     0.2846580    -0.8778020
  C        0.1642190    -0.4887810    -0.0665560
  C       -0.5729690     0.7033250     0.0302020
  C       -0.5420740    -1.7002010    -0.1332520
  C        1.6536562    -0.5285548    -0.1752623
  C       -1.9684630     0.6780340     0.0679080
  C       -1.9349490    -1.7304420    -0.1201220
  C       -2.6487990    -0.5355840    -0.0206560
  C        2.3930500    -1.5536810     0.6569590
  H        0.0096830    -2.6331730    -0.2140200
  H       -2.5123770     1.6138940     0.1595600
  H       -2.4587670    -2.6802070    -0.1882350
  H       -3.7356500    -0.5434820    -0.0013820
  H        2.2064120    -2.5587800     0.2654600
  H        2.0546340    -1.5354670     1.6969810
  H        3.4631710    -1.3484660     0.6031360
units angstrom
no_reorient  #important for SAPT in psi4, default
symmetry c1  #important for SAPT in psi4, default
}

set PROPERTIES_ORIGIN ["COM"]
properties('MP2/aug-cc-pvtz', properties = ['dipole'])
--------------------------------------------------------------------------

    Molecular point group: c1
  Charge       = 0
  Multiplicity = 1
  Basis Set: AUG-CC-PVTZ
    Blend: AUG-CC-PVTZ
  Basis Set: (AUG-CC-PVTZ AUX)
    Blend: AUG-CC-PVTZ-JKFIT

    Orbital Energies [Eh]
    ---------------------

    Doubly Occupied:

       1A   -104.841297     2A    -20.552339     3A    -11.346412
       4A    -11.321332     5A    -11.270684     6A    -11.267821
       7A    -11.264597     8A    -11.260581     9A    -11.258288
      10A    -11.243298    11A    -10.565054    12A     -8.031950
      13A     -8.029988    14A     -8.029931    15A     -1.378257
      16A     -1.199953    17A     -1.127084    18A     -1.067789
      19A     -1.013382    20A     -0.999987    21A     -0.877332
      22A     -0.839057    23A     -0.772380    24A     -0.703991
      25A     -0.669336    26A     -0.663492    27A     -0.634075
      28A     -0.619748    29A     -0.604102    30A     -0.593730
      31A     -0.564549    32A     -0.552140    33A     -0.536150
      34A     -0.524441    35A     -0.495103    36A     -0.473609
      37A     -0.457720    38A     -0.420197    39A     -0.362316
      40A     -0.344750

  @DF-RHF Final Energy:  -841.52547497307296

   => Energetics <=

    Nuclear Repulsion Energy =            563.5625782982502869
    One-Electron Energy =               -2272.6196203699746547
    Two-Electron Energy =                 867.5315670986515215
    Total Energy =                       -841.5254749730729600
  Basis Set: (AUG-CC-PVTZ AUX)
    Blend: AUG-CC-PVTZ-RI
    Molecular point group: c1

    Geometry (in Angstrom), charge = 0, multiplicity = 1:

       Center              X                  Y                   Z               Mass
    ------------   -----------------  -----------------  -----------------  -----------------
         CL           0.200936153389     2.173718475086     0.201592686407    34.968852682000
         O            2.258571153389     0.209618475086    -0.862845313593    15.994914619570
         C            0.157468153389    -0.563820524914    -0.051599313593    12.000000000000
         C           -0.579719846611     0.628285475086     0.045158686407    12.000000000000
         C           -0.548824846611    -1.775240524914    -0.118295313593    12.000000000000
         C            1.646905353389    -0.603594324914    -0.160305613593    12.000000000000
         C           -1.975213846611     0.602994475086     0.082864686407    12.000000000000
         C           -1.941699846611    -1.805481524914    -0.105165313593    12.000000000000
         C           -2.655549846611    -0.610623524914    -0.005699313593    12.000000000000
         C            2.386299153389    -1.628720524914     0.671915686407    12.000000000000
         H            0.002932153389    -2.708212524914    -0.199063313593     1.007825032230
         H           -2.519127846611     1.538854475086     0.174516686407     1.007825032230
         H           -2.465517846611    -2.755246524914    -0.173278313593     1.007825032230
         H           -3.742400846611    -0.618521524914     0.013574686407     1.007825032230
         H            2.199661153389    -2.633819524914     0.280416686407     1.007825032230
         H            2.047883153389    -1.610506524914     1.711937686407     1.007825032230
         H            3.456420153389    -1.423505524914     0.618092686407     1.007825032230

  Basis Set: AUG-CC-PVTZ
    Blend: AUG-CC-PVTZ
  Basis Set: (AUG-CC-PVTZ AUX)
    Blend: AUG-CC-PVTZ-JKFIT
	 Reference Energy          =    -841.5254749730729600 [Eh]
	 Singles Energy            =      -0.0000000000000000 [Eh]
	 Same-Spin Energy          =      -0.4745150021881087 [Eh]
	 Opposite-Spin Energy      =      -1.4497456836984131 [Eh]
	 Correlation Energy        =      -1.9242606858865217 [Eh]
	 Total Energy              =    -843.4497356589595256 [Eh]

	 ================> DF-SCS-MP2 Energies <==================
	-----------------------------------------------------------
	 SCS Same-Spin Scale       =       0.3333333333333333 [-]
	 SCS Opposite-Spin Scale   =       1.2000000000000000 [-]
	 SCS Same-Spin Energy      =      -0.1581716673960362 [Eh]
	 SCS Opposite-Spin Energy  =      -1.7396948204380955 [Eh]
	 SCS Correlation Energy    =      -1.8978664878341318 [Eh]
	 SCS Total Energy          =    -843.4233414609070678 [Eh]
	-----------------------------------------------------------

  Dipole Moment: [D]
     X:    -2.2645      Y:    -3.0050      Z:     1.4326     Total:     4.0262

*** Psi4 exiting successfully. Buy a developer a beer!
