                               Psi4 1.4a3.dev225

  ==> Input File <==

--------------------------------------------------------------------------
#psi4
#
memory 32 gb

molecule  {
0 1
 Cl        0.2076870     2.2487580     0.1866360
  O        2.2653220     0.2846580    -0.8778020
  C        0.1642190    -0.4887810    -0.0665560
  C       -0.5729690     0.7033250     0.0302020
  C       -0.5420740    -1.7002010    -0.1332520
  C        1.6632570    -0.5094160    -0.1597980
  C       -1.9684630     0.6780340     0.0679080
  C       -1.9349490    -1.7304420    -0.1201220
  C       -2.6902055    -0.5611844    -0.0222181
  C        2.3930500    -1.5536810     0.6569590
  H        0.0096830    -2.6331730    -0.2140200
  H       -2.5123770     1.6138940     0.1595600
  H       -2.4587670    -2.6802070    -0.1882350
  H       -3.7356500    -0.5434820    -0.0013820
  H        2.2064120    -2.5587800     0.2654600
  H        2.0546340    -1.5354670     1.6969810
  H        3.4631710    -1.3484660     0.6031360
units angstrom
no_reorient  #important for SAPT in psi4, default
symmetry c1  #important for SAPT in psi4, default
}

set PROPERTIES_ORIGIN ["COM"]
properties('MP2/aug-cc-pvtz', properties = ['dipole'])
--------------------------------------------------------------------------

    Molecular point group: c1
  Charge       = 0
  Multiplicity = 1
  Basis Set: AUG-CC-PVTZ
    Blend: AUG-CC-PVTZ
  Basis Set: (AUG-CC-PVTZ AUX)
    Blend: AUG-CC-PVTZ-JKFIT

    Orbital Energies [Eh]
    ---------------------

    Doubly Occupied:

       1A   -104.840873     2A    -20.553681     3A    -11.346544
       4A    -11.319714     5A    -11.271605     6A    -11.267842
       7A    -11.265655     8A    -11.264366     9A    -11.258802
      10A    -11.243235    11A    -10.564642    12A     -8.031542
      13A     -8.029575    14A     -8.029523    15A     -1.384414
      16A     -1.196910    17A     -1.125623    18A     -1.064208
      19A     -1.010279    20A     -1.000704    21A     -0.880326
      22A     -0.835553    23A     -0.772222    24A     -0.706451
      25A     -0.669503    26A     -0.666405    27A     -0.632718
      28A     -0.621157    29A     -0.601420    30A     -0.593112
      31A     -0.567897    32A     -0.554618    33A     -0.539916
      34A     -0.518754    35A     -0.497436    36A     -0.472571
      37A     -0.457656    38A     -0.420182    39A     -0.357612
      40A     -0.345483

  @DF-RHF Final Energy:  -841.52328250398591

   => Energetics <=

    Nuclear Repulsion Energy =            562.7034346462502299
    One-Electron Energy =               -2270.8919792188239626
    Two-Electron Energy =                 866.6652620685879356
    Total Energy =                       -841.5232825039859108
  Basis Set: (AUG-CC-PVTZ AUX)
    Blend: AUG-CC-PVTZ-RI
    Molecular point group: c1

    Geometry (in Angstrom), charge = 0, multiplicity = 1:

       Center              X                  Y                   Z               Mass
    ------------   -----------------  -----------------  -----------------  -----------------
         CL           0.203414221248     2.174221915767     0.200509528514    34.968852682000
         O            2.261049221248     0.210121915767    -0.863928471486    15.994914619570
         C            0.159946221248    -0.563317084233    -0.052682471486    12.000000000000
         C           -0.577241778752     0.628788915767     0.044075528514    12.000000000000
         C           -0.546346778752    -1.774737084233    -0.119378471486    12.000000000000
         C            1.658984221248    -0.583952084233    -0.145924471486    12.000000000000
         C           -1.972735778752     0.603497915767     0.081781528514    12.000000000000
         C           -1.939221778752    -1.804978084233    -0.106248471486    12.000000000000
         C           -2.694478278752    -0.635720484233    -0.008344571486    12.000000000000
         C            2.388777221248    -1.628217084233     0.670832528514    12.000000000000
         H            0.005410221248    -2.707709084233    -0.200146471486     1.007825032230
         H           -2.516649778752     1.539357915767     0.173433528514     1.007825032230
         H           -2.463039778752    -2.754743084233    -0.174361471486     1.007825032230
         H           -3.739922778752    -0.618018084233     0.012491528514     1.007825032230
         H            2.202139221248    -2.633316084233     0.279333528514     1.007825032230
         H            2.050361221248    -1.610003084233     1.710854528514     1.007825032230
         H            3.458898221248    -1.423002084233     0.617009528514     1.007825032230

  Basis Set: AUG-CC-PVTZ
    Blend: AUG-CC-PVTZ
  Basis Set: (AUG-CC-PVTZ AUX)
    Blend: AUG-CC-PVTZ-JKFIT
	 Reference Energy          =    -841.5232825039859108 [Eh]
	 Singles Energy            =      -0.0000000000000000 [Eh]
	 Same-Spin Energy          =      -0.4742229414891733 [Eh]
	 Opposite-Spin Energy      =      -1.4495550105362971 [Eh]
	 Correlation Energy        =      -1.9237779520254703 [Eh]
	 Total Energy              =    -843.4470604560113998 [Eh]

	 ================> DF-SCS-MP2 Energies <==================
	-----------------------------------------------------------
	 SCS Same-Spin Scale       =       0.3333333333333333 [-]
	 SCS Opposite-Spin Scale   =       1.2000000000000000 [-]
	 SCS Same-Spin Energy      =      -0.1580743138297244 [Eh]
	 SCS Opposite-Spin Energy  =      -1.7394660126435564 [Eh]
	 SCS Correlation Energy    =      -1.8975403264732809 [Eh]
	 SCS Total Energy          =    -843.4208228304592012 [Eh]
	-----------------------------------------------------------

  Dipole Moment: [D]
     X:    -2.2150      Y:    -2.9911      Z:     1.4280     Total:     3.9865

*** Psi4 exiting successfully. Buy a developer a beer!
