                               Psi4 1.4a3.dev225

  ==> Input File <==

--------------------------------------------------------------------------
#psi4
#
memory 32 gb

molecule  {
0 1
 Cl        0.2076870     2.2487580     0.1866360
  O        2.2653220     0.2846580    -0.8778020
  C        0.1642190    -0.4887810    -0.0665560
  C       -0.5280641     0.7922214     0.0392004
  C       -0.5420740    -1.7002010    -0.1332520
  C        1.6632570    -0.5094160    -0.1597980
  C       -1.9684630     0.6780340     0.0679080
  C       -1.9349490    -1.7304420    -0.1201220
  C       -2.6487990    -0.5355840    -0.0206560
  C        2.3930500    -1.5536810     0.6569590
  H        0.0096830    -2.6331730    -0.2140200
  H       -2.5123770     1.6138940     0.1595600
  H       -2.4587670    -2.6802070    -0.1882350
  H       -3.7356500    -0.5434820    -0.0013820
  H        2.2064120    -2.5587800     0.2654600
  H        2.0546340    -1.5354670     1.6969810
  H        3.4631710    -1.3484660     0.6031360
units angstrom
no_reorient  #important for SAPT in psi4, default
symmetry c1  #important for SAPT in psi4, default
}

set PROPERTIES_ORIGIN ["COM"]
properties('MP2/aug-cc-pvtz', properties = ['dipole'])
--------------------------------------------------------------------------

    Molecular point group: c1
  Charge       = 0
  Multiplicity = 1
  Basis Set: AUG-CC-PVTZ
    Blend: AUG-CC-PVTZ
  Basis Set: (AUG-CC-PVTZ AUX)
    Blend: AUG-CC-PVTZ-JKFIT

    Orbital Energies [Eh]
    ---------------------

    Doubly Occupied:

       1A   -104.852082     2A    -20.550914     3A    -11.342593
       4A    -11.325113     5A    -11.272151     6A    -11.264886
       7A    -11.262144     8A    -11.260866     9A    -11.255462
      10A    -11.240747    11A    -10.577664    12A     -8.044839
      13A     -8.042503    14A     -8.042418    15A     -1.382204
      16A     -1.207502    17A     -1.140576    18A     -1.060351
      19A     -1.008351    20A     -0.992907    21A     -0.870058
      22A     -0.832389    23A     -0.764816    24A     -0.702798
      25A     -0.668383    26A     -0.663134    27A     -0.629659
      28A     -0.620620    29A     -0.608046    30A     -0.594339
      31A     -0.562880    32A     -0.553582    33A     -0.537886
      34A     -0.529726    35A     -0.496378    36A     -0.479062
      37A     -0.464236    38A     -0.415058    39A     -0.358104
      40A     -0.331251

  @DF-RHF Final Energy:  -841.51350174358902

   => Energetics <=

    Nuclear Repulsion Energy =            563.7117292131191562
    One-Electron Energy =               -2272.8331139319266185
    Two-Electron Energy =                 867.6078829752183310
    Total Energy =                       -841.5135017435890177
  Basis Set: (AUG-CC-PVTZ AUX)
    Blend: AUG-CC-PVTZ-RI
    Molecular point group: c1

    Geometry (in Angstrom), charge = 0, multiplicity = 1:

       Center              X                  Y                   Z               Mass
    ------------   -----------------  -----------------  -----------------  -----------------
         CL           0.196689467313     2.165301161308     0.199686731480    34.968852682000
         O            2.254324467313     0.201201161308    -0.864751268520    15.994914619570
         C            0.153221467313    -0.572237838692    -0.053505268520    12.000000000000
         C           -0.539061632687     0.708764561308     0.052251131480    12.000000000000
         C           -0.553071532687    -1.783657838692    -0.120201268520    12.000000000000
         C            1.652259467313    -0.592872838692    -0.146747268520    12.000000000000
         C           -1.979460532687     0.594577161308     0.080958731480    12.000000000000
         C           -1.945946532687    -1.813898838692    -0.107071268520    12.000000000000
         C           -2.659796532687    -0.619040838692    -0.007605268520    12.000000000000
         C            2.382052467313    -1.637137838692     0.670009731480    12.000000000000
         H           -0.001314532687    -2.716629838692    -0.200969268520     1.007825032230
         H           -2.523374532687     1.530437161308     0.172610731480     1.007825032230
         H           -2.469764532687    -2.763663838692    -0.175184268520     1.007825032230
         H           -3.746647532687    -0.626938838692     0.011668731480     1.007825032230
         H            2.195414467313    -2.642236838692     0.278510731480     1.007825032230
         H            2.043636467313    -1.618923838692     1.710031731480     1.007825032230
         H            3.452173467313    -1.431922838692     0.616186731480     1.007825032230

  Basis Set: AUG-CC-PVTZ
    Blend: AUG-CC-PVTZ
  Basis Set: (AUG-CC-PVTZ AUX)
    Blend: AUG-CC-PVTZ-JKFIT
	 Reference Energy          =    -841.5135017435890177 [Eh]
	 Singles Energy            =      -0.0000000000000000 [Eh]
	 Same-Spin Energy          =      -0.4757284132842140 [Eh]
	 Opposite-Spin Energy      =      -1.4509954275882233 [Eh]
	 Correlation Energy        =      -1.9267238408724374 [Eh]
	 Total Energy              =    -843.4402255844614729 [Eh]

	 ================> DF-SCS-MP2 Energies <==================
	-----------------------------------------------------------
	 SCS Same-Spin Scale       =       0.3333333333333333 [-]
	 SCS Opposite-Spin Scale   =       1.2000000000000000 [-]
	 SCS Same-Spin Energy      =      -0.1585761377614047 [Eh]
	 SCS Opposite-Spin Energy  =      -1.7411945131058679 [Eh]
	 SCS Correlation Energy    =      -1.8997706508672725 [Eh]
	 SCS Total Energy          =    -843.4132723944562713 [Eh]
	-----------------------------------------------------------

  Dipole Moment: [D]
     X:    -2.0455      Y:    -2.5235      Z:     1.4782     Total:     3.5689

*** Psi4 exiting successfully. Buy a developer a beer!
