                               Psi4 1.4a3.dev225

  ==> Input File <==

--------------------------------------------------------------------------
#psi4
#
memory 32 gb

molecule  {
0 1
 Cl        0.2076870     2.2487580     0.1866360
  O        2.2653220     0.2846580    -0.8778020
  C        0.1642190    -0.4887810    -0.0665560
  C       -0.5729690     0.7033250     0.0302020
  C       -0.5420740    -1.7002010    -0.1332520
  C        1.6632570    -0.5094160    -0.1597980
  C       -1.9684630     0.6780340     0.0679080
  C       -1.9295264    -1.8272254    -0.1279222
  C       -2.6487990    -0.5355840    -0.0206560
  C        2.3930500    -1.5536810     0.6569590
  H        0.0096830    -2.6331730    -0.2140200
  H       -2.5123770     1.6138940     0.1595600
  H       -2.4587670    -2.6802070    -0.1882350
  H       -3.7356500    -0.5434820    -0.0013820
  H        2.2064120    -2.5587800     0.2654600
  H        2.0546340    -1.5354670     1.6969810
  H        3.4631710    -1.3484660     0.6031360
units angstrom
no_reorient  #important for SAPT in psi4, default
symmetry c1  #important for SAPT in psi4, default
}

set PROPERTIES_ORIGIN ["COM"]
properties('MP2/aug-cc-pvtz', properties = ['dipole'])
--------------------------------------------------------------------------

    Molecular point group: c1
  Charge       = 0
  Multiplicity = 1
  Basis Set: AUG-CC-PVTZ
    Blend: AUG-CC-PVTZ
  Basis Set: (AUG-CC-PVTZ AUX)
    Blend: AUG-CC-PVTZ-JKFIT

    Orbital Energies [Eh]
    ---------------------

    Doubly Occupied:

       1A   -104.842814     2A    -20.552929     3A    -11.346320
       4A    -11.323448     5A    -11.273584     6A    -11.270204
       7A    -11.268295     8A    -11.260675     9A    -11.260276
      10A    -11.242416    11A    -10.566577    12A     -8.033466
      13A     -8.031512    14A     -8.031449    15A     -1.383781
      16A     -1.196689    17A     -1.122991    18A     -1.061845
      19A     -1.016267    20A     -0.998032    21A     -0.871756
      22A     -0.840362    23A     -0.779417    24A     -0.703631
      25A     -0.666368    26A     -0.663523    27A     -0.636252
      28A     -0.621885    29A     -0.614749    30A     -0.595594
      31A     -0.562162    32A     -0.548037    33A     -0.538182
      34A     -0.518652    35A     -0.496544    36A     -0.469990
      37A     -0.458776    38A     -0.420133    39A     -0.362360
      40A     -0.340525

  @DF-RHF Final Energy:  -841.51358184792093

   => Energetics <=

    Nuclear Repulsion Energy =            562.0835136001284127
    One-Electron Energy =               -2269.6092563610050092
    Two-Electron Energy =                 866.0121609129557783
    Total Energy =                       -841.5135818479209320
  Basis Set: (AUG-CC-PVTZ AUX)
    Blend: AUG-CC-PVTZ-RI
    Molecular point group: c1

    Geometry (in Angstrom), charge = 0, multiplicity = 1:

       Center              X                  Y                   Z               Mass
    ------------   -----------------  -----------------  -----------------  -----------------
         CL           0.199765639780     2.179767975261     0.200995555708    34.968852682000
         O            2.257400639780     0.215667975261    -0.863442444292    15.994914619570
         C            0.156297639780    -0.557771024739    -0.052196444292    12.000000000000
         C           -0.580890360220     0.634334975261     0.044561555708    12.000000000000
         C           -0.549995360220    -1.769191024739    -0.118892444292    12.000000000000
         C            1.655335639780    -0.578406024739    -0.145438444292    12.000000000000
         C           -1.976384360220     0.609043975261     0.082267555708    12.000000000000
         C           -1.937447760220    -1.896215424739    -0.113562644292    12.000000000000
         C           -2.656720360220    -0.604574024739    -0.006296444292    12.000000000000
         C            2.385128639780    -1.622671024739     0.671318555708    12.000000000000
         H            0.001761639780    -2.702163024739    -0.199660444292     1.007825032230
         H           -2.520298360220     1.544903975261     0.173919555708     1.007825032230
         H           -2.466688360220    -2.749197024739    -0.173875444292     1.007825032230
         H           -3.743571360220    -0.612472024739     0.012977555708     1.007825032230
         H            2.198490639780    -2.627770024739     0.279819555708     1.007825032230
         H            2.046712639780    -1.604457024739     1.711340555708     1.007825032230
         H            3.455249639780    -1.417456024739     0.617495555708     1.007825032230

  Basis Set: AUG-CC-PVTZ
    Blend: AUG-CC-PVTZ
  Basis Set: (AUG-CC-PVTZ AUX)
    Blend: AUG-CC-PVTZ-JKFIT
	 Reference Energy          =    -841.5135818479209320 [Eh]
	 Singles Energy            =      -0.0000000000000000 [Eh]
	 Same-Spin Energy          =      -0.4742371827545520 [Eh]
	 Opposite-Spin Energy      =      -1.4502388721599755 [Eh]
	 Correlation Energy        =      -1.9244760549145274 [Eh]
	 Total Energy              =    -843.4380579028354532 [Eh]

	 ================> DF-SCS-MP2 Energies <==================
	-----------------------------------------------------------
	 SCS Same-Spin Scale       =       0.3333333333333333 [-]
	 SCS Opposite-Spin Scale   =       1.2000000000000000 [-]
	 SCS Same-Spin Energy      =      -0.1580790609181840 [Eh]
	 SCS Opposite-Spin Energy  =      -1.7402866465919706 [Eh]
	 SCS Correlation Energy    =      -1.8983657075101545 [Eh]
	 SCS Total Energy          =    -843.4119475554310839 [Eh]
	-----------------------------------------------------------

  Dipole Moment: [D]
     X:    -2.2188      Y:    -2.9845      Z:     1.4253     Total:     3.9827

*** Psi4 exiting successfully. Buy a developer a beer!
