                               Psi4 1.4a3.dev225

  ==> Input File <==

--------------------------------------------------------------------------
#psi4
#
memory 32 gb

molecule  {
0 1
 Cl        0.2076870     2.2487580     0.1866360
  O        2.2653220     0.2846580    -0.8778020
  C        0.1642190    -0.4887810    -0.0665560
  C       -0.5729690     0.7033250     0.0302020
  C       -0.5420740    -1.7002010    -0.1332520
  C        1.6632570    -0.5094160    -0.1597980
  C       -1.9684630     0.6780340     0.0679080
  C       -1.9349490    -1.7304420    -0.1201220
  C       -2.5464848    -0.7068398    -0.0349122
  C        2.3930500    -1.5536810     0.6569590
  H        0.0096830    -2.6331730    -0.2140200
  H       -2.5123770     1.6138940     0.1595600
  H       -2.4587670    -2.6802070    -0.1882350
  H       -3.7356500    -0.5434820    -0.0013820
  H        2.2064120    -2.5587800     0.2654600
  H        2.0546340    -1.5354670     1.6969810
  H        3.4631710    -1.3484660     0.6031360
units angstrom
no_reorient  #important for SAPT in psi4, default
symmetry c1  #important for SAPT in psi4, default
}

set PROPERTIES_ORIGIN ["COM"]
properties('MP2/aug-cc-pvtz', properties = ['dipole'])
--------------------------------------------------------------------------

    Molecular point group: c1
  Charge       = 0
  Multiplicity = 1
  Basis Set: AUG-CC-PVTZ
    Blend: AUG-CC-PVTZ
  Basis Set: (AUG-CC-PVTZ AUX)
    Blend: AUG-CC-PVTZ-JKFIT

    Orbital Energies [Eh]
    ---------------------

    Doubly Occupied:

       1A   -104.838755     2A    -20.553263     3A    -11.346685
       4A    -11.317947     5A    -11.272263     6A    -11.270879
       7A    -11.268282     8A    -11.257218     9A    -11.243014
      10A    -11.231853    11A    -10.562672    12A     -8.029567
      13A     -8.027616    14A     -8.027561    15A     -1.384254
      16A     -1.207817    17A     -1.143400    18A     -1.070100
      19A     -1.013359    20A     -1.001413    21A     -0.885915
      22A     -0.827445    23A     -0.769768    24A     -0.705213
      25A     -0.676503    26A     -0.656361    27A     -0.636021
      28A     -0.622272    29A     -0.605506    30A     -0.595431
      31A     -0.562501    32A     -0.555824    33A     -0.544953
      34A     -0.499391    35A     -0.488346    36A     -0.485771
      37A     -0.454738    38A     -0.417687    39A     -0.373581
      40A     -0.342728

  @DF-RHF Final Energy:  -841.46430903647808

   => Energetics <=

    Nuclear Repulsion Energy =            565.6539413247973016
    One-Electron Energy =               -2276.6887524181488516
    Two-Electron Energy =                 869.5705020568733516
    Total Energy =                       -841.4643090364780846
  Basis Set: (AUG-CC-PVTZ AUX)
    Blend: AUG-CC-PVTZ-RI
    Molecular point group: c1

    Geometry (in Angstrom), charge = 0, multiplicity = 1:

       Center              X                  Y                   Z               Mass
    ------------   -----------------  -----------------  -----------------  -----------------
         CL           0.192216553930     2.185570320779     0.201498560078    34.968852682000
         O            2.249851553930     0.221470320779    -0.862939439922    15.994914619570
         C            0.148748553930    -0.551968679221    -0.051693439922    12.000000000000
         C           -0.588439446070     0.640137320779     0.045064560078    12.000000000000
         C           -0.557544446070    -1.763388679221    -0.118389439922    12.000000000000
         C            1.647786553930    -0.572603679221    -0.144935439922    12.000000000000
         C           -1.983933446070     0.614846320779     0.082770560078    12.000000000000
         C           -1.950419446070    -1.793629679221    -0.105259439922    12.000000000000
         C           -2.561955246070    -0.770027479221    -0.020049639922    12.000000000000
         C            2.377579553930    -1.616868679221     0.671821560078    12.000000000000
         H           -0.005787446070    -2.696360679221    -0.199157439922     1.007825032230
         H           -2.527847446070     1.550706320779     0.174422560078     1.007825032230
         H           -2.474237446070    -2.743394679221    -0.173372439922     1.007825032230
         H           -3.751120446070    -0.606669679221     0.013480560078     1.007825032230
         H            2.190941553930    -2.621967679221     0.280322560078     1.007825032230
         H            2.039163553930    -1.598654679221     1.711843560078     1.007825032230
         H            3.447700553930    -1.411653679221     0.617998560078     1.007825032230

  Basis Set: AUG-CC-PVTZ
    Blend: AUG-CC-PVTZ
  Basis Set: (AUG-CC-PVTZ AUX)
    Blend: AUG-CC-PVTZ-JKFIT
	 Reference Energy          =    -841.4643090364780846 [Eh]
	 Singles Energy            =      -0.0000000000000000 [Eh]
	 Same-Spin Energy          =      -0.4737364507301730 [Eh]
	 Opposite-Spin Energy      =      -1.4505022643322847 [Eh]
	 Correlation Energy        =      -1.9242387150624576 [Eh]
	 Total Energy              =    -843.3885477515405000 [Eh]

	 ================> DF-SCS-MP2 Energies <==================
	-----------------------------------------------------------
	 SCS Same-Spin Scale       =       0.3333333333333333 [-]
	 SCS Opposite-Spin Scale   =       1.2000000000000000 [-]
	 SCS Same-Spin Energy      =      -0.1579121502433910 [Eh]
	 SCS Opposite-Spin Energy  =      -1.7406027171987415 [Eh]
	 SCS Correlation Energy    =      -1.8985148674421324 [Eh]
	 SCS Total Energy          =    -843.3628239039202299 [Eh]
	-----------------------------------------------------------

  Dipole Moment: [D]
     X:    -2.1208      Y:    -3.0538      Z:     1.4188     Total:     3.9795

*** Psi4 exiting successfully. Buy a developer a beer!
