                               Psi4 1.4a3.dev225

  ==> Input File <==

--------------------------------------------------------------------------
#psi4
#
memory 32 gb

molecule  {
0 1
 Cl        0.2076870     2.2487580     0.1866360
  O        2.2653220     0.2846580    -0.8778020
  C        0.1642190    -0.4887810    -0.0665560
  C       -0.5729690     0.7033250     0.0302020
  C       -0.5420740    -1.7002010    -0.1332520
  C        1.8053746    -0.4473333    -0.1920472
  C       -1.9684630     0.6780340     0.0679080
  C       -1.9349490    -1.7304420    -0.1201220
  C       -2.6487990    -0.5355840    -0.0206560
  C        2.3930500    -1.5536810     0.6569590
  H        0.0096830    -2.6331730    -0.2140200
  H       -2.5123770     1.6138940     0.1595600
  H       -2.4587670    -2.6802070    -0.1882350
  H       -3.7356500    -0.5434820    -0.0013820
  H        2.2064120    -2.5587800     0.2654600
  H        2.0546340    -1.5354670     1.6969810
  H        3.4631710    -1.3484660     0.6031360
units angstrom
no_reorient  #important for SAPT in psi4, default
symmetry c1  #important for SAPT in psi4, default
}

set PROPERTIES_ORIGIN ["COM"]
properties('MP2/aug-cc-pvtz', properties = ['dipole'])
--------------------------------------------------------------------------

    Molecular point group: c1
  Charge       = 0
  Multiplicity = 1
  Basis Set: AUG-CC-PVTZ
    Blend: AUG-CC-PVTZ
  Basis Set: (AUG-CC-PVTZ AUX)
    Blend: AUG-CC-PVTZ-JKFIT

    Orbital Energies [Eh]
    ---------------------

    Doubly Occupied:

       1A   -104.837292     2A    -20.569443     3A    -11.345419
       4A    -11.308451     5A    -11.259611     6A    -11.256320
       7A    -11.253810     8A    -11.252406     9A    -11.250551
      10A    -11.244641    11A    -10.561241    12A     -8.028143
      13A     -8.026222    14A     -8.026185    15A     -1.484154
      16A     -1.189439    17A     -1.119737    18A     -1.049332
      19A     -1.010716    20A     -0.994378    21A     -0.855213
      22A     -0.824496    23A     -0.764145    24A     -0.713762
      25A     -0.674065    26A     -0.666618    27A     -0.653328
      28A     -0.626002    29A     -0.621723    30A     -0.591970
      31A     -0.566899    32A     -0.555626    33A     -0.539577
      34A     -0.536619    35A     -0.511592    36A     -0.469032
      37A     -0.453594    38A     -0.398355    39A     -0.352580
      40A     -0.336793

  @DF-RHF Final Energy:  -841.50427776755123

   => Energetics <=

    Nuclear Repulsion Energy =            563.4276126352847314
    One-Electron Energy =               -2272.3048218241224276
    Two-Electron Energy =                 867.3729314212864665
    Total Energy =                       -841.5042777675512298
  Basis Set: (AUG-CC-PVTZ AUX)
    Blend: AUG-CC-PVTZ-RI
    Molecular point group: c1

    Geometry (in Angstrom), charge = 0, multiplicity = 1:

       Center              X                  Y                   Z               Mass
    ------------   -----------------  -----------------  -----------------  -----------------
         CL           0.189115363696     2.167390288985     0.202900443231    34.968852682000
         O            2.246750363696     0.203290288985    -0.861537556769    15.994914619570
         C            0.145647363696    -0.570148711015    -0.050291556769    12.000000000000
         C           -0.591540636304     0.621957288985     0.046466443231    12.000000000000
         C           -0.560645636304    -1.781568711015    -0.116987556769    12.000000000000
         C            1.786802963696    -0.528701011015    -0.175782756769    12.000000000000
         C           -1.987034636304     0.596666288985     0.084172443231    12.000000000000
         C           -1.953520636304    -1.811809711015    -0.103857556769    12.000000000000
         C           -2.667370636304    -0.616951711015    -0.004391556769    12.000000000000
         C            2.374478363696    -1.635048711015     0.673223443231    12.000000000000
         H           -0.008888636304    -2.714540711015    -0.197755556769     1.007825032230
         H           -2.530948636304     1.532526288985     0.175824443231     1.007825032230
         H           -2.477338636304    -2.761574711015    -0.171970556769     1.007825032230
         H           -3.754221636304    -0.624849711015     0.014882443231     1.007825032230
         H            2.187840363696    -2.640147711015     0.281724443231     1.007825032230
         H            2.036062363696    -1.616834711015     1.713245443231     1.007825032230
         H            3.444599363696    -1.429833711015     0.619400443231     1.007825032230

  Basis Set: AUG-CC-PVTZ
    Blend: AUG-CC-PVTZ
  Basis Set: (AUG-CC-PVTZ AUX)
    Blend: AUG-CC-PVTZ-JKFIT
	 Reference Energy          =    -841.5042777675512298 [Eh]
	 Singles Energy            =      -0.0000000000000000 [Eh]
	 Same-Spin Energy          =      -0.4714013166139085 [Eh]
	 Opposite-Spin Energy      =      -1.4424785602400756 [Eh]
	 Correlation Energy        =      -1.9138798768539842 [Eh]
	 Total Energy              =    -843.4181576444052553 [Eh]

	 ================> DF-SCS-MP2 Energies <==================
	-----------------------------------------------------------
	 SCS Same-Spin Scale       =       0.3333333333333333 [-]
	 SCS Opposite-Spin Scale   =       1.2000000000000000 [-]
	 SCS Same-Spin Energy      =      -0.1571337722046361 [Eh]
	 SCS Opposite-Spin Energy  =      -1.7309742722880908 [Eh]
	 SCS Correlation Energy    =      -1.8881080444927270 [Eh]
	 SCS Total Energy          =    -843.3923858120439263 [Eh]
	-----------------------------------------------------------

  Dipole Moment: [D]
     X:    -1.1091      Y:    -2.8579      Z:     1.1759     Total:     3.2834

*** Psi4 exiting successfully. Buy a developer a beer!
