                               Psi4 1.4a3.dev225

  ==> Input File <==

--------------------------------------------------------------------------
#psi4
#
memory 32 gb

molecule  {
0 1
 Cl        0.2076870     2.2487580     0.1866360
  O        2.2653220     0.2846580    -0.8778020
  C        0.1642190    -0.4887810    -0.0665560
  C       -0.5729690     0.7033250     0.0302020
  C       -0.5420740    -1.7002010    -0.1332520
  C        1.6632570    -0.5094160    -0.1597980
  C       -1.9684630     0.6780340     0.0679080
  C       -1.9549434    -1.7308761    -0.1199335
  C       -2.6487990    -0.5355840    -0.0206560
  C        2.3930500    -1.5536810     0.6569590
  H        0.0096830    -2.6331730    -0.2140200
  H       -2.5123770     1.6138940     0.1595600
  H       -2.4587670    -2.6802070    -0.1882350
  H       -3.7356500    -0.5434820    -0.0013820
  H        2.2064120    -2.5587800     0.2654600
  H        2.0546340    -1.5354670     1.6969810
  H        3.4631710    -1.3484660     0.6031360
units angstrom
no_reorient  #important for SAPT in psi4, default
symmetry c1  #important for SAPT in psi4, default
}

set PROPERTIES_ORIGIN ["COM"]
properties('MP2/aug-cc-pvtz', properties = ['dipole'])
--------------------------------------------------------------------------

    Molecular point group: c1
  Charge       = 0
  Multiplicity = 1
  Basis Set: AUG-CC-PVTZ
    Blend: AUG-CC-PVTZ
  Basis Set: (AUG-CC-PVTZ AUX)
    Blend: AUG-CC-PVTZ-JKFIT

    Orbital Energies [Eh]
    ---------------------

    Doubly Occupied:

       1A   -104.841203     2A    -20.553402     3A    -11.346385
       4A    -11.320419     5A    -11.270942     6A    -11.269566
       7A    -11.262885     8A    -11.260007     9A    -11.258340
      10A    -11.243090    11A    -10.564980    12A     -8.031876
      13A     -8.029916    14A     -8.029861    15A     -1.384191
      16A     -1.198940    17A     -1.126021    18A     -1.067024
      19A     -1.011438    20A     -1.000475    21A     -0.875551
      22A     -0.838911    23A     -0.772410    24A     -0.704281
      25A     -0.668360    26A     -0.663670    27A     -0.635525
      28A     -0.621752    29A     -0.604761    30A     -0.593329
      31A     -0.563909    32A     -0.551374    33A     -0.534678
      34A     -0.526495    35A     -0.498238    36A     -0.473070
      37A     -0.457955    38A     -0.419729    39A     -0.362003
      40A     -0.343725

  @DF-RHF Final Energy:  -841.52633367174985

   => Energetics <=

    Nuclear Repulsion Energy =            563.3666209640813349
    One-Electron Energy =               -2272.2245337505660245
    Two-Electron Energy =                 867.3315791147347227
    Total Energy =                       -841.5263336717498532
  Basis Set: (AUG-CC-PVTZ AUX)
    Blend: AUG-CC-PVTZ-RI
    Molecular point group: c1

    Geometry (in Angstrom), charge = 0, multiplicity = 1:

       Center              X                  Y                   Z               Mass
    ------------   -----------------  -----------------  -----------------  -----------------
         CL           0.201745946794     2.172261141466     0.200373134547    34.968852682000
         O            2.259380946794     0.208161141466    -0.864064865453    15.994914619570
         C            0.158277946794    -0.565277858534    -0.052818865453    12.000000000000
         C           -0.578910053206     0.626828141466     0.043939134547    12.000000000000
         C           -0.548015053206    -1.776697858534    -0.119514865453    12.000000000000
         C            1.657315946794    -0.585912858534    -0.146060865453    12.000000000000
         C           -1.974404053206     0.601537141466     0.081645134547    12.000000000000
         C           -1.960884453206    -1.807372958534    -0.106196365453    12.000000000000
         C           -2.654740053206    -0.612080858534    -0.006918865453    12.000000000000
         C            2.387108946794    -1.630177858534     0.670696134547    12.000000000000
         H            0.003741946794    -2.709669858534    -0.200282865453     1.007825032230
         H           -2.518318053206     1.537397141466     0.173297134547     1.007825032230
         H           -2.464708053206    -2.756703858534    -0.174497865453     1.007825032230
         H           -3.741591053206    -0.619978858534     0.012355134547     1.007825032230
         H            2.200470946794    -2.635276858534     0.279197134547     1.007825032230
         H            2.048692946794    -1.611963858534     1.710718134547     1.007825032230
         H            3.457229946794    -1.424962858534     0.616873134547     1.007825032230

  Basis Set: AUG-CC-PVTZ
    Blend: AUG-CC-PVTZ
  Basis Set: (AUG-CC-PVTZ AUX)
    Blend: AUG-CC-PVTZ-JKFIT
	 Reference Energy          =    -841.5263336717498532 [Eh]
	 Singles Energy            =      -0.0000000000000000 [Eh]
	 Same-Spin Energy          =      -0.4742011158832493 [Eh]
	 Opposite-Spin Energy      =      -1.4491937041048006 [Eh]
	 Correlation Energy        =      -1.9233948199880500 [Eh]
	 Total Energy              =    -843.4497284917379147 [Eh]

	 ================> DF-SCS-MP2 Energies <==================
	-----------------------------------------------------------
	 SCS Same-Spin Scale       =       0.3333333333333333 [-]
	 SCS Opposite-Spin Scale   =       1.2000000000000000 [-]
	 SCS Same-Spin Energy      =      -0.1580670386277497 [Eh]
	 SCS Opposite-Spin Energy  =      -1.7390324449257608 [Eh]
	 SCS Correlation Energy    =      -1.8970994835535107 [Eh]
	 SCS Total Energy          =    -843.4234331553033144 [Eh]
	-----------------------------------------------------------

  Dipole Moment: [D]
     X:    -2.1965      Y:    -2.9992      Z:     1.4264     Total:     3.9818

*** Psi4 exiting successfully. Buy a developer a beer!
