                               Psi4 1.4a3.dev225

  ==> Input File <==

--------------------------------------------------------------------------
#psi4
#
memory 32 gb

molecule  {
0 1
 Cl        0.2076870     2.2487580     0.1866360
  O        2.2653220     0.2846580    -0.8778020
  C        0.1642190    -0.4887810    -0.0665560
  C       -0.5729690     0.7033250     0.0302020
  C       -0.5420740    -1.7002010    -0.1332520
  C        1.6864291    -0.4982544    -0.1658051
  C       -1.9684630     0.6780340     0.0679080
  C       -1.9349490    -1.7304420    -0.1201220
  C       -2.6487990    -0.5355840    -0.0206560
  C        2.3930500    -1.5536810     0.6569590
  H        0.0096830    -2.6331730    -0.2140200
  H       -2.5123770     1.6138940     0.1595600
  H       -2.4587670    -2.6802070    -0.1882350
  H       -3.7356500    -0.5434820    -0.0013820
  H        2.2064120    -2.5587800     0.2654600
  H        2.0546340    -1.5354670     1.6969810
  H        3.4631710    -1.3484660     0.6031360
units angstrom
no_reorient  #important for SAPT in psi4, default
symmetry c1  #important for SAPT in psi4, default
}

set PROPERTIES_ORIGIN ["COM"]
properties('MP2/aug-cc-pvtz', properties = ['dipole'])
--------------------------------------------------------------------------

    Molecular point group: c1
  Charge       = 0
  Multiplicity = 1
  Basis Set: AUG-CC-PVTZ
    Blend: AUG-CC-PVTZ
  Basis Set: (AUG-CC-PVTZ AUX)
    Blend: AUG-CC-PVTZ-JKFIT

    Orbital Energies [Eh]
    ---------------------

    Doubly Occupied:

       1A   -104.840691     2A    -20.555683     3A    -11.345777
       4A    -11.318577     5A    -11.269680     6A    -11.265776
       7A    -11.262339     8A    -11.258985     9A    -11.256951
      10A    -11.242786    11A    -10.564495    12A     -8.031393
      13A     -8.029438    14A     -8.029386    15A     -1.399852
      16A     -1.197961    17A     -1.125714    18A     -1.063230
      19A     -1.012487    20A     -0.999238    21A     -0.872541
      22A     -0.835826    23A     -0.770172    24A     -0.705022
      25A     -0.667956    26A     -0.664988    27A     -0.635376
      28A     -0.624941    29A     -0.605117    30A     -0.594525
      31A     -0.564257    32A     -0.551676    33A     -0.536010
      34A     -0.524768    35A     -0.503973    36A     -0.473155
      37A     -0.457694    38A     -0.418053    39A     -0.360695
      40A     -0.343350

  @DF-RHF Final Energy:  -841.52856845088616

   => Energetics <=

    Nuclear Repulsion Energy =            563.5683798916313663
    One-Electron Energy =               -2272.6328292587554643
    Two-Electron Energy =                 867.5358809162379430
    Total Energy =                       -841.5285684508861550
  Basis Set: (AUG-CC-PVTZ AUX)
    Blend: AUG-CC-PVTZ-RI
    Molecular point group: c1

    Geometry (in Angstrom), charge = 0, multiplicity = 1:

       Center              X                  Y                   Z               Mass
    ------------   -----------------  -----------------  -----------------  -----------------
         CL           0.198382728369     2.171357689209     0.200855850451    34.968852682000
         O            2.256017728369     0.207257689209    -0.863582149549    15.994914619570
         C            0.154914728369    -0.566181310791    -0.052336149549    12.000000000000
         C           -0.582273271631     0.625924689209     0.044421850451    12.000000000000
         C           -0.551378271631    -1.777601310791    -0.119032149549    12.000000000000
         C            1.677124828369    -0.575654710791    -0.151585249549    12.000000000000
         C           -1.977767271631     0.600633689209     0.082127850451    12.000000000000
         C           -1.944253271631    -1.807842310791    -0.105902149549    12.000000000000
         C           -2.658103271631    -0.612984310791    -0.006436149549    12.000000000000
         C            2.383745728369    -1.631081310791     0.671178850451    12.000000000000
         H            0.000378728369    -2.710573310791    -0.199800149549     1.007825032230
         H           -2.521681271631     1.536493689209     0.173779850451     1.007825032230
         H           -2.468071271631    -2.757607310791    -0.174015149549     1.007825032230
         H           -3.744954271631    -0.620882310791     0.012837850451     1.007825032230
         H            2.197107728369    -2.636180310791     0.279679850451     1.007825032230
         H            2.045329728369    -1.612867310791     1.711200850451     1.007825032230
         H            3.453866728369    -1.425866310791     0.617355850451     1.007825032230

  Basis Set: AUG-CC-PVTZ
    Blend: AUG-CC-PVTZ
  Basis Set: (AUG-CC-PVTZ AUX)
    Blend: AUG-CC-PVTZ-JKFIT
	 Reference Energy          =    -841.5285684508861550 [Eh]
	 Singles Energy            =      -0.0000000000000000 [Eh]
	 Same-Spin Energy          =      -0.4735413967254158 [Eh]
	 Opposite-Spin Energy      =      -1.4476446904368554 [Eh]
	 Correlation Energy        =      -1.9211860871622712 [Eh]
	 Total Energy              =    -843.4497545380484098 [Eh]

	 ================> DF-SCS-MP2 Energies <==================
	-----------------------------------------------------------
	 SCS Same-Spin Scale       =       0.3333333333333333 [-]
	 SCS Opposite-Spin Scale   =       1.2000000000000000 [-]
	 SCS Same-Spin Energy      =      -0.1578471322418053 [Eh]
	 SCS Opposite-Spin Energy  =      -1.7371736285242265 [Eh]
	 SCS Correlation Energy    =      -1.8950207607660319 [Eh]
	 SCS Total Energy          =    -843.4235892116521427 [Eh]
	-----------------------------------------------------------

  Dipole Moment: [D]
     X:    -2.0535      Y:    -2.9707      Z:     1.3896     Total:     3.8695

*** Psi4 exiting successfully. Buy a developer a beer!
