                               Psi4 1.4a3.dev225

  ==> Input File <==

--------------------------------------------------------------------------
#psi4
#
memory 32 gb

molecule  {
0 1
 Cl        0.2076870     2.2487580     0.1866360
  O        2.2653220     0.2846580    -0.8778020
  C        0.1642190    -0.4887810    -0.0665560
  C       -0.5729690     0.7033250     0.0302020
  C       -0.5420740    -1.7002010    -0.1332520
  C        1.6632570    -0.5094160    -0.1597980
  C       -1.9684630     0.6780340     0.0679080
  C       -1.9349490    -1.7304420    -0.1201220
  C       -2.6487990    -0.5355840    -0.0206560
  C        2.3834052    -1.5398801     0.6461649
  H        0.0096830    -2.6331730    -0.2140200
  H       -2.5123770     1.6138940     0.1595600
  H       -2.4587670    -2.6802070    -0.1882350
  H       -3.7356500    -0.5434820    -0.0013820
  H        2.2064120    -2.5587800     0.2654600
  H        2.0546340    -1.5354670     1.6969810
  H        3.4631710    -1.3484660     0.6031360
units angstrom
no_reorient  #important for SAPT in psi4, default
symmetry c1  #important for SAPT in psi4, default
}

set PROPERTIES_ORIGIN ["COM"]
properties('MP2/aug-cc-pvtz', properties = ['dipole'])
--------------------------------------------------------------------------

    Molecular point group: c1
  Charge       = 0
  Multiplicity = 1
  Basis Set: AUG-CC-PVTZ
    Blend: AUG-CC-PVTZ
  Basis Set: (AUG-CC-PVTZ AUX)
    Blend: AUG-CC-PVTZ-JKFIT

    Orbital Energies [Eh]
    ---------------------

    Doubly Occupied:

       1A   -104.841146     2A    -20.552915     3A    -11.345342
       4A    -11.320298     5A    -11.270372     6A    -11.267273
       7A    -11.263833     8A    -11.259998     9A    -11.257917
      10A    -11.243833    11A    -10.564922    12A     -8.031818
      13A     -8.029859    14A     -8.029803    15A     -1.384342
      16A     -1.199405    17A     -1.126707    18A     -1.067487
      19A     -1.013938    20A     -1.000623    21A     -0.876042
      22A     -0.837773    23A     -0.772125    24A     -0.705148
      25A     -0.669158    26A     -0.664460    27A     -0.634497
      28A     -0.623360    29A     -0.603580    30A     -0.593412
      31A     -0.561507    32A     -0.552068    33A     -0.535151
      34A     -0.524117    35A     -0.496374    36A     -0.473501
      37A     -0.458126    38A     -0.421221    39A     -0.361769
      40A     -0.344305

  @DF-RHF Final Energy:  -841.52635651927471

   => Energetics <=

    Nuclear Repulsion Energy =            563.9957062434581303
    One-Electron Energy =               -2273.4850729199888519
    Two-Electron Energy =                 867.9630101572558942
    Total Energy =                       -841.5263565192747137
  Basis Set: (AUG-CC-PVTZ AUX)
    Blend: AUG-CC-PVTZ-RI
    Molecular point group: c1

    Geometry (in Angstrom), charge = 0, multiplicity = 1:

       Center              X                  Y                   Z               Mass
    ------------   -----------------  -----------------  -----------------  -----------------
         CL           0.200939581547     2.171152054228     0.201228818530    34.968852682000
         O            2.258574581547     0.207052054228    -0.863209181470    15.994914619570
         C            0.157471581547    -0.566386945772    -0.051963181470    12.000000000000
         C           -0.579716418453     0.625719054228     0.044794818530    12.000000000000
         C           -0.548821418453    -1.777806945772    -0.118659181470    12.000000000000
         C            1.656509581547    -0.587021945772    -0.145205181470    12.000000000000
         C           -1.975210418453     0.600428054228     0.082500818530    12.000000000000
         C           -1.941696418453    -1.808047945772    -0.105529181470    12.000000000000
         C           -2.655546418453    -0.613189945772    -0.006063181470    12.000000000000
         C            2.376657781547    -1.617486045772     0.660757718530    12.000000000000
         H            0.002935581547    -2.710778945772    -0.199427181470     1.007825032230
         H           -2.519124418453     1.536288054228     0.174152818530     1.007825032230
         H           -2.465514418453    -2.757812945772    -0.173642181470     1.007825032230
         H           -3.742397418453    -0.621087945772     0.013210818530     1.007825032230
         H            2.199664581547    -2.636385945772     0.280052818530     1.007825032230
         H            2.047886581547    -1.613072945772     1.711573818530     1.007825032230
         H            3.456423581547    -1.426071945772     0.617728818530     1.007825032230

  Basis Set: AUG-CC-PVTZ
    Blend: AUG-CC-PVTZ
  Basis Set: (AUG-CC-PVTZ AUX)
    Blend: AUG-CC-PVTZ-JKFIT
	 Reference Energy          =    -841.5263565192747137 [Eh]
	 Singles Energy            =      -0.0000000000000000 [Eh]
	 Same-Spin Energy          =      -0.4743762365742589 [Eh]
	 Opposite-Spin Energy      =      -1.4492331451435192 [Eh]
	 Correlation Energy        =      -1.9236093817177782 [Eh]
	 Total Energy              =    -843.4499659009925381 [Eh]

	 ================> DF-SCS-MP2 Energies <==================
	-----------------------------------------------------------
	 SCS Same-Spin Scale       =       0.3333333333333333 [-]
	 SCS Opposite-Spin Scale   =       1.2000000000000000 [-]
	 SCS Same-Spin Energy      =      -0.1581254121914196 [Eh]
	 SCS Opposite-Spin Energy  =      -1.7390797741722230 [Eh]
	 SCS Correlation Energy    =      -1.8972051863636425 [Eh]
	 SCS Total Energy          =    -843.4235617056383489 [Eh]
	-----------------------------------------------------------

  Dipole Moment: [D]
     X:    -2.1836      Y:    -3.0186      Z:     1.4467     Total:     3.9966

*** Psi4 exiting successfully. Buy a developer a beer!
