                               Psi4 1.4a3.dev225

  ==> Input File <==

--------------------------------------------------------------------------
#psi4
#
memory 32 gb

molecule  {
0 1
 Cl        0.2076870     2.2487580     0.1866360
  O        2.2653220     0.2846580    -0.8778020
  C        0.1642190    -0.4887810    -0.0665560
  C       -0.5729690     0.7033250     0.0302020
  C       -0.5420740    -1.7002010    -0.1332520
  C        1.6632570    -0.5094160    -0.1597980
  C       -1.9684630     0.6780340     0.0679080
  C       -1.9349490    -1.7304420    -0.1201220
  C       -2.5976419    -0.6212119    -0.0277841
  C        2.3930500    -1.5536810     0.6569590
  H        0.0096830    -2.6331730    -0.2140200
  H       -2.5123770     1.6138940     0.1595600
  H       -2.4587670    -2.6802070    -0.1882350
  H       -3.7356500    -0.5434820    -0.0013820
  H        2.2064120    -2.5587800     0.2654600
  H        2.0546340    -1.5354670     1.6969810
  H        3.4631710    -1.3484660     0.6031360
units angstrom
no_reorient  #important for SAPT in psi4, default
symmetry c1  #important for SAPT in psi4, default
}

set PROPERTIES_ORIGIN ["COM"]
properties('MP2/aug-cc-pvtz', properties = ['dipole'])
--------------------------------------------------------------------------

    Molecular point group: c1
  Charge       = 0
  Multiplicity = 1
  Basis Set: AUG-CC-PVTZ
    Blend: AUG-CC-PVTZ
  Basis Set: (AUG-CC-PVTZ AUX)
    Blend: AUG-CC-PVTZ-JKFIT

    Orbital Energies [Eh]
    ---------------------

    Doubly Occupied:

       1A   -104.839962     2A    -20.553172     3A    -11.346367
       4A    -11.319119     5A    -11.270833     6A    -11.269310
       7A    -11.264503     8A    -11.261371     9A    -11.246122
      10A    -11.242968    11A    -10.563810    12A     -8.030706
      13A     -8.028751    14A     -8.028696    15A     -1.384071
      16A     -1.202172    17A     -1.133694    18A     -1.066465
      19A     -1.012277    20A     -1.002964    21A     -0.879642
      22A     -0.834551    23A     -0.771053    24A     -0.704274
      25A     -0.672403    26A     -0.659060    27A     -0.634911
      28A     -0.621815    29A     -0.604080    30A     -0.594685
      31A     -0.562418    32A     -0.554294    33A     -0.540202
      34A     -0.511319    35A     -0.498487    36A     -0.478902
      37A     -0.456787    38A     -0.419029    39A     -0.361994
      40A     -0.347796

  @DF-RHF Final Energy:  -841.51343351372691

   => Energetics <=

    Nuclear Repulsion Energy =            564.5492013712198514
    One-Electron Energy =               -2274.5751970272808649
    Two-Electron Energy =                 868.5125621423341045
    Total Energy =                       -841.5134335137269090
  Basis Set: (AUG-CC-PVTZ AUX)
    Blend: AUG-CC-PVTZ-RI
    Molecular point group: c1

    Geometry (in Angstrom), charge = 0, multiplicity = 1:

       Center              X                  Y                   Z               Mass
    ------------   -----------------  -----------------  -----------------  -----------------
         CL           0.196202341550     2.178898820172     0.200943190584    34.968852682000
         O            2.253837341550     0.214798820172    -0.863494809416    15.994914619570
         C            0.152734341550    -0.558640179828    -0.052248809416    12.000000000000
         C           -0.584453658450     0.633465820172     0.044509190584    12.000000000000
         C           -0.553558658450    -1.770060179828    -0.118944809416    12.000000000000
         C            1.651772341550    -0.579275179828    -0.145490809416    12.000000000000
         C           -1.979947658450     0.608174820172     0.082215190584    12.000000000000
         C           -1.946433658450    -1.800301179828    -0.105814809416    12.000000000000
         C           -2.609126558450    -0.691071079828    -0.013476909416    12.000000000000
         C            2.381565341550    -1.623540179828     0.671266190584    12.000000000000
         H           -0.001801658450    -2.703032179828    -0.199712809416     1.007825032230
         H           -2.523861658450     1.544034820172     0.173867190584     1.007825032230
         H           -2.470251658450    -2.750066179828    -0.173927809416     1.007825032230
         H           -3.747134658450    -0.613341179828     0.012925190584     1.007825032230
         H            2.194927341550    -2.628639179828     0.279767190584     1.007825032230
         H            2.043149341550    -1.605326179828     1.711288190584     1.007825032230
         H            3.451686341550    -1.418325179828     0.617443190584     1.007825032230

  Basis Set: AUG-CC-PVTZ
    Blend: AUG-CC-PVTZ
  Basis Set: (AUG-CC-PVTZ AUX)
    Blend: AUG-CC-PVTZ-JKFIT
	 Reference Energy          =    -841.5134335137269090 [Eh]
	 Singles Energy            =      -0.0000000000000000 [Eh]
	 Same-Spin Energy          =      -0.4740926091339141 [Eh]
	 Opposite-Spin Energy      =      -1.4493208837450298 [Eh]
	 Correlation Energy        =      -1.9234134928789439 [Eh]
	 Total Energy              =    -843.4368470066058308 [Eh]

	 ================> DF-SCS-MP2 Energies <==================
	-----------------------------------------------------------
	 SCS Same-Spin Scale       =       0.3333333333333333 [-]
	 SCS Opposite-Spin Scale   =       1.2000000000000000 [-]
	 SCS Same-Spin Energy      =      -0.1580308697113047 [Eh]
	 SCS Opposite-Spin Energy  =      -1.7391850604940358 [Eh]
	 SCS Correlation Energy    =      -1.8972159302053404 [Eh]
	 SCS Total Energy          =    -843.4106494439322432 [Eh]
	-----------------------------------------------------------

  Dipole Moment: [D]
     X:    -2.1765      Y:    -3.0181      Z:     1.4235     Total:     3.9841

*** Psi4 exiting successfully. Buy a developer a beer!
