                               Psi4 1.4a3.dev225

  ==> Input File <==

--------------------------------------------------------------------------
#psi4
#
memory 32 gb

molecule  {
0 1
 Cl        0.2076870     2.2487580     0.1866360
  O        2.2653220     0.2846580    -0.8778020
  C        0.1642190    -0.4887810    -0.0665560
  C       -0.5729690     0.7033250     0.0302020
  C       -0.5420740    -1.7002010    -0.1332520
  C        1.6632570    -0.5094160    -0.1597980
  C       -1.9684630     0.6780340     0.0679080
  C       -1.9349490    -1.7304420    -0.1201220
  C       -2.6696141    -0.5482041    -0.0214220
  C        2.3930500    -1.5536810     0.6569590
  H        0.0096830    -2.6331730    -0.2140200
  H       -2.5123770     1.6138940     0.1595600
  H       -2.4587670    -2.6802070    -0.1882350
  H       -3.7356500    -0.5434820    -0.0013820
  H        2.2064120    -2.5587800     0.2654600
  H        2.0546340    -1.5354670     1.6969810
  H        3.4631710    -1.3484660     0.6031360
units angstrom
no_reorient  #important for SAPT in psi4, default
symmetry c1  #important for SAPT in psi4, default
}

set PROPERTIES_ORIGIN ["COM"]
properties('MP2/aug-cc-pvtz', properties = ['dipole'])
--------------------------------------------------------------------------

    Molecular point group: c1
  Charge       = 0
  Multiplicity = 1
  Basis Set: AUG-CC-PVTZ
    Blend: AUG-CC-PVTZ
  Basis Set: (AUG-CC-PVTZ AUX)
    Blend: AUG-CC-PVTZ-JKFIT

    Orbital Energies [Eh]
    ---------------------

    Doubly Occupied:

       1A   -104.841043     2A    -20.553494     3A    -11.346399
       4A    -11.320048     5A    -11.271053     6A    -11.267606
       7A    -11.264741     8A    -11.262290     9A    -11.258358
      10A    -11.243148    11A    -10.564816    12A     -8.031714
      13A     -8.029751    14A     -8.029697    15A     -1.384250
      16A     -1.198123    17A     -1.126164    18A     -1.065259
      19A     -1.011710    20A     -1.000249    21A     -0.878276
      22A     -0.836692    23A     -0.771972    24A     -0.705266
      25A     -0.668077    26A     -0.666270    27A     -0.633506
      28A     -0.621435    29A     -0.602599    30A     -0.593488
      31A     -0.565742    32A     -0.553360    33A     -0.538627
      34A     -0.521658    35A     -0.497637    36A     -0.473066
      37A     -0.457798    38A     -0.420012    39A     -0.359665
      40A     -0.344947

  @DF-RHF Final Energy:  -841.52587987453194

   => Energetics <=

    Nuclear Repulsion Energy =            563.1555087444935452
    One-Electron Energy =               -2271.8027634758491331
    Two-Electron Energy =                 867.1213748568236497
    Total Energy =                       -841.5258798745319382
  Basis Set: (AUG-CC-PVTZ AUX)
    Blend: AUG-CC-PVTZ-RI
    Molecular point group: c1

    Geometry (in Angstrom), charge = 0, multiplicity = 1:

       Center              X                  Y                   Z               Mass
    ------------   -----------------  -----------------  -----------------  -----------------
         CL           0.201809889744     2.173210585589     0.200447502216    34.968852682000
         O            2.259444889744     0.209110585589    -0.863990497784    15.994914619570
         C            0.158341889744    -0.564328414411    -0.052744497784    12.000000000000
         C           -0.578846110256     0.627777585589     0.044013502216    12.000000000000
         C           -0.547951110256    -1.775748414411    -0.119440497784    12.000000000000
         C            1.657379889744    -0.584963414411    -0.145986497784    12.000000000000
         C           -1.974340110256     0.602486585589     0.081719502216    12.000000000000
         C           -1.940826110256    -1.805989414411    -0.106310497784    12.000000000000
         C           -2.675491210256    -0.623751514411    -0.007610497784    12.000000000000
         C            2.387172889744    -1.629228414411     0.670770502216    12.000000000000
         H            0.003805889744    -2.708720414411    -0.200208497784     1.007825032230
         H           -2.518254110256     1.538346585589     0.173371502216     1.007825032230
         H           -2.464644110256    -2.755754414411    -0.174423497784     1.007825032230
         H           -3.741527110256    -0.619029414411     0.012429502216     1.007825032230
         H            2.200534889744    -2.634327414411     0.279271502216     1.007825032230
         H            2.048756889744    -1.611014414411     1.710792502216     1.007825032230
         H            3.457293889744    -1.424013414411     0.616947502216     1.007825032230

  Basis Set: AUG-CC-PVTZ
    Blend: AUG-CC-PVTZ
  Basis Set: (AUG-CC-PVTZ AUX)
    Blend: AUG-CC-PVTZ-JKFIT
	 Reference Energy          =    -841.5258798745319382 [Eh]
	 Singles Energy            =      -0.0000000000000000 [Eh]
	 Same-Spin Energy          =      -0.4742173652975142 [Eh]
	 Opposite-Spin Energy      =      -1.4492948679100075 [Eh]
	 Correlation Energy        =      -1.9235122332075218 [Eh]
	 Total Energy              =    -843.4493921077394134 [Eh]

	 ================> DF-SCS-MP2 Energies <==================
	-----------------------------------------------------------
	 SCS Same-Spin Scale       =       0.3333333333333333 [-]
	 SCS Opposite-Spin Scale   =       1.2000000000000000 [-]
	 SCS Same-Spin Energy      =      -0.1580724550991714 [Eh]
	 SCS Opposite-Spin Energy  =      -1.7391538414920089 [Eh]
	 SCS Correlation Energy    =      -1.8972262965911804 [Eh]
	 SCS Total Energy          =    -843.4231061711230950 [Eh]
	-----------------------------------------------------------

  Dipole Moment: [D]
     X:    -2.2111      Y:    -2.9909      Z:     1.4278     Total:     3.9841

*** Psi4 exiting successfully. Buy a developer a beer!
