                               Psi4 1.4a3.dev225

  ==> Input File <==

--------------------------------------------------------------------------
#psi4
#
memory 32 gb

molecule  {
0 1
 Cl        0.2076870     2.2487580     0.1866360
  O        2.2653220     0.2846580    -0.8778020
  C        0.1642190    -0.4887810    -0.0665560
  C       -0.5729690     0.7033250     0.0302020
  C       -0.5420740    -1.7002010    -0.1332520
  C        1.6632570    -0.5094160    -0.1597980
  C       -1.9684630     0.6780340     0.0679080
  C       -1.7350050    -1.7261010    -0.1220068
  C       -2.6487990    -0.5355840    -0.0206560
  C        2.3930500    -1.5536810     0.6569590
  H        0.0096830    -2.6331730    -0.2140200
  H       -2.5123770     1.6138940     0.1595600
  H       -2.4587670    -2.6802070    -0.1882350
  H       -3.7356500    -0.5434820    -0.0013820
  H        2.2064120    -2.5587800     0.2654600
  H        2.0546340    -1.5354670     1.6969810
  H        3.4631710    -1.3484660     0.6031360
units angstrom
no_reorient  #important for SAPT in psi4, default
symmetry c1  #important for SAPT in psi4, default
}

set PROPERTIES_ORIGIN ["COM"]
properties('MP2/aug-cc-pvtz', properties = ['dipole'])
--------------------------------------------------------------------------

    Molecular point group: c1
  Charge       = 0
  Multiplicity = 1
  Basis Set: AUG-CC-PVTZ
    Blend: AUG-CC-PVTZ
  Basis Set: (AUG-CC-PVTZ AUX)
    Blend: AUG-CC-PVTZ-JKFIT

    Orbital Energies [Eh]
    ---------------------

    Doubly Occupied:

       1A   -104.842152     2A    -20.552284     3A    -11.345011
       4A    -11.321339     5A    -11.274272     6A    -11.268549
       7A    -11.260603     8A    -11.251661     9A    -11.242869
      10A    -11.237180    11A    -10.565903    12A     -8.032794
      13A     -8.030836    14A     -8.030778    15A     -1.383061
      16A     -1.209361    17A     -1.141046    18A     -1.061712
      19A     -1.033791    20A     -0.993669    21A     -0.882038
      22A     -0.825141    23A     -0.767973    24A     -0.705939
      25A     -0.677831    26A     -0.663919    27A     -0.630678
      28A     -0.621551    29A     -0.598234    30A     -0.597519
      31A     -0.566240    32A     -0.560160    33A     -0.544693
      34A     -0.504419    35A     -0.484973    36A     -0.472030
      37A     -0.457947    38A     -0.420088    39A     -0.379748
      40A     -0.338910

  @DF-RHF Final Energy:  -841.46378358613742

   => Energetics <=

    Nuclear Repulsion Energy =            566.5001970478343765
    One-Electron Energy =               -2278.3701543583160856
    Two-Electron Energy =                 870.4061737243443986
    Total Energy =                       -841.4637835861374242
  Basis Set: (AUG-CC-PVTZ AUX)
    Blend: AUG-CC-PVTZ-RI
    Molecular point group: c1

    Geometry (in Angstrom), charge = 0, multiplicity = 1:

       Center              X                  Y                   Z               Mass
    ------------   -----------------  -----------------  -----------------  -----------------
         CL           0.184609952928     2.171889100548     0.200534670941    34.968852682000
         O            2.242244952928     0.207789100548    -0.863903329059    15.994914619570
         C            0.141141952928    -0.565649899452    -0.052657329059    12.000000000000
         C           -0.596046047072     0.626456100548     0.044100670941    12.000000000000
         C           -0.565151047072    -1.777069899452    -0.119353329059    12.000000000000
         C            1.640179952928    -0.586284899452    -0.145899329059    12.000000000000
         C           -1.991540047072     0.601165100548     0.081806670941    12.000000000000
         C           -1.758082047072    -1.802969899452    -0.108108129059    12.000000000000
         C           -2.671876047072    -0.612452899452    -0.006757329059    12.000000000000
         C            2.369972952928    -1.630549899452     0.670857670941    12.000000000000
         H           -0.013394047072    -2.710041899452    -0.200121329059     1.007825032230
         H           -2.535454047072     1.537025100548     0.173458670941     1.007825032230
         H           -2.481844047072    -2.757075899452    -0.174336329059     1.007825032230
         H           -3.758727047072    -0.620350899452     0.012516670941     1.007825032230
         H            2.183334952928    -2.635648899452     0.279358670941     1.007825032230
         H            2.031556952928    -1.612335899452     1.710879670941     1.007825032230
         H            3.440093952928    -1.425334899452     0.617034670941     1.007825032230

  Basis Set: AUG-CC-PVTZ
    Blend: AUG-CC-PVTZ
  Basis Set: (AUG-CC-PVTZ AUX)
    Blend: AUG-CC-PVTZ-JKFIT
	 Reference Energy          =    -841.4637835861374242 [Eh]
	 Singles Energy            =      -0.0000000000000000 [Eh]
	 Same-Spin Energy          =      -0.4738598608515007 [Eh]
	 Opposite-Spin Energy      =      -1.4507443679070777 [Eh]
	 Correlation Energy        =      -1.9246042287585785 [Eh]
	 Total Energy              =    -843.3883878148959639 [Eh]

	 ================> DF-SCS-MP2 Energies <==================
	-----------------------------------------------------------
	 SCS Same-Spin Scale       =       0.3333333333333333 [-]
	 SCS Opposite-Spin Scale   =       1.2000000000000000 [-]
	 SCS Same-Spin Energy      =      -0.1579532869505002 [Eh]
	 SCS Opposite-Spin Energy  =      -1.7408932414884932 [Eh]
	 SCS Correlation Energy    =      -1.8988465284389935 [Eh]
	 SCS Total Energy          =    -843.3626301145764046 [Eh]
	-----------------------------------------------------------

  Dipole Moment: [D]
     X:    -2.2477      Y:    -2.8692      Z:     1.4403     Total:     3.9191

*** Psi4 exiting successfully. Buy a developer a beer!
