                               Psi4 1.4a3.dev225

  ==> Input File <==

--------------------------------------------------------------------------
#psi4
#
memory 32 gb

molecule  {
0 1
 Cl        0.2076870     2.2487580     0.1866360
  O        2.2653220     0.2846580    -0.8778020
  C        0.1642190    -0.4887810    -0.0665560
  C       -0.5729690     0.7033250     0.0302020
  C       -0.5420740    -1.7002010    -0.1332520
  C        1.6090869    -0.6288126    -0.2486897
  C       -1.9684630     0.6780340     0.0679080
  C       -1.9349490    -1.7304420    -0.1201220
  C       -2.6487990    -0.5355840    -0.0206560
  C        2.3930500    -1.5536810     0.6569590
  H        0.0096830    -2.6331730    -0.2140200
  H       -2.5123770     1.6138940     0.1595600
  H       -2.4587670    -2.6802070    -0.1882350
  H       -3.7356500    -0.5434820    -0.0013820
  H        2.2064120    -2.5587800     0.2654600
  H        2.0546340    -1.5354670     1.6969810
  H        3.4631710    -1.3484660     0.6031360
units angstrom
no_reorient  #important for SAPT in psi4, default
symmetry c1  #important for SAPT in psi4, default
}

set PROPERTIES_ORIGIN ["COM"]
properties('MP2/aug-cc-pvtz', properties = ['dipole'])
--------------------------------------------------------------------------

    Molecular point group: c1
  Charge       = 0
  Multiplicity = 1
  Basis Set: AUG-CC-PVTZ
    Blend: AUG-CC-PVTZ
  Basis Set: (AUG-CC-PVTZ AUX)
    Blend: AUG-CC-PVTZ-JKFIT

    Orbital Energies [Eh]
    ---------------------

    Doubly Occupied:

       1A   -104.841470     2A    -20.549210     3A    -11.349613
       4A    -11.325522     5A    -11.272001     6A    -11.269620
       7A    -11.267575     8A    -11.262925     9A    -11.259493
      10A    -11.245614    11A    -10.565142    12A     -8.032037
      13A     -8.030066    14A     -8.029998    15A     -1.345722
      16A     -1.201846    17A     -1.128620    18A     -1.073796
      19A     -1.014453    20A     -1.001049    21A     -0.881427
      22A     -0.844401    23A     -0.774335    24A     -0.703173
      25A     -0.670825    26A     -0.661214    27A     -0.632899
      28A     -0.609054    29A     -0.605346    30A     -0.594113
      31A     -0.564271    32A     -0.550946    33A     -0.535717
      34A     -0.523812    35A     -0.481830    36A     -0.471411
      37A     -0.454794    38A     -0.420714    39A     -0.363690
      40A     -0.346186

  @DF-RHF Final Energy:  -841.50380845476263

   => Energetics <=

    Nuclear Repulsion Energy =            563.0098005350538415
    One-Electron Energy =               -2271.5153567122688401
    Two-Electron Energy =                 867.0017477224524782
    Total Energy =                       -841.5038084547626340
  Basis Set: (AUG-CC-PVTZ AUX)
    Blend: AUG-CC-PVTZ-RI
    Molecular point group: c1

    Geometry (in Angstrom), charge = 0, multiplicity = 1:

       Center              X                  Y                   Z               Mass
    ------------   -----------------  -----------------  -----------------  -----------------
         CL           0.204408667745     2.181529830655     0.207313613157    34.968852682000
         O            2.262043667745     0.217429830655    -0.857124386843    15.994914619570
         C            0.160940667745    -0.556009169345    -0.045878386843    12.000000000000
         C           -0.576247332255     0.636096830655     0.050879613157    12.000000000000
         C           -0.545352332255    -1.767429169345    -0.112574386843    12.000000000000
         C            1.605808567745    -0.696040769345    -0.228012086843    12.000000000000
         C           -1.971741332255     0.610805830655     0.088585613157    12.000000000000
         C           -1.938227332255    -1.797670169345    -0.099444386843    12.000000000000
         C           -2.652077332255    -0.602812169345     0.000021613157    12.000000000000
         C            2.389771667745    -1.620909169345     0.677636613157    12.000000000000
         H            0.006404667745    -2.700401169345    -0.193342386843     1.007825032230
         H           -2.515655332255     1.546665830655     0.180237613157     1.007825032230
         H           -2.462045332255    -2.747435169345    -0.167557386843     1.007825032230
         H           -3.738928332255    -0.610710169345     0.019295613157     1.007825032230
         H            2.203133667745    -2.626008169345     0.286137613157     1.007825032230
         H            2.051355667745    -1.602695169345     1.717658613157     1.007825032230
         H            3.459892667745    -1.415694169345     0.623813613157     1.007825032230

  Basis Set: AUG-CC-PVTZ
    Blend: AUG-CC-PVTZ
  Basis Set: (AUG-CC-PVTZ AUX)
    Blend: AUG-CC-PVTZ-JKFIT
	 Reference Energy          =    -841.5038084547626340 [Eh]
	 Singles Energy            =      -0.0000000000000000 [Eh]
	 Same-Spin Energy          =      -0.4767812228124286 [Eh]
	 Opposite-Spin Energy      =      -1.4549344011726757 [Eh]
	 Correlation Energy        =      -1.9317156239851043 [Eh]
	 Total Energy              =    -843.4355240787477896 [Eh]

	 ================> DF-SCS-MP2 Energies <==================
	-----------------------------------------------------------
	 SCS Same-Spin Scale       =       0.3333333333333333 [-]
	 SCS Opposite-Spin Scale   =       1.2000000000000000 [-]
	 SCS Same-Spin Energy      =      -0.1589270742708095 [Eh]
	 SCS Opposite-Spin Energy  =      -1.7459212814072107 [Eh]
	 SCS Correlation Energy    =      -1.9048483556780202 [Eh]
	 SCS Total Energy          =    -843.4086568104406751 [Eh]
	-----------------------------------------------------------

  Dipole Moment: [D]
     X:    -2.5111      Y:    -3.0554      Z:     1.4612     Total:     4.2162

*** Psi4 exiting successfully. Buy a developer a beer!
