                               Psi4 1.4a3.dev225

  ==> Input File <==

--------------------------------------------------------------------------
#psi4
#
memory 32 gb

molecule  {
0 1
 Cl        0.2076870     2.2487580     0.1866360
  O        2.2653220     0.2846580    -0.8778020
  C        0.1642190    -0.4887810    -0.0665560
  C       -0.5729690     0.7033250     0.0302020
  C       -0.5521361    -1.7174594    -0.1342022
  C        1.6632570    -0.5094160    -0.1597980
  C       -1.9684630     0.6780340     0.0679080
  C       -1.9349490    -1.7304420    -0.1201220
  C       -2.6487990    -0.5355840    -0.0206560
  C        2.3930500    -1.5536810     0.6569590
  H        0.0096830    -2.6331730    -0.2140200
  H       -2.5123770     1.6138940     0.1595600
  H       -2.4587670    -2.6802070    -0.1882350
  H       -3.7356500    -0.5434820    -0.0013820
  H        2.2064120    -2.5587800     0.2654600
  H        2.0546340    -1.5354670     1.6969810
  H        3.4631710    -1.3484660     0.6031360
units angstrom
no_reorient  #important for SAPT in psi4, default
symmetry c1  #important for SAPT in psi4, default
}

set PROPERTIES_ORIGIN ["COM"]
properties('MP2/aug-cc-pvtz', properties = ['dipole'])
--------------------------------------------------------------------------

    Molecular point group: c1
  Charge       = 0
  Multiplicity = 1
  Basis Set: AUG-CC-PVTZ
    Blend: AUG-CC-PVTZ
  Basis Set: (AUG-CC-PVTZ AUX)
    Blend: AUG-CC-PVTZ-JKFIT

    Orbital Energies [Eh]
    ---------------------

    Doubly Occupied:

       1A   -104.841277     2A    -20.553180     3A    -11.346207
       4A    -11.320521     5A    -11.272119     6A    -11.267570
       7A    -11.264185     8A    -11.260400     9A    -11.257117
      10A    -11.243116    11A    -10.565054    12A     -8.031950
      13A     -8.029989    14A     -8.029933    15A     -1.383948
      16A     -1.198643    17A     -1.126895    18A     -1.064698
      19A     -1.014631    20A     -0.999355    21A     -0.877549
      22A     -0.837257    23A     -0.770836    24A     -0.704971
      25A     -0.668882    26A     -0.664567    27A     -0.633599
      28A     -0.621106    29A     -0.604154    30A     -0.594557
      31A     -0.564576    32A     -0.552531    33A     -0.537419
      34A     -0.523115    35A     -0.497133    36A     -0.473844
      37A     -0.457873    38A     -0.419930    39A     -0.359784
      40A     -0.345735

  @DF-RHF Final Energy:  -841.52631368456593

   => Energetics <=

    Nuclear Repulsion Energy =            563.3079681328616743
    One-Electron Energy =               -2272.1081514001484720
    Two-Electron Energy =                 867.2738695827207493
    Total Energy =                       -841.5263136845659346
  Basis Set: (AUG-CC-PVTZ AUX)
    Blend: AUG-CC-PVTZ-RI
    Molecular point group: c1

    Geometry (in Angstrom), charge = 0, multiplicity = 1:

       Center              X                  Y                   Z               Mass
    ------------   -----------------  -----------------  -----------------  -----------------
         CL           0.200972094516     2.173571968051     0.200461853735    34.968852682000
         O            2.258607094516     0.209471968051    -0.863976146265    15.994914619570
         C            0.157504094516    -0.563967031949    -0.052730146265    12.000000000000
         C           -0.579683905484     0.628138968051     0.044027853735    12.000000000000
         C           -0.558851005484    -1.792645431949    -0.120376346265    12.000000000000
         C            1.656542094516    -0.584602031949    -0.145972146265    12.000000000000
         C           -1.975177905484     0.602847968051     0.081733853735    12.000000000000
         C           -1.941663905484    -1.805628031949    -0.106296146265    12.000000000000
         C           -2.655513905484    -0.610770031949    -0.006830146265    12.000000000000
         C            2.386335094516    -1.628867031949     0.670784853735    12.000000000000
         H            0.002968094516    -2.708359031949    -0.200194146265     1.007825032230
         H           -2.519091905484     1.538707968051     0.173385853735     1.007825032230
         H           -2.465481905484    -2.755393031949    -0.174409146265     1.007825032230
         H           -3.742364905484    -0.618668031949     0.012443853735     1.007825032230
         H            2.199697094516    -2.633966031949     0.279285853735     1.007825032230
         H            2.047919094516    -1.610653031949     1.710806853735     1.007825032230
         H            3.456456094516    -1.423652031949     0.616961853735     1.007825032230

  Basis Set: AUG-CC-PVTZ
    Blend: AUG-CC-PVTZ
  Basis Set: (AUG-CC-PVTZ AUX)
    Blend: AUG-CC-PVTZ-JKFIT
	 Reference Energy          =    -841.5263136845659346 [Eh]
	 Singles Energy            =      -0.0000000000000000 [Eh]
	 Same-Spin Energy          =      -0.4742236051287303 [Eh]
	 Opposite-Spin Energy      =      -1.4491721219047906 [Eh]
	 Correlation Energy        =      -1.9233957270335209 [Eh]
	 Total Energy              =    -843.4497094115994287 [Eh]

	 ================> DF-SCS-MP2 Energies <==================
	-----------------------------------------------------------
	 SCS Same-Spin Scale       =       0.3333333333333333 [-]
	 SCS Opposite-Spin Scale   =       1.2000000000000000 [-]
	 SCS Same-Spin Energy      =      -0.1580745350429101 [Eh]
	 SCS Opposite-Spin Energy  =      -1.7390065462857487 [Eh]
	 SCS Correlation Energy    =      -1.8970810813286587 [Eh]
	 SCS Total Energy          =    -843.4233947658946136 [Eh]
	-----------------------------------------------------------

  Dipole Moment: [D]
     X:    -2.2104      Y:    -2.9904      Z:     1.4279     Total:     3.9834

*** Psi4 exiting successfully. Buy a developer a beer!
