                               Psi4 1.4a3.dev225

  ==> Input File <==

--------------------------------------------------------------------------
#psi4
#
memory 32 gb

molecule  {
0 1
 Cl        0.2076870     2.2487580     0.1866360
  O        2.2653220     0.2846580    -0.8778020
  C        0.1642190    -0.4887810    -0.0665560
  C       -0.5729690     0.7033250     0.0302020
  C       -0.5420740    -1.7002010    -0.1332520
  C        1.6632570    -0.5094160    -0.1597980
  C       -1.9684630     0.6780340     0.0679080
  C       -1.9349490    -1.7304420    -0.1201220
  C       -2.6487990    -0.5355840    -0.0206560
  C        2.3448258    -1.4846767     0.6029883
  H        0.0096830    -2.6331730    -0.2140200
  H       -2.5123770     1.6138940     0.1595600
  H       -2.4587670    -2.6802070    -0.1882350
  H       -3.7356500    -0.5434820    -0.0013820
  H        2.2064120    -2.5587800     0.2654600
  H        2.0546340    -1.5354670     1.6969810
  H        3.4631710    -1.3484660     0.6031360
units angstrom
no_reorient  #important for SAPT in psi4, default
symmetry c1  #important for SAPT in psi4, default
}

set PROPERTIES_ORIGIN ["COM"]
properties('MP2/aug-cc-pvtz', properties = ['dipole'])
--------------------------------------------------------------------------

    Molecular point group: c1
  Charge       = 0
  Multiplicity = 1
  Basis Set: AUG-CC-PVTZ
    Blend: AUG-CC-PVTZ
  Basis Set: (AUG-CC-PVTZ AUX)
    Blend: AUG-CC-PVTZ-JKFIT

    Orbital Energies [Eh]
    ---------------------

    Doubly Occupied:

       1A   -104.840763     2A    -20.551071     3A    -11.340733
       4A    -11.319784     5A    -11.269678     6A    -11.266686
       7A    -11.263366     8A    -11.259593     9A    -11.257515
      10A    -11.247827    11A    -10.564535    12A     -8.031431
      13A     -8.029473    14A     -8.029417    15A     -1.385480
      16A     -1.199109    17A     -1.126519    18A     -1.073225
      19A     -1.018505    20A     -1.002997    21A     -0.874885
      22A     -0.837010    23A     -0.773063    24A     -0.709612
      25A     -0.670509    26A     -0.666739    27A     -0.636473
      28A     -0.628540    29A     -0.602432    30A     -0.592297
      31A     -0.552193    32A     -0.551343    33A     -0.528359
      34A     -0.522390    35A     -0.489546    36A     -0.472909
      37A     -0.458501    38A     -0.425348    39A     -0.361256
      40A     -0.343905

  @DF-RHF Final Energy:  -841.51543328383650

   => Energetics <=

    Nuclear Repulsion Energy =            565.5620835316458397
    One-Electron Energy =               -2276.6050051332817930
    Two-Electron Energy =                 869.5274883177994525
    Total Energy =                       -841.5154332838365008
  Basis Set: (AUG-CC-PVTZ AUX)
    Blend: AUG-CC-PVTZ-RI
    Molecular point group: c1

    Geometry (in Angstrom), charge = 0, multiplicity = 1:

       Center              X                  Y                   Z               Mass
    ------------   -----------------  -----------------  -----------------  -----------------
         CL           0.203945406641     2.166851008463     0.204592823873    34.968852682000
         O            2.261580406641     0.202751008463    -0.859845176127    15.994914619570
         C            0.160477406641    -0.570687991537    -0.048599176127    12.000000000000
         C           -0.576710593359     0.621418008463     0.048158823873    12.000000000000
         C           -0.545815593359    -1.782107991537    -0.115295176127    12.000000000000
         C            1.659515406641    -0.591322991537    -0.141841176127    12.000000000000
         C           -1.972204593359     0.596127008463     0.085864823873    12.000000000000
         C           -1.938690593359    -1.812348991537    -0.102165176127    12.000000000000
         C           -2.652540593359    -0.617490991537    -0.002699176127    12.000000000000
         C            2.341084206641    -1.566583691537     0.620945123873    12.000000000000
         H            0.005941406641    -2.715079991537    -0.196063176127     1.007825032230
         H           -2.516118593359     1.531987008463     0.177516823873     1.007825032230
         H           -2.462508593359    -2.762113991537    -0.170278176127     1.007825032230
         H           -3.739391593359    -0.625388991537     0.016574823873     1.007825032230
         H            2.202670406641    -2.640686991537     0.283416823873     1.007825032230
         H            2.050892406641    -1.617373991537     1.714937823873     1.007825032230
         H            3.459429406641    -1.430372991537     0.621092823873     1.007825032230

  Basis Set: AUG-CC-PVTZ
    Blend: AUG-CC-PVTZ
  Basis Set: (AUG-CC-PVTZ AUX)
    Blend: AUG-CC-PVTZ-JKFIT
	 Reference Energy          =    -841.5154332838365008 [Eh]
	 Singles Energy            =      -0.0000000000000000 [Eh]
	 Same-Spin Energy          =      -0.4753553843629701 [Eh]
	 Opposite-Spin Energy      =      -1.4503019462759652 [Eh]
	 Correlation Energy        =      -1.9256573306389353 [Eh]
	 Total Energy              =    -843.4410906144754563 [Eh]

	 ================> DF-SCS-MP2 Energies <==================
	-----------------------------------------------------------
	 SCS Same-Spin Scale       =       0.3333333333333333 [-]
	 SCS Opposite-Spin Scale   =       1.2000000000000000 [-]
	 SCS Same-Spin Energy      =      -0.1584517947876567 [Eh]
	 SCS Opposite-Spin Energy  =      -1.7403623355311582 [Eh]
	 SCS Correlation Energy    =      -1.8988141303188149 [Eh]
	 SCS Total Energy          =    -843.4142474141552839 [Eh]
	-----------------------------------------------------------

  Dipole Moment: [D]
     X:    -2.0960      Y:    -3.1338      Z:     1.5271     Total:     4.0677

*** Psi4 exiting successfully. Buy a developer a beer!
