                               Psi4 1.4a3.dev225

  ==> Input File <==

--------------------------------------------------------------------------
#psi4
#
memory 32 gb

molecule  {
0 1
 Cl        0.2076870     2.2487580     0.1866360
  O        2.2653220     0.2846580    -0.8778020
  C        0.1642190    -0.4887810    -0.0665560
  C       -0.5729690     0.7033250     0.0302020
  C       -0.5672293    -1.7433469    -0.1356274
  C        1.6632570    -0.5094160    -0.1597980
  C       -1.9684630     0.6780340     0.0679080
  C       -1.9349490    -1.7304420    -0.1201220
  C       -2.6487990    -0.5355840    -0.0206560
  C        2.3930500    -1.5536810     0.6569590
  H        0.0096830    -2.6331730    -0.2140200
  H       -2.5123770     1.6138940     0.1595600
  H       -2.4587670    -2.6802070    -0.1882350
  H       -3.7356500    -0.5434820    -0.0013820
  H        2.2064120    -2.5587800     0.2654600
  H        2.0546340    -1.5354670     1.6969810
  H        3.4631710    -1.3484660     0.6031360
units angstrom
no_reorient  #important for SAPT in psi4, default
symmetry c1  #important for SAPT in psi4, default
}

set PROPERTIES_ORIGIN ["COM"]
properties('MP2/aug-cc-pvtz', properties = ['dipole'])
--------------------------------------------------------------------------

    Molecular point group: c1
  Charge       = 0
  Multiplicity = 1
  Basis Set: AUG-CC-PVTZ
    Blend: AUG-CC-PVTZ
  Basis Set: (AUG-CC-PVTZ AUX)
    Blend: AUG-CC-PVTZ-JKFIT

    Orbital Energies [Eh]
    ---------------------

    Doubly Occupied:

       1A   -104.841349     2A    -20.552966     3A    -11.346106
       4A    -11.320683     5A    -11.274315     6A    -11.267710
       7A    -11.264564     8A    -11.260900     9A    -11.255806
      10A    -11.243178    11A    -10.565126    12A     -8.032022
      13A     -8.030060    14A     -8.030004    15A     -1.383719
      16A     -1.197554    17A     -1.127228    18A     -1.062235
      19A     -1.016960    20A     -0.998493    21A     -0.879380
      22A     -0.836390    23A     -0.769318    24A     -0.706096
      25A     -0.669865    26A     -0.664957    27A     -0.632443
      28A     -0.620057    29A     -0.604504    30A     -0.595572
      31A     -0.565112    32A     -0.553196    33A     -0.538876
      34A     -0.520875    35A     -0.495935    36A     -0.474265
      37A     -0.457747    38A     -0.419972    39A     -0.357419
      40A     -0.347285

  @DF-RHF Final Energy:  -841.52374588829014

   => Energetics <=

    Nuclear Repulsion Energy =            562.8544379790466792
    One-Electron Energy =               -2271.1958824779844690
    Two-Electron Energy =                 866.8176986106476534
    Total Energy =                       -841.5237458882901365
  Basis Set: (AUG-CC-PVTZ AUX)
    Blend: AUG-CC-PVTZ-RI
    Molecular point group: c1

    Geometry (in Angstrom), charge = 0, multiplicity = 1:

       Center              X                  Y                   Z               Mass
    ------------   -----------------  -----------------  -----------------  -----------------
         CL           0.202148046431     2.175588932988     0.200572894910    34.968852682000
         O            2.259783046431     0.211488932988    -0.863865105090    15.994914619570
         C            0.158680046431    -0.561950067012    -0.052619105090    12.000000000000
         C           -0.578507953569     0.630155932988     0.044138894910    12.000000000000
         C           -0.572768253569    -1.816515967012    -0.121690505090    12.000000000000
         C            1.657718046431    -0.582585067012    -0.145861105090    12.000000000000
         C           -1.974001953569     0.604864932988     0.081844894910    12.000000000000
         C           -1.940487953569    -1.803611067012    -0.106185105090    12.000000000000
         C           -2.654337953569    -0.608753067012    -0.006719105090    12.000000000000
         C            2.387511046431    -1.626850067012     0.670895894910    12.000000000000
         H            0.004144046431    -2.706342067012    -0.200083105090     1.007825032230
         H           -2.517915953569     1.540724932988     0.173496894910     1.007825032230
         H           -2.464305953569    -2.753376067012    -0.174298105090     1.007825032230
         H           -3.741188953569    -0.616651067012     0.012554894910     1.007825032230
         H            2.200873046431    -2.631949067012     0.279396894910     1.007825032230
         H            2.049095046431    -1.608636067012     1.710917894910     1.007825032230
         H            3.457632046431    -1.421635067012     0.617072894910     1.007825032230

  Basis Set: AUG-CC-PVTZ
    Blend: AUG-CC-PVTZ
  Basis Set: (AUG-CC-PVTZ AUX)
    Blend: AUG-CC-PVTZ-JKFIT
	 Reference Energy          =    -841.5237458882901365 [Eh]
	 Singles Energy            =      -0.0000000000000000 [Eh]
	 Same-Spin Energy          =      -0.4741967748064994 [Eh]
	 Opposite-Spin Energy      =      -1.4493264623301076 [Eh]
	 Correlation Energy        =      -1.9235232371366071 [Eh]
	 Total Energy              =    -843.4472691254267147 [Eh]

	 ================> DF-SCS-MP2 Energies <==================
	-----------------------------------------------------------
	 SCS Same-Spin Scale       =       0.3333333333333333 [-]
	 SCS Opposite-Spin Scale   =       1.2000000000000000 [-]
	 SCS Same-Spin Energy      =      -0.1580655916021664 [Eh]
	 SCS Opposite-Spin Energy  =      -1.7391917547961291 [Eh]
	 SCS Correlation Energy    =      -1.8972573463982956 [Eh]
	 SCS Total Energy          =    -843.4210032346884418 [Eh]
	-----------------------------------------------------------

  Dipole Moment: [D]
     X:    -2.2192      Y:    -2.9895      Z:     1.4287     Total:     3.9879

*** Psi4 exiting successfully. Buy a developer a beer!
