                               Psi4 1.4a3.dev225

  ==> Input File <==

--------------------------------------------------------------------------
#psi4
#
memory 32 gb

molecule  {
0 1
 Cl        0.2076870     2.2487580     0.1866360
  O        2.2653220     0.2846580    -0.8778020
  C        0.1642190    -0.4887810    -0.0665560
  C       -0.5729690     0.7033250     0.0302020
  C       -0.5420740    -1.7002010    -0.1332520
  C        1.6632570    -0.5094160    -0.1597980
  C       -1.9684630     0.6780340     0.0679080
  C       -1.9349490    -1.7304420    -0.1201220
  C       -2.6487990    -0.5355840    -0.0206560
  C        2.3930500    -1.5536810     0.6569590
  H        0.0096830    -2.6331730    -0.2140200
  H       -2.5123770     1.6138940     0.1595600
  H       -2.5551657    -2.8549931    -0.2007699
  H       -3.7356500    -0.5434820    -0.0013820
  H        2.2064120    -2.5587800     0.2654600
  H        2.0546340    -1.5354670     1.6969810
  H        3.4631710    -1.3484660     0.6031360
units angstrom
no_reorient  #important for SAPT in psi4, default
symmetry c1  #important for SAPT in psi4, default
}

set PROPERTIES_ORIGIN ["COM"]
properties('MP2/aug-cc-pvtz', properties = ['dipole'])
--------------------------------------------------------------------------

    Molecular point group: c1
  Charge       = 0
  Multiplicity = 1
  Basis Set: AUG-CC-PVTZ
    Blend: AUG-CC-PVTZ
  Basis Set: (AUG-CC-PVTZ AUX)
    Blend: AUG-CC-PVTZ-JKFIT

    Orbital Energies [Eh]
    ---------------------

    Doubly Occupied:

       1A   -104.841960     2A    -20.554159     3A    -11.347175
       4A    -11.321331     5A    -11.279363     6A    -11.272052
       7A    -11.269403     8A    -11.266011     9A    -11.261651
      10A    -11.243577    11A    -10.565731    12A     -8.032627
      13A     -8.030666    14A     -8.030610    15A     -1.384892
      16A     -1.200435    17A     -1.126560    18A     -1.067425
      19A     -1.011762    20A     -0.997994    21A     -0.877518
      22A     -0.834537    23A     -0.763037    24A     -0.698997
      25A     -0.670259    26A     -0.663966    27A     -0.631474
      28A     -0.622376    29A     -0.599066    30A     -0.579981
      31A     -0.565115    32A     -0.553520    33A     -0.537266
      34A     -0.513044    35A     -0.495619    36A     -0.474756
      37A     -0.458666    38A     -0.420449    39A     -0.363209
      40A     -0.345498

  @DF-RHF Final Energy:  -841.50458242157970

   => Energetics <=

    Nuclear Repulsion Energy =            562.6657463131816712
    One-Electron Energy =               -2270.7931834691585209
    Two-Electron Energy =                 866.6228547343971513
    Total Energy =                       -841.5045824215796983
  Basis Set: (AUG-CC-PVTZ AUX)
    Blend: AUG-CC-PVTZ-RI
    Molecular point group: c1

    Geometry (in Angstrom), charge = 0, multiplicity = 1:

       Center              X                  Y                   Z               Mass
    ------------   -----------------  -----------------  -----------------  -----------------
         CL           0.200818917004     2.173371037743     0.200469843591    34.968852682000
         O            2.258453917004     0.209271037743    -0.863968156409    15.994914619570
         C            0.157350917004    -0.564167962257    -0.052722156409    12.000000000000
         C           -0.579837082996     0.627938037743     0.044035843591    12.000000000000
         C           -0.548942082996    -1.775587962257    -0.119418156409    12.000000000000
         C            1.656388917004    -0.584802962257    -0.145964156409    12.000000000000
         C           -1.975331082996     0.602647037743     0.081741843591    12.000000000000
         C           -1.941817082996    -1.805828962257    -0.106288156409    12.000000000000
         C           -2.655667082996    -0.610970962257    -0.006822156409    12.000000000000
         C            2.386181917004    -1.629067962257     0.670792843591    12.000000000000
         H            0.002814917004    -2.708559962257    -0.200186156409     1.007825032230
         H           -2.519245082996     1.538507037743     0.173393843591     1.007825032230
         H           -2.562033782996    -2.930380062257    -0.186936056409     1.007825032230
         H           -3.742518082996    -0.618868962257     0.012451843591     1.007825032230
         H            2.199543917004    -2.634166962257     0.279293843591     1.007825032230
         H            2.047765917004    -1.610853962257     1.710814843591     1.007825032230
         H            3.456302917004    -1.423852962257     0.616969843591     1.007825032230

  Basis Set: AUG-CC-PVTZ
    Blend: AUG-CC-PVTZ
  Basis Set: (AUG-CC-PVTZ AUX)
    Blend: AUG-CC-PVTZ-JKFIT
	 Reference Energy          =    -841.5045824215796983 [Eh]
	 Singles Energy            =      -0.0000000000000000 [Eh]
	 Same-Spin Energy          =      -0.4747141795175948 [Eh]
	 Opposite-Spin Energy      =      -1.4513378848255547 [Eh]
	 Correlation Energy        =      -1.9260520643431496 [Eh]
	 Total Energy              =    -843.4306344859228375 [Eh]

	 ================> DF-SCS-MP2 Energies <==================
	-----------------------------------------------------------
	 SCS Same-Spin Scale       =       0.3333333333333333 [-]
	 SCS Opposite-Spin Scale   =       1.2000000000000000 [-]
	 SCS Same-Spin Energy      =      -0.1582380598391983 [Eh]
	 SCS Opposite-Spin Energy  =      -1.7416054617906656 [Eh]
	 SCS Correlation Energy    =      -1.8998435216298639 [Eh]
	 SCS Total Energy          =    -843.4044259432096169 [Eh]
	-----------------------------------------------------------

  Dipole Moment: [D]
     X:    -2.1469      Y:    -2.9132      Z:     1.4323     Total:     3.8920

*** Psi4 exiting successfully. Buy a developer a beer!
