                               Psi4 1.4a3.dev225

  ==> Input File <==

--------------------------------------------------------------------------
#psi4
#
memory 32 gb

molecule  {
0 1
 Cl        0.2076870     2.2487580     0.1866360
  O        2.2653220     0.2846580    -0.8778020
  C        0.1642190    -0.4887810    -0.0665560
  C       -0.5729690     0.7033250     0.0302020
  C       -0.5420740    -1.7002010    -0.1332520
  C        1.5291352    -0.5829399    -0.1186002
  C       -1.9684630     0.6780340     0.0679080
  C       -1.9349490    -1.7304420    -0.1201220
  C       -2.6487990    -0.5355840    -0.0206560
  C        2.3930500    -1.5536810     0.6569590
  H        0.0096830    -2.6331730    -0.2140200
  H       -2.5123770     1.6138940     0.1595600
  H       -2.4587670    -2.6802070    -0.1882350
  H       -3.7356500    -0.5434820    -0.0013820
  H        2.2064120    -2.5587800     0.2654600
  H        2.0546340    -1.5354670     1.6969810
  H        3.4631710    -1.3484660     0.6031360
units angstrom
no_reorient  #important for SAPT in psi4, default
symmetry c1  #important for SAPT in psi4, default
}

set PROPERTIES_ORIGIN ["COM"]
properties('MP2/aug-cc-pvtz', properties = ['dipole'])
--------------------------------------------------------------------------

    Molecular point group: c1
  Charge       = 0
  Multiplicity = 1
  Basis Set: AUG-CC-PVTZ
    Blend: AUG-CC-PVTZ
  Basis Set: (AUG-CC-PVTZ AUX)
    Blend: AUG-CC-PVTZ-JKFIT

    Orbital Energies [Eh]
    ---------------------

    Doubly Occupied:

       1A   -104.844096     2A    -20.537325     3A    -11.348592
       4A    -11.331253     5A    -11.277213     6A    -11.273660
       7A    -11.269928     8A    -11.266259     9A    -11.263766
      10A    -11.247115    11A    -10.567690    12A     -8.034575
      13A     -8.032594    14A     -8.032510    15A     -1.301364
      16A     -1.206847    17A     -1.132958    18A     -1.087620
      19A     -1.018587    20A     -1.002248    21A     -0.899843
      22A     -0.850068    23A     -0.781624    24A     -0.704690
      25A     -0.677260    26A     -0.657834    27A     -0.633518
      28A     -0.611804    29A     -0.605512    30A     -0.586051
      31A     -0.563017    32A     -0.547909    33A     -0.540900
      34A     -0.521047    35A     -0.479395    36A     -0.466643
      37A     -0.443672    38A     -0.417075    39A     -0.364918
      40A     -0.349181

  @DF-RHF Final Energy:  -841.47723088677583

   => Energetics <=

    Nuclear Repulsion Energy =            564.0796934856454072
    One-Electron Energy =               -2273.5575220766700113
    Two-Electron Energy =                 868.0005977042488894
    Total Energy =                       -841.4772308867758284
  Basis Set: (AUG-CC-PVTZ AUX)
    Blend: AUG-CC-PVTZ-RI
    Molecular point group: c1

    Geometry (in Angstrom), charge = 0, multiplicity = 1:

       Center              X                  Y                   Z               Mass
    ------------   -----------------  -----------------  -----------------  -----------------
         CL           0.210637920303     2.177955764890     0.197177989391    34.968852682000
         O            2.268272920303     0.213855764890    -0.867260010609    15.994914619570
         C            0.167169920303    -0.559583235110    -0.056014010609    12.000000000000
         C           -0.570018079697     0.632522764890     0.040743989391    12.000000000000
         C           -0.539123079697    -1.771003235110    -0.122710010609    12.000000000000
         C            1.532086120303    -0.653742135110    -0.108058210609    12.000000000000
         C           -1.965512079697     0.607231764890     0.078449989391    12.000000000000
         C           -1.931998079697    -1.801244235110    -0.109580010609    12.000000000000
         C           -2.645848079697    -0.606386235110    -0.010114010609    12.000000000000
         C            2.396000920303    -1.624483235110     0.667500989391    12.000000000000
         H            0.012633920303    -2.703975235110    -0.203478010609     1.007825032230
         H           -2.509426079697     1.543091764890     0.170101989391     1.007825032230
         H           -2.455816079697    -2.751009235110    -0.177693010609     1.007825032230
         H           -3.732699079697    -0.614284235110     0.009159989391     1.007825032230
         H            2.209362920303    -2.629582235110     0.276001989391     1.007825032230
         H            2.057584920303    -1.606269235110     1.707522989391     1.007825032230
         H            3.466121920303    -1.419268235110     0.613677989391     1.007825032230

  Basis Set: AUG-CC-PVTZ
    Blend: AUG-CC-PVTZ
  Basis Set: (AUG-CC-PVTZ AUX)
    Blend: AUG-CC-PVTZ-JKFIT
	 Reference Energy          =    -841.4772308867758284 [Eh]
	 Singles Energy            =      -0.0000000000000000 [Eh]
	 Same-Spin Energy          =      -0.4801374804332326 [Eh]
	 Opposite-Spin Energy      =      -1.4609346930049205 [Eh]
	 Correlation Energy        =      -1.9410721734381531 [Eh]
	 Total Energy              =    -843.4183030602139297 [Eh]

	 ================> DF-SCS-MP2 Energies <==================
	-----------------------------------------------------------
	 SCS Same-Spin Scale       =       0.3333333333333333 [-]
	 SCS Opposite-Spin Scale   =       1.2000000000000000 [-]
	 SCS Same-Spin Energy      =      -0.1600458268110775 [Eh]
	 SCS Opposite-Spin Energy  =      -1.7531216316059046 [Eh]
	 SCS Correlation Energy    =      -1.9131674584169822 [Eh]
	 SCS Total Energy          =    -843.3903983451928070 [Eh]
	-----------------------------------------------------------

  Dipole Moment: [D]
     X:    -2.9008      Y:    -3.0611      Z:     1.5973     Total:     4.5096

*** Psi4 exiting successfully. Buy a developer a beer!
