                               Psi4 1.4a3.dev225

  ==> Input File <==

--------------------------------------------------------------------------
#psi4
#
memory 32 gb

molecule  {
0 1
 Cl        0.2076870     2.2487580     0.1866360
  O        2.2653220     0.2846580    -0.8778020
  C        0.1642190    -0.4887810    -0.0665560
  C       -0.5729690     0.7033250     0.0302020
  C       -0.5923846    -1.7864928    -0.1380029
  C        1.6632570    -0.5094160    -0.1597980
  C       -1.9684630     0.6780340     0.0679080
  C       -1.9349490    -1.7304420    -0.1201220
  C       -2.6487990    -0.5355840    -0.0206560
  C        2.3930500    -1.5536810     0.6569590
  H        0.0096830    -2.6331730    -0.2140200
  H       -2.5123770     1.6138940     0.1595600
  H       -2.4587670    -2.6802070    -0.1882350
  H       -3.7356500    -0.5434820    -0.0013820
  H        2.2064120    -2.5587800     0.2654600
  H        2.0546340    -1.5354670     1.6969810
  H        3.4631710    -1.3484660     0.6031360
units angstrom
no_reorient  #important for SAPT in psi4, default
symmetry c1  #important for SAPT in psi4, default
}

set PROPERTIES_ORIGIN ["COM"]
properties('MP2/aug-cc-pvtz', properties = ['dipole'])
--------------------------------------------------------------------------

    Molecular point group: c1
  Charge       = 0
  Multiplicity = 1
  Basis Set: AUG-CC-PVTZ
    Blend: AUG-CC-PVTZ
  Basis Set: (AUG-CC-PVTZ AUX)
    Blend: AUG-CC-PVTZ-JKFIT

    Orbital Energies [Eh]
    ---------------------

    Doubly Occupied:

       1A   -104.841434     2A    -20.552602     3A    -11.345913
       4A    -11.320891     5A    -11.277391     6A    -11.267813
       7A    -11.265163     8A    -11.261793     9A    -11.253739
      10A    -11.243266    11A    -10.565212    12A     -8.032107
      13A     -8.030144    14A     -8.030088    15A     -1.383333
      16A     -1.196062    17A     -1.128043    18A     -1.058600
      19A     -1.020987    20A     -0.996810    21A     -0.882253
      22A     -0.835339    23A     -0.767087    24A     -0.708197
      25A     -0.673523    26A     -0.664542    27A     -0.630579
      28A     -0.618003    29A     -0.605067    30A     -0.596629
      31A     -0.566411    32A     -0.554361    33A     -0.540294
      34A     -0.516849    35A     -0.492934    36A     -0.475137
      37A     -0.457384    38A     -0.419800    39A     -0.357192
      40A     -0.346843

  @DF-RHF Final Energy:  -841.51538635108693

   => Energetics <=

    Nuclear Repulsion Energy =            562.1238408492931740
    One-Electron Energy =               -2269.7188195851103956
    Two-Electron Energy =                 866.0795923847302902
    Total Energy =                       -841.5153863510869314
  Basis Set: (AUG-CC-PVTZ AUX)
    Blend: AUG-CC-PVTZ-RI
    Molecular point group: c1

    Geometry (in Angstrom), charge = 0, multiplicity = 1:

       Center              X                  Y                   Z               Mass
    ------------   -----------------  -----------------  -----------------  -----------------
         CL           0.204107963691     2.178950546411     0.200757976521    34.968852682000
         O            2.261742963691     0.214850546411    -0.863680023479    15.994914619570
         C            0.160639963691    -0.558588453589    -0.052434023479    12.000000000000
         C           -0.576548036309     0.633517546411     0.044323976521    12.000000000000
         C           -0.595963636309    -1.856300253589    -0.123880923479    12.000000000000
         C            1.659677963691    -0.579223453589    -0.145676023479    12.000000000000
         C           -1.972042036309     0.608226546411     0.082029976521    12.000000000000
         C           -1.938528036309    -1.800249453589    -0.106000023479    12.000000000000
         C           -2.652378036309    -0.605391453589    -0.006534023479    12.000000000000
         C            2.389470963691    -1.623488453589     0.671080976521    12.000000000000
         H            0.006103963691    -2.702980453589    -0.199898023479     1.007825032230
         H           -2.515956036309     1.544086546411     0.173681976521     1.007825032230
         H           -2.462346036309    -2.750014453589    -0.174113023479     1.007825032230
         H           -3.739229036309    -0.613289453589     0.012739976521     1.007825032230
         H            2.202832963691    -2.628587453589     0.279581976521     1.007825032230
         H            2.051054963691    -1.605274453589     1.711102976521     1.007825032230
         H            3.459591963691    -1.418273453589     0.617257976521     1.007825032230

  Basis Set: AUG-CC-PVTZ
    Blend: AUG-CC-PVTZ
  Basis Set: (AUG-CC-PVTZ AUX)
    Blend: AUG-CC-PVTZ-JKFIT
	 Reference Energy          =    -841.5153863510869314 [Eh]
	 Singles Energy            =      -0.0000000000000000 [Eh]
	 Same-Spin Energy          =      -0.4741144526472737 [Eh]
	 Opposite-Spin Energy      =      -1.4498031548275110 [Eh]
	 Correlation Energy        =      -1.9239176074747846 [Eh]
	 Total Energy              =    -843.4393039585617089 [Eh]

	 ================> DF-SCS-MP2 Energies <==================
	-----------------------------------------------------------
	 SCS Same-Spin Scale       =       0.3333333333333333 [-]
	 SCS Opposite-Spin Scale   =       1.2000000000000000 [-]
	 SCS Same-Spin Energy      =      -0.1580381508824246 [Eh]
	 SCS Opposite-Spin Energy  =      -1.7397637857930131 [Eh]
	 SCS Correlation Energy    =      -1.8978019366754375 [Eh]
	 SCS Total Energy          =    -843.4131882877624093 [Eh]
	-----------------------------------------------------------

  Dipole Moment: [D]
     X:    -2.2347      Y:    -2.9889      Z:     1.4299     Total:     3.9965

*** Psi4 exiting successfully. Buy a developer a beer!
