                               Psi4 1.4a3.dev225

  ==> Input File <==

--------------------------------------------------------------------------
#psi4
#
memory 32 gb

molecule  {
0 1
 Cl        0.2076870     2.2487580     0.1866360
  O        2.2653220     0.2846580    -0.8778020
  C        0.1642190    -0.4887810    -0.0665560
  C       -0.5729690     0.7033250     0.0302020
  C       -0.5420740    -1.7002010    -0.1332520
  C        1.6632570    -0.5094160    -0.1597980
  C       -1.9684630     0.6780340     0.0679080
  C       -1.9349490    -1.7304420    -0.1201220
  C       -2.6487990    -0.5355840    -0.0206560
  C        2.3930500    -1.5536810     0.6569590
  H        0.0096830    -2.6331730    -0.2140200
  H       -2.5123770     1.6138940     0.1595600
  H       -2.4587670    -2.6802070    -0.1882350
  H       -3.7356500    -0.5434820    -0.0013820
  H        2.1321735    -2.5476337     0.2796917
  H        2.0546340    -1.5354670     1.6969810
  H        3.4631710    -1.3484660     0.6031360
units angstrom
no_reorient  #important for SAPT in psi4, default
symmetry c1  #important for SAPT in psi4, default
}

set PROPERTIES_ORIGIN ["COM"]
properties('MP2/aug-cc-pvtz', properties = ['dipole'])
--------------------------------------------------------------------------

    Molecular point group: c1
  Charge       = 0
  Multiplicity = 1
  Basis Set: AUG-CC-PVTZ
    Blend: AUG-CC-PVTZ
  Basis Set: (AUG-CC-PVTZ AUX)
    Blend: AUG-CC-PVTZ-JKFIT

    Orbital Energies [Eh]
    ---------------------

    Doubly Occupied:

       1A   -104.841256     2A    -20.552820     3A    -11.345817
       4A    -11.320497     5A    -11.270717     6A    -11.267622
       7A    -11.264023     8A    -11.260241     9A    -11.258190
      10A    -11.243487    11A    -10.565031    12A     -8.031927
      13A     -8.029967    14A     -8.029912    15A     -1.383782
      16A     -1.199588    17A     -1.126872    18A     -1.066923
      19A     -1.013440    20A     -1.000121    21A     -0.876231
      22A     -0.838001    23A     -0.771442    24A     -0.704484
      25A     -0.669167    26A     -0.664205    27A     -0.635559
      28A     -0.619032    29A     -0.603859    30A     -0.593650
      31A     -0.568574    32A     -0.551739    33A     -0.536508
      34A     -0.524468    35A     -0.496888    36A     -0.473688
      37A     -0.457639    38A     -0.419354    39A     -0.362039
      40A     -0.344491

  @DF-RHF Final Energy:  -841.52640775356679

   => Energetics <=

    Nuclear Repulsion Energy =            563.7445257306555959
    One-Electron Energy =               -2272.9753663877841063
    Two-Electron Energy =                 867.7044329035617238
    Total Energy =                       -841.5264077535667866
  Basis Set: (AUG-CC-PVTZ AUX)
    Blend: AUG-CC-PVTZ-RI
    Molecular point group: c1

    Geometry (in Angstrom), charge = 0, multiplicity = 1:

       Center              X                  Y                   Z               Mass
    ------------   -----------------  -----------------  -----------------  -----------------
         CL           0.200673911059     2.172154383411     0.200294695527    34.968852682000
         O            2.258308911059     0.208054383411    -0.864143304473    15.994914619570
         C            0.157205911059    -0.565384616589    -0.052897304473    12.000000000000
         C           -0.579982088941     0.626721383411     0.043860695527    12.000000000000
         C           -0.549087088941    -1.776804616589    -0.119593304473    12.000000000000
         C            1.656243911059    -0.586019616589    -0.146139304473    12.000000000000
         C           -1.975476088941     0.601430383411     0.081566695527    12.000000000000
         C           -1.941962088941    -1.807045616589    -0.106463304473    12.000000000000
         C           -2.655812088941    -0.612187616589    -0.006997304473    12.000000000000
         C            2.386036911059    -1.630284616589     0.670617695527    12.000000000000
         H            0.002669911059    -2.709776616589    -0.200361304473     1.007825032230
         H           -2.519390088941     1.537290383411     0.173218695527     1.007825032230
         H           -2.465780088941    -2.756810616589    -0.174576304473     1.007825032230
         H           -3.742663088941    -0.620085616589     0.012276695527     1.007825032230
         H            2.125160411059    -2.624237316589     0.293350395527     1.007825032230
         H            2.047620911059    -1.612070616589     1.710639695527     1.007825032230
         H            3.456157911059    -1.425069616589     0.616794695527     1.007825032230

  Basis Set: AUG-CC-PVTZ
    Blend: AUG-CC-PVTZ
  Basis Set: (AUG-CC-PVTZ AUX)
    Blend: AUG-CC-PVTZ-JKFIT
	 Reference Energy          =    -841.5264077535667866 [Eh]
	 Singles Energy            =      -0.0000000000000000 [Eh]
	 Same-Spin Energy          =      -0.4743100615808289 [Eh]
	 Opposite-Spin Energy      =      -1.4491874541096850 [Eh]
	 Correlation Energy        =      -1.9234975156905139 [Eh]
	 Total Energy              =    -843.4499052692573287 [Eh]

	 ================> DF-SCS-MP2 Energies <==================
	-----------------------------------------------------------
	 SCS Same-Spin Scale       =       0.3333333333333333 [-]
	 SCS Opposite-Spin Scale   =       1.2000000000000000 [-]
	 SCS Same-Spin Energy      =      -0.1581033538602763 [Eh]
	 SCS Opposite-Spin Energy  =      -1.7390249449316220 [Eh]
	 SCS Correlation Energy    =      -1.8971282987918983 [Eh]
	 SCS Total Energy          =    -843.4235360523587133 [Eh]
	-----------------------------------------------------------

  Dipole Moment: [D]
     X:    -2.2339      Y:    -2.9796      Z:     1.4468     Total:     3.9952

*** Psi4 exiting successfully. Buy a developer a beer!
