                               Psi4 1.4a3.dev225

  ==> Input File <==

--------------------------------------------------------------------------
#psi4
#
memory 32 gb

molecule  {
0 1
 Cl        0.2076870     2.2487580     0.1866360
  O        2.2653220     0.2846580    -0.8778020
  C        0.1642190    -0.4887810    -0.0665560
  C       -0.5729690     0.7033250     0.0302020
  C       -0.5420740    -1.7002010    -0.1332520
  C        1.5652197    -0.6387191    -0.0428818
  C       -1.9684630     0.6780340     0.0679080
  C       -1.9349490    -1.7304420    -0.1201220
  C       -2.6487990    -0.5355840    -0.0206560
  C        2.3930500    -1.5536810     0.6569590
  H        0.0096830    -2.6331730    -0.2140200
  H       -2.5123770     1.6138940     0.1595600
  H       -2.4587670    -2.6802070    -0.1882350
  H       -3.7356500    -0.5434820    -0.0013820
  H        2.2064120    -2.5587800     0.2654600
  H        2.0546340    -1.5354670     1.6969810
  H        3.4631710    -1.3484660     0.6031360
units angstrom
no_reorient  #important for SAPT in psi4, default
symmetry c1  #important for SAPT in psi4, default
}

set PROPERTIES_ORIGIN ["COM"]
properties('MP2/aug-cc-pvtz', properties = ['dipole'])
--------------------------------------------------------------------------

    Molecular point group: c1
  Charge       = 0
  Multiplicity = 1
  Basis Set: AUG-CC-PVTZ
    Blend: AUG-CC-PVTZ
  Basis Set: (AUG-CC-PVTZ AUX)
    Blend: AUG-CC-PVTZ-JKFIT

    Orbital Energies [Eh]
    ---------------------

    Doubly Occupied:

       1A   -104.841605     2A    -20.533262     3A    -11.355682
       4A    -11.329809     5A    -11.275873     6A    -11.274281
       7A    -11.271360     8A    -11.265404     9A    -11.262502
      10A    -11.250203    11A    -10.565184    12A     -8.032071
      13A     -8.030090    14A     -8.030004    15A     -1.277605
      16A     -1.202253    17A     -1.131122    18A     -1.087918
      19A     -1.031266    20A     -1.012002    21A     -0.892832
      22A     -0.849299    23A     -0.779774    24A     -0.706836
      25A     -0.674582    26A     -0.663241    27A     -0.635260
      28A     -0.622969    29A     -0.605917    30A     -0.597267
      31A     -0.561047    32A     -0.547991    33A     -0.534238
      34A     -0.507553    35A     -0.476090    36A     -0.462138
      37A     -0.433731    38A     -0.414519    39A     -0.361863
      40A     -0.346721

  @DF-RHF Final Energy:  -841.45434015933461

   => Energetics <=

    Nuclear Repulsion Energy =            563.2656432456567472
    One-Electron Energy =               -2271.9732448929976272
    Two-Electron Energy =                 867.2532614880062738
    Total Energy =                       -841.4543401593346061
  Basis Set: (AUG-CC-PVTZ AUX)
    Blend: AUG-CC-PVTZ-RI
    Molecular point group: c1

    Geometry (in Angstrom), charge = 0, multiplicity = 1:

       Center              X                  Y                   Z               Mass
    ------------   -----------------  -----------------  -----------------  -----------------
         CL           0.207826479596     2.182301672786     0.191278564653    34.968852682000
         O            2.265461479596     0.218201672786    -0.873159435347    15.994914619570
         C            0.164358479596    -0.555237327214    -0.061913435347    12.000000000000
         C           -0.572829520404     0.636868672786     0.034844564653    12.000000000000
         C           -0.541934520404    -1.766657327214    -0.128609435347    12.000000000000
         C            1.565359179596    -0.705175427214    -0.038239235347    12.000000000000
         C           -1.968323520404     0.611577672786     0.072550564653    12.000000000000
         C           -1.934809520404    -1.796898327214    -0.115479435347    12.000000000000
         C           -2.648659520404    -0.602040327214    -0.016013435347    12.000000000000
         C            2.393189479596    -1.620137327214     0.661601564653    12.000000000000
         H            0.009822479596    -2.699629327214    -0.209377435347     1.007825032230
         H           -2.512237520404     1.547437672786     0.164202564653     1.007825032230
         H           -2.458627520404    -2.746663327214    -0.183592435347     1.007825032230
         H           -3.735510520404    -0.609938327214     0.003260564653     1.007825032230
         H            2.206551479596    -2.625236327214     0.270102564653     1.007825032230
         H            2.054773479596    -1.601923327214     1.701623564653     1.007825032230
         H            3.463310479596    -1.414922327214     0.607778564653     1.007825032230

  Basis Set: AUG-CC-PVTZ
    Blend: AUG-CC-PVTZ
  Basis Set: (AUG-CC-PVTZ AUX)
    Blend: AUG-CC-PVTZ-JKFIT
	 Reference Energy          =    -841.4543401593346061 [Eh]
	 Singles Energy            =      -0.0000000000000000 [Eh]
	 Same-Spin Energy          =      -0.4826755693825301 [Eh]
	 Opposite-Spin Energy      =      -1.4655252230081013 [Eh]
	 Correlation Energy        =      -1.9482007923906313 [Eh]
	 Total Energy              =    -843.4025409517252001 [Eh]

	 ================> DF-SCS-MP2 Energies <==================
	-----------------------------------------------------------
	 SCS Same-Spin Scale       =       0.3333333333333333 [-]
	 SCS Opposite-Spin Scale   =       1.2000000000000000 [-]
	 SCS Same-Spin Energy      =      -0.1608918564608434 [Eh]
	 SCS Opposite-Spin Energy  =      -1.7586302676097214 [Eh]
	 SCS Correlation Energy    =      -1.9195221240705647 [Eh]
	 SCS Total Energy          =    -843.3738622834051739 [Eh]
	-----------------------------------------------------------

  Dipole Moment: [D]
     X:    -2.5361      Y:    -3.2832      Z:     1.7632     Total:     4.5078

*** Psi4 exiting successfully. Buy a developer a beer!
