                               Psi4 1.4a3.dev225

  ==> Input File <==

--------------------------------------------------------------------------
#psi4
#
memory 32 gb

molecule  {
0 1
 Cl        0.2076870     2.2487580     0.1866360
  O        2.2653220     0.2846580    -0.8778020
  C        0.1642190    -0.4887810    -0.0665560
  C       -0.5729690     0.7033250     0.0302020
  C       -0.5420740    -1.7002010    -0.1332520
  C        1.6632570    -0.5094160    -0.1597980
  C       -1.9684630     0.6780340     0.0679080
  C       -1.9349490    -1.7304420    -0.1201220
  C       -2.6487990    -0.5355840    -0.0206560
  C        2.3930500    -1.5536810     0.6569590
  H        0.0096830    -2.6331730    -0.2140200
  H       -2.4873421     1.5708189     0.1553415
  H       -2.4587670    -2.6802070    -0.1882350
  H       -3.7356500    -0.5434820    -0.0013820
  H        2.2064120    -2.5587800     0.2654600
  H        2.0546340    -1.5354670     1.6969810
  H        3.4631710    -1.3484660     0.6031360
units angstrom
no_reorient  #important for SAPT in psi4, default
symmetry c1  #important for SAPT in psi4, default
}

set PROPERTIES_ORIGIN ["COM"]
properties('MP2/aug-cc-pvtz', properties = ['dipole'])
--------------------------------------------------------------------------

    Molecular point group: c1
  Charge       = 0
  Multiplicity = 1
  Basis Set: AUG-CC-PVTZ
    Blend: AUG-CC-PVTZ
  Basis Set: (AUG-CC-PVTZ AUX)
    Blend: AUG-CC-PVTZ-JKFIT

    Orbital Energies [Eh]
    ---------------------

    Doubly Occupied:

       1A   -104.841332     2A    -20.553242     3A    -11.346162
       4A    -11.320107     5A    -11.270299     6A    -11.267331
       7A    -11.263602     8A    -11.257779     9A    -11.254522
      10A    -11.243003    11A    -10.565108    12A     -8.032005
      13A     -8.030047    14A     -8.029991    15A     -1.384027
      16A     -1.199690    17A     -1.126713    18A     -1.067137
      19A     -1.014385    20A     -0.999718    21A     -0.877009
      22A     -0.840190    23A     -0.773569    24A     -0.705286
      25A     -0.669336    26A     -0.664588    27A     -0.638988
      28A     -0.622131    29A     -0.604272    30A     -0.594374
      31A     -0.564243    32A     -0.552591    33A     -0.537268
      34A     -0.525329    35A     -0.497858    36A     -0.473593
      37A     -0.458070    38A     -0.419750    39A     -0.361767
      40A     -0.344257

  @DF-RHF Final Energy:  -841.52616512356394

   => Energetics <=

    Nuclear Repulsion Energy =            563.8913408151333897
    One-Electron Energy =               -2273.2536719785398418
    Two-Electron Energy =                 867.8361660398425101
    Total Energy =                       -841.5261651235639420
  Basis Set: (AUG-CC-PVTZ AUX)
    Blend: AUG-CC-PVTZ-RI
    Molecular point group: c1

    Geometry (in Angstrom), charge = 0, multiplicity = 1:

       Center              X                  Y                   Z               Mass
    ------------   -----------------  -----------------  -----------------  -----------------
         CL           0.200024312538     2.172509182796     0.200415424974    34.968852682000
         O            2.257659312538     0.208409182796    -0.864022575026    15.994914619570
         C            0.156556312538    -0.565029817204    -0.052776575026    12.000000000000
         C           -0.580631687462     0.627076182796     0.043981424974    12.000000000000
         C           -0.549736687462    -1.776449817204    -0.119472575026    12.000000000000
         C            1.655594312538    -0.585664817204    -0.146018575026    12.000000000000
         C           -1.976125687462     0.601785182796     0.081687424974    12.000000000000
         C           -1.942611687462    -1.806690817204    -0.106342575026    12.000000000000
         C           -2.656461687462    -0.611832817204    -0.006876575026    12.000000000000
         C            2.385387312538    -1.629929817204     0.670738424974    12.000000000000
         H            0.002020312538    -2.709421817204    -0.200240575026     1.007825032230
         H           -2.495004787462     1.494570082796     0.169120924974     1.007825032230
         H           -2.466429687462    -2.756455817204    -0.174455575026     1.007825032230
         H           -3.743312687462    -0.619730817204     0.012397424974     1.007825032230
         H            2.198749312538    -2.635028817204     0.279239424974     1.007825032230
         H            2.046971312538    -1.611715817204     1.710760424974     1.007825032230
         H            3.455508312538    -1.424714817204     0.616915424974     1.007825032230

  Basis Set: AUG-CC-PVTZ
    Blend: AUG-CC-PVTZ
  Basis Set: (AUG-CC-PVTZ AUX)
    Blend: AUG-CC-PVTZ-JKFIT
	 Reference Energy          =    -841.5261651235639420 [Eh]
	 Singles Energy            =      -0.0000000000000000 [Eh]
	 Same-Spin Energy          =      -0.4741069134078600 [Eh]
	 Opposite-Spin Energy      =      -1.4488188541397991 [Eh]
	 Correlation Energy        =      -1.9229257675476590 [Eh]
	 Total Energy              =    -843.4490908911116094 [Eh]

	 ================> DF-SCS-MP2 Energies <==================
	-----------------------------------------------------------
	 SCS Same-Spin Scale       =       0.3333333333333333 [-]
	 SCS Opposite-Spin Scale   =       1.2000000000000000 [-]
	 SCS Same-Spin Energy      =      -0.1580356378026200 [Eh]
	 SCS Opposite-Spin Energy  =      -1.7385826249677587 [Eh]
	 SCS Correlation Energy    =      -1.8966182627703787 [Eh]
	 SCS Total Energy          =    -843.4227833863343449 [Eh]
	-----------------------------------------------------------

  Dipole Moment: [D]
     X:    -2.2061      Y:    -2.9900      Z:     1.4276     Total:     3.9806

*** Psi4 exiting successfully. Buy a developer a beer!
