                               Psi4 1.4a3.dev225

  ==> Input File <==

--------------------------------------------------------------------------
#psi4
#
memory 32 gb

molecule  {
0 1
 Cl        0.2076870     2.2487580     0.1866360
  O        2.2653220     0.2846580    -0.8778020
  C        0.1642190    -0.4887810    -0.0665560
  C       -0.5729690     0.7033250     0.0302020
  C       -0.5420740    -1.7002010    -0.1332520
  C        1.6632570    -0.5094160    -0.1597980
  C       -1.9684630     0.6780340     0.0679080
  C       -1.9351159    -1.6819655    -0.1162435
  C       -2.6487990    -0.5355840    -0.0206560
  C        2.3930500    -1.5536810     0.6569590
  H        0.0096830    -2.6331730    -0.2140200
  H       -2.5123770     1.6138940     0.1595600
  H       -2.4587670    -2.6802070    -0.1882350
  H       -3.7356500    -0.5434820    -0.0013820
  H        2.2064120    -2.5587800     0.2654600
  H        2.0546340    -1.5354670     1.6969810
  H        3.4631710    -1.3484660     0.6031360
units angstrom
no_reorient  #important for SAPT in psi4, default
symmetry c1  #important for SAPT in psi4, default
}

set PROPERTIES_ORIGIN ["COM"]
properties('MP2/aug-cc-pvtz', properties = ['dipole'])
--------------------------------------------------------------------------

    Molecular point group: c1
  Charge       = 0
  Multiplicity = 1
  Basis Set: AUG-CC-PVTZ
    Blend: AUG-CC-PVTZ
  Basis Set: (AUG-CC-PVTZ AUX)
    Blend: AUG-CC-PVTZ-JKFIT

    Orbital Energies [Eh]
    ---------------------

    Doubly Occupied:

       1A   -104.840572     2A    -20.553586     3A    -11.346308
       4A    -11.319044     5A    -11.270892     6A    -11.267429
       7A    -11.260475     8A    -11.258628     9A    -11.256634
      10A    -11.243441    11A    -10.564351    12A     -8.031250
      13A     -8.029288    14A     -8.029235    15A     -1.384329
      16A     -1.201652    17A     -1.129093    18A     -1.069273
      19A     -1.011918    20A     -1.000777    21A     -0.879093
      22A     -0.837634    23A     -0.768092    24A     -0.705147
      25A     -0.671704    26A     -0.664478    27A     -0.634392
      28A     -0.621789    29A     -0.600721    30A     -0.589288
      31A     -0.566269    32A     -0.555195    33A     -0.539182
      34A     -0.518852    35A     -0.497327    36A     -0.475854
      37A     -0.457595    38A     -0.419628    39A     -0.363109
      40A     -0.345459

  @DF-RHF Final Energy:  -841.52402925282627

   => Energetics <=

    Nuclear Repulsion Energy =            564.4465689117373586
    One-Electron Energy =               -2274.3832307562265669
    Two-Electron Energy =                 868.4126325916629412
    Total Energy =                       -841.5240292528262671
  Basis Set: (AUG-CC-PVTZ AUX)
    Blend: AUG-CC-PVTZ-RI
    Molecular point group: c1

    Geometry (in Angstrom), charge = 0, multiplicity = 1:

       Center              X                  Y                   Z               Mass
    ------------   -----------------  -----------------  -----------------  -----------------
         CL           0.200201132799     2.168450384720     0.200085636696    34.968852682000
         O            2.257836132799     0.204350384720    -0.864352363304    15.994914619570
         C            0.156733132799    -0.569088615280    -0.053106363304    12.000000000000
         C           -0.580454867201     0.623017384720     0.043651636696    12.000000000000
         C           -0.549559867201    -1.780508615280    -0.119802363304    12.000000000000
         C            1.655771132799    -0.589723615280    -0.146348363304    12.000000000000
         C           -1.975948867201     0.597726384720     0.081357636696    12.000000000000
         C           -1.942601767201    -1.762273115280    -0.102793863304    12.000000000000
         C           -2.656284867201    -0.615891615280    -0.007206363304    12.000000000000
         C            2.385564132799    -1.633988615280     0.670408636696    12.000000000000
         H            0.002197132799    -2.713480615280    -0.200570363304     1.007825032230
         H           -2.519862867201     1.533586384720     0.173009636696     1.007825032230
         H           -2.466252867201    -2.760514615280    -0.174785363304     1.007825032230
         H           -3.743135867201    -0.623789615280     0.012067636696     1.007825032230
         H            2.198926132799    -2.639087615280     0.278909636696     1.007825032230
         H            2.047148132799    -1.615774615280     1.710430636696     1.007825032230
         H            3.455685132799    -1.428773615280     0.616585636696     1.007825032230

  Basis Set: AUG-CC-PVTZ
    Blend: AUG-CC-PVTZ
  Basis Set: (AUG-CC-PVTZ AUX)
    Blend: AUG-CC-PVTZ-JKFIT
	 Reference Energy          =    -841.5240292528262671 [Eh]
	 Singles Energy            =      -0.0000000000000000 [Eh]
	 Same-Spin Energy          =      -0.4743059675724128 [Eh]
	 Opposite-Spin Energy      =      -1.4490666980629587 [Eh]
	 Correlation Energy        =      -1.9233726656353716 [Eh]
	 Total Energy              =    -843.4474019184616509 [Eh]

	 ================> DF-SCS-MP2 Energies <==================
	-----------------------------------------------------------
	 SCS Same-Spin Scale       =       0.3333333333333333 [-]
	 SCS Opposite-Spin Scale   =       1.2000000000000000 [-]
	 SCS Same-Spin Energy      =      -0.1581019891908043 [Eh]
	 SCS Opposite-Spin Energy  =      -1.7388800376755504 [Eh]
	 SCS Correlation Energy    =      -1.8969820268663546 [Eh]
	 SCS Total Energy          =    -843.4210112796926069 [Eh]
	-----------------------------------------------------------

  Dipole Moment: [D]
     X:    -2.1856      Y:    -2.9802      Z:     1.4295     Total:     3.9626

*** Psi4 exiting successfully. Buy a developer a beer!
