                               Psi4 1.4a3.dev225

  ==> Input File <==

--------------------------------------------------------------------------
#psi4
#
memory 32 gb

molecule  {
0 1
 Cl        0.2076870     2.2487580     0.1866360
  O        2.2653220     0.2846580    -0.8778020
  C        0.1642190    -0.4887810    -0.0665560
  C       -0.5729690     0.7033250     0.0302020
  C       -0.5420740    -1.7002010    -0.1332520
  C        1.6632570    -0.5094160    -0.1597980
  C       -1.9684630     0.6780340     0.0679080
  C       -1.9349490    -1.7304420    -0.1201220
  C       -2.6487990    -0.5355840    -0.0206560
  C        2.3930500    -1.5536810     0.6569590
  H        0.0096830    -2.6331730    -0.2140200
  H       -2.5123770     1.6138940     0.1595600
  H       -2.4587670    -2.6802070    -0.1882350
  H       -3.7356500    -0.5434820    -0.0013820
  H        2.2815598    -2.5650295     0.2531356
  H        2.0546340    -1.5354670     1.6969810
  H        3.4631710    -1.3484660     0.6031360
units angstrom
no_reorient  #important for SAPT in psi4, default
symmetry c1  #important for SAPT in psi4, default
}

set PROPERTIES_ORIGIN ["COM"]
properties('MP2/aug-cc-pvtz', properties = ['dipole'])
--------------------------------------------------------------------------

    Molecular point group: c1
  Charge       = 0
  Multiplicity = 1
  Basis Set: AUG-CC-PVTZ
    Blend: AUG-CC-PVTZ
  Basis Set: (AUG-CC-PVTZ AUX)
    Blend: AUG-CC-PVTZ-JKFIT

    Orbital Energies [Eh]
    ---------------------

    Doubly Occupied:

       1A   -104.841193     2A    -20.553727     3A    -11.346732
       4A    -11.320323     5A    -11.270370     6A    -11.267199
       7A    -11.263851     8A    -11.259941     9A    -11.257833
      10A    -11.242672    11A    -10.564971    12A     -8.031867
      13A     -8.029908    14A     -8.029852    15A     -1.384365
      16A     -1.199361    17A     -1.126646    18A     -1.066054
      19A     -1.012968    20A     -0.999589    21A     -0.876384
      22A     -0.837907    23A     -0.772382    24A     -0.704116
      25A     -0.668856    26A     -0.663479    27A     -0.633307
      28A     -0.624730    29A     -0.603885    30A     -0.593808
      31A     -0.559780    32A     -0.552586    33A     -0.535725
      34A     -0.524255    35A     -0.498226    36A     -0.473521
      37A     -0.458164    38A     -0.420257    39A     -0.361708
      40A     -0.344290

  @DF-RHF Final Energy:  -841.52631535317687

   => Energetics <=

    Nuclear Repulsion Energy =            563.4999297539487770
    One-Electron Energy =               -2272.4989150365481692
    Two-Electron Energy =                 867.4726699294224090
    Total Energy =                       -841.5263153531768694
  Basis Set: (AUG-CC-PVTZ AUX)
    Blend: AUG-CC-PVTZ-RI
    Molecular point group: c1

    Geometry (in Angstrom), charge = 0, multiplicity = 1:

       Center              X                  Y                   Z               Mass
    ------------   -----------------  -----------------  -----------------  -----------------
         CL           0.199696397248     2.172268213359     0.200468466178    34.968852682000
         O            2.257331397248     0.208168213359    -0.863969533822    15.994914619570
         C            0.156228397248    -0.565270786641    -0.052723533822    12.000000000000
         C           -0.580959602752     0.626835213359     0.044034466178    12.000000000000
         C           -0.550064602752    -1.776690786641    -0.119419533822    12.000000000000
         C            1.655266397248    -0.585905786641    -0.145965533822    12.000000000000
         C           -1.976453602752     0.601544213359     0.081740466178    12.000000000000
         C           -1.942939602752    -1.806931786641    -0.106289533822    12.000000000000
         C           -2.656789602752    -0.612073786641    -0.006823533822    12.000000000000
         C            2.385059397248    -1.630170786641     0.670791466178    12.000000000000
         H            0.001692397248    -2.709662786641    -0.200187533822     1.007825032230
         H           -2.520367602752     1.537404213359     0.173392466178     1.007825032230
         H           -2.466757602752    -2.756696786641    -0.174402533822     1.007825032230
         H           -3.743640602752    -0.619971786641     0.012450466178     1.007825032230
         H            2.273569197248    -2.641519286641     0.266968066178     1.007825032230
         H            2.046643397248    -1.611956786641     1.710813466178     1.007825032230
         H            3.455180397248    -1.424955786641     0.616968466178     1.007825032230

  Basis Set: AUG-CC-PVTZ
    Blend: AUG-CC-PVTZ
  Basis Set: (AUG-CC-PVTZ AUX)
    Blend: AUG-CC-PVTZ-JKFIT
	 Reference Energy          =    -841.5263153531768694 [Eh]
	 Singles Energy            =      -0.0000000000000000 [Eh]
	 Same-Spin Energy          =      -0.4742106737884753 [Eh]
	 Opposite-Spin Energy      =      -1.4491407255550053 [Eh]
	 Correlation Energy        =      -1.9233513993434805 [Eh]
	 Total Energy              =    -843.4496667525203293 [Eh]

	 ================> DF-SCS-MP2 Energies <==================
	-----------------------------------------------------------
	 SCS Same-Spin Scale       =       0.3333333333333333 [-]
	 SCS Opposite-Spin Scale   =       1.2000000000000000 [-]
	 SCS Same-Spin Energy      =      -0.1580702245961584 [Eh]
	 SCS Opposite-Spin Energy  =      -1.7389688706660063 [Eh]
	 SCS Correlation Energy    =      -1.8970390952621647 [Eh]
	 SCS Total Energy          =    -843.4233544484389995 [Eh]
	-----------------------------------------------------------

  Dipole Moment: [D]
     X:    -2.1735      Y:    -3.0009      Z:     1.4096     Total:     3.9644

*** Psi4 exiting successfully. Buy a developer a beer!
