                               Psi4 1.4a3.dev225

  ==> Input File <==

--------------------------------------------------------------------------
#psi4
#
memory 32 gb

molecule  {
0 1
 Cl        0.2076870     2.2487580     0.1866360
  O        2.2653220     0.2846580    -0.8778020
  C        0.1642190    -0.4887810    -0.0665560
  C       -0.5729690     0.7033250     0.0302020
  C       -0.5420740    -1.7002010    -0.1332520
  C        1.6632570    -0.5094160    -0.1597980
  C       -1.9684630     0.6780340     0.0679080
  C       -1.9349490    -1.7304420    -0.1201220
  C       -2.6487990    -0.5355840    -0.0206560
  C        2.3930500    -1.5536810     0.6569590
  H        0.0096830    -2.6331730    -0.2140200
  H       -2.5123770     1.6138940     0.1595600
  H       -2.4587670    -2.6802070    -0.1882350
  H       -3.7356500    -0.5434820    -0.0013820
  H        2.2149368    -2.5128717     0.2833419
  H        2.0546340    -1.5354670     1.6969810
  H        3.4631710    -1.3484660     0.6031360
units angstrom
no_reorient  #important for SAPT in psi4, default
symmetry c1  #important for SAPT in psi4, default
}

set PROPERTIES_ORIGIN ["COM"]
properties('MP2/aug-cc-pvtz', properties = ['dipole'])
--------------------------------------------------------------------------

    Molecular point group: c1
  Charge       = 0
  Multiplicity = 1
  Basis Set: AUG-CC-PVTZ
    Blend: AUG-CC-PVTZ
  Basis Set: (AUG-CC-PVTZ AUX)
    Blend: AUG-CC-PVTZ-JKFIT

    Orbital Energies [Eh]
    ---------------------

    Doubly Occupied:

       1A   -104.841191     2A    -20.553089     3A    -11.345895
       4A    -11.320394     5A    -11.270539     6A    -11.267543
       7A    -11.263956     8A    -11.260127     9A    -11.258103
      10A    -11.237064    11A    -10.564967    12A     -8.031863
      13A     -8.029903    14A     -8.029848    15A     -1.383878
      16A     -1.199485    17A     -1.126784    18A     -1.067199
      19A     -1.014603    20A     -1.001965    21A     -0.876798
      22A     -0.838150    23A     -0.772642    24A     -0.705037
      25A     -0.668970    26A     -0.664289    27A     -0.635795
      28A     -0.623781    29A     -0.605302    30A     -0.595172
      31A     -0.565735    32A     -0.552409    33A     -0.536100
      34A     -0.524430    35A     -0.498854    36A     -0.473664
      37A     -0.458028    38A     -0.419661    39A     -0.361906
      40A     -0.344405

  @DF-RHF Final Energy:  -841.52596663281656

   => Energetics <=

    Nuclear Repulsion Energy =            563.8421035368145340
    One-Electron Energy =               -2273.1570965963528579
    Two-Electron Energy =                 867.7890264267216480
    Total Energy =                       -841.5259666328165622
  Basis Set: (AUG-CC-PVTZ AUX)
    Blend: AUG-CC-PVTZ-RI
    Molecular point group: c1

    Geometry (in Angstrom), charge = 0, multiplicity = 1:

       Center              X                  Y                   Z               Mass
    ------------   -----------------  -----------------  -----------------  -----------------
         CL           0.200132346881     2.171926917203     0.200270810332    34.968852682000
         O            2.257767346881     0.207826917203    -0.864167189668    15.994914619570
         C            0.156664346881    -0.565612082797    -0.052921189668    12.000000000000
         C           -0.580523653119     0.626493917203     0.043836810332    12.000000000000
         C           -0.549628653119    -1.777032082797    -0.119617189668    12.000000000000
         C            1.655702346881    -0.586247082797    -0.146163189668    12.000000000000
         C           -1.976017653119     0.601202917203     0.081542810332    12.000000000000
         C           -1.942503653119    -1.807273082797    -0.106487189668    12.000000000000
         C           -2.656353653119    -0.612415082797    -0.007021189668    12.000000000000
         C            2.385495346881    -1.630512082797     0.670593810332    12.000000000000
         H            0.002128346881    -2.710004082797    -0.200385189668     1.007825032230
         H           -2.519931653119     1.537062917203     0.173194810332     1.007825032230
         H           -2.466321653119    -2.757038082797    -0.174600189668     1.007825032230
         H           -3.743204653119    -0.620313082797     0.012252810332     1.007825032230
         H            2.207382146881    -2.589702782797     0.296976710332     1.007825032230
         H            2.047079346881    -1.612298082797     1.710615810332     1.007825032230
         H            3.455616346881    -1.425297082797     0.616770810332     1.007825032230

  Basis Set: AUG-CC-PVTZ
    Blend: AUG-CC-PVTZ
  Basis Set: (AUG-CC-PVTZ AUX)
    Blend: AUG-CC-PVTZ-JKFIT
	 Reference Energy          =    -841.5259666328165622 [Eh]
	 Singles Energy            =      -0.0000000000000000 [Eh]
	 Same-Spin Energy          =      -0.4742045679237966 [Eh]
	 Opposite-Spin Energy      =      -1.4488425505340115 [Eh]
	 Correlation Energy        =      -1.9230471184578080 [Eh]
	 Total Energy              =    -843.4490137512743786 [Eh]

	 ================> DF-SCS-MP2 Energies <==================
	-----------------------------------------------------------
	 SCS Same-Spin Scale       =       0.3333333333333333 [-]
	 SCS Opposite-Spin Scale   =       1.2000000000000000 [-]
	 SCS Same-Spin Energy      =      -0.1580681893079322 [Eh]
	 SCS Opposite-Spin Energy  =      -1.7386110606408136 [Eh]
	 SCS Correlation Energy    =      -1.8966792499487457 [Eh]
	 SCS Total Energy          =    -843.4226458827653232 [Eh]
	-----------------------------------------------------------

  Dipole Moment: [D]
     X:    -2.2086      Y:    -2.9996      Z:     1.4244     Total:     3.9880

*** Psi4 exiting successfully. Buy a developer a beer!
