                               Psi4 1.4a3.dev225

  ==> Input File <==

--------------------------------------------------------------------------
#psi4
#
memory 32 gb

molecule  {
0 1
 Cl        0.2076870     2.2487580     0.1866360
  O        2.2653220     0.2846580    -0.8778020
  C        0.1642190    -0.4887810    -0.0665560
  C       -0.5729690     0.7033250     0.0302020
  C       -0.5420740    -1.7002010    -0.1332520
  C        1.6632570    -0.5094160    -0.1597980
  C       -1.9684630     0.6780340     0.0679080
  C       -1.9349490    -1.7304420    -0.1201220
  C       -2.7306918    -0.5882093    -0.0238995
  C        2.3930500    -1.5536810     0.6569590
  H        0.0096830    -2.6331730    -0.2140200
  H       -2.5123770     1.6138940     0.1595600
  H       -2.4587670    -2.6802070    -0.1882350
  H       -3.7356500    -0.5434820    -0.0013820
  H        2.2064120    -2.5587800     0.2654600
  H        2.0546340    -1.5354670     1.6969810
  H        3.4631710    -1.3484660     0.6031360
units angstrom
no_reorient  #important for SAPT in psi4, default
symmetry c1  #important for SAPT in psi4, default
}

set PROPERTIES_ORIGIN ["COM"]
properties('MP2/aug-cc-pvtz', properties = ['dipole'])
--------------------------------------------------------------------------

    Molecular point group: c1
  Charge       = 0
  Multiplicity = 1
  Basis Set: AUG-CC-PVTZ
    Blend: AUG-CC-PVTZ
  Basis Set: (AUG-CC-PVTZ AUX)
    Blend: AUG-CC-PVTZ-JKFIT

    Orbital Energies [Eh]
    ---------------------

    Doubly Occupied:

       1A   -104.840555     2A    -20.554103     3A    -11.346886
       4A    -11.319094     5A    -11.272788     6A    -11.268846
       7A    -11.268386     8A    -11.267014     9A    -11.259956
      10A    -11.243445    11A    -10.564319    12A     -8.031222
      13A     -8.029248    14A     -8.029198    15A     -1.384788
      16A     -1.194830    17A     -1.124672    18A     -1.062513
      19A     -1.007585    20A     -1.001624    21A     -0.884608
      22A     -0.833657    23A     -0.773309    24A     -0.709352
      25A     -0.674340    26A     -0.664561    27A     -0.631279
      28A     -0.620580    29A     -0.599683    30A     -0.591911
      31A     -0.573829    32A     -0.556333    33A     -0.540620
      34A     -0.512647    35A     -0.496546    36A     -0.471723
      37A     -0.457329    38A     -0.420511    39A     -0.354214
      40A     -0.346203

  @DF-RHF Final Energy:  -841.51343303181693

   => Energetics <=

    Nuclear Repulsion Energy =            561.8289802317187878
    One-Electron Energy =               -2269.1162142198213587
    Two-Electron Energy =                 865.7738009562856405
    Total Energy =                       -841.5134330318169305
  Basis Set: (AUG-CC-PVTZ AUX)
    Blend: AUG-CC-PVTZ-RI
    Molecular point group: c1

    Geometry (in Angstrom), charge = 0, multiplicity = 1:

       Center              X                  Y                   Z               Mass
    ------------   -----------------  -----------------  -----------------  -----------------
         CL           0.206568618063     2.176327498606     0.200640530922    34.968852682000
         O            2.264203618063     0.212227498606    -0.863797469078    15.994914619570
         C            0.163100618063    -0.561211501394    -0.052551469078    12.000000000000
         C           -0.574087381937     0.630894498606     0.044206530922    12.000000000000
         C           -0.543192381937    -1.772631501394    -0.119247469078    12.000000000000
         C            1.662138618063    -0.581846501394    -0.145793469078    12.000000000000
         C           -1.969581381937     0.605603498606     0.081912530922    12.000000000000
         C           -1.936067381937    -1.802872501394    -0.106117469078    12.000000000000
         C           -2.731810181937    -0.660639801394    -0.009894969078    12.000000000000
         C            2.391931618063    -1.626111501394     0.670963530922    12.000000000000
         H            0.008564618063    -2.705603501394    -0.200015469078     1.007825032230
         H           -2.513495381937     1.541463498606     0.173564530922     1.007825032230
         H           -2.459885381937    -2.752637501394    -0.174230469078     1.007825032230
         H           -3.736768381937    -0.615912501394     0.012622530922     1.007825032230
         H            2.205293618063    -2.631210501394     0.279464530922     1.007825032230
         H            2.053515618063    -1.607897501394     1.710985530922     1.007825032230
         H            3.462052618063    -1.420896501394     0.617140530922     1.007825032230

  Basis Set: AUG-CC-PVTZ
    Blend: AUG-CC-PVTZ
  Basis Set: (AUG-CC-PVTZ AUX)
    Blend: AUG-CC-PVTZ-JKFIT
	 Reference Energy          =    -841.5134330318169305 [Eh]
	 Singles Energy            =      -0.0000000000000000 [Eh]
	 Same-Spin Energy          =      -0.4742817262911043 [Eh]
	 Opposite-Spin Energy      =      -1.4503472455077184 [Eh]
	 Correlation Energy        =      -1.9246289717988228 [Eh]
	 Total Energy              =    -843.4380620036157552 [Eh]

	 ================> DF-SCS-MP2 Energies <==================
	-----------------------------------------------------------
	 SCS Same-Spin Scale       =       0.3333333333333333 [-]
	 SCS Opposite-Spin Scale   =       1.2000000000000000 [-]
	 SCS Same-Spin Energy      =      -0.1580939087637014 [Eh]
	 SCS Opposite-Spin Energy  =      -1.7404166946092621 [Eh]
	 SCS Correlation Energy    =      -1.8985106033729635 [Eh]
	 SCS Total Energy          =    -843.4119436351899139 [Eh]
	-----------------------------------------------------------

  Dipole Moment: [D]
     X:    -2.2154      Y:    -2.9929      Z:     1.4283     Total:     3.9882

*** Psi4 exiting successfully. Buy a developer a beer!
