                               Psi4 1.4a3.dev225

  ==> Input File <==

--------------------------------------------------------------------------
#psi4
#
memory 32 gb

molecule  {
0 1
 Cl        0.2076870     2.2487580     0.1866360
  O        2.2653220     0.2846580    -0.8778020
  C        0.1642190    -0.4887810    -0.0665560
  C       -0.5729690     0.7033250     0.0302020
  C       -0.5420740    -1.7002010    -0.1332520
  C        1.6387477    -0.5417418    -0.1305689
  C       -1.9684630     0.6780340     0.0679080
  C       -1.9349490    -1.7304420    -0.1201220
  C       -2.6487990    -0.5355840    -0.0206560
  C        2.3930500    -1.5536810     0.6569590
  H        0.0096830    -2.6331730    -0.2140200
  H       -2.5123770     1.6138940     0.1595600
  H       -2.4587670    -2.6802070    -0.1882350
  H       -3.7356500    -0.5434820    -0.0013820
  H        2.2064120    -2.5587800     0.2654600
  H        2.0546340    -1.5354670     1.6969810
  H        3.4631710    -1.3484660     0.6031360
units angstrom
no_reorient  #important for SAPT in psi4, default
symmetry c1  #important for SAPT in psi4, default
}

set PROPERTIES_ORIGIN ["COM"]
properties('MP2/aug-cc-pvtz', properties = ['dipole'])
--------------------------------------------------------------------------

    Molecular point group: c1
  Charge       = 0
  Multiplicity = 1
  Basis Set: AUG-CC-PVTZ
    Blend: AUG-CC-PVTZ
  Basis Set: (AUG-CC-PVTZ AUX)
    Blend: AUG-CC-PVTZ-JKFIT

    Orbital Energies [Eh]
    ---------------------

    Doubly Occupied:

       1A   -104.841299     2A    -20.549022     3A    -11.348851
       4A    -11.322776     5A    -11.272136     6A    -11.269171
       7A    -11.265775     8A    -11.261432     9A    -11.259167
      10A    -11.245058    11A    -10.565026    12A     -8.031920
      13A     -8.029954    14A     -8.029891    15A     -1.351967
      16A     -1.200803    17A     -1.127768    18A     -1.072197
      19A     -1.016761    20A     -1.003995    21A     -0.880360
      22A     -0.840851    23A     -0.774161    24A     -0.704068
      25A     -0.670059    26A     -0.661618    27A     -0.634024
      28A     -0.618263    29A     -0.603570    30A     -0.592650
      31A     -0.563864    32A     -0.552357    33A     -0.535797
      34A     -0.523563    35A     -0.484291    36A     -0.472738
      37A     -0.456506    38A     -0.422656    39A     -0.362695
      40A     -0.345305

  @DF-RHF Final Energy:  -841.51714178229315

   => Energetics <=

    Nuclear Repulsion Energy =            563.4655795201999808
    One-Electron Energy =               -2272.4367097728063527
    Two-Electron Energy =                 867.4539884703132202
    Total Energy =                       -841.5171417822931517
  Basis Set: (AUG-CC-PVTZ AUX)
    Blend: AUG-CC-PVTZ-RI
    Molecular point group: c1

    Geometry (in Angstrom), charge = 0, multiplicity = 1:

       Center              X                  Y                   Z               Mass
    ------------   -----------------  -----------------  -----------------  -----------------
         CL           0.202097714828     2.174745909818     0.198110503085    34.968852682000
         O            2.259732714828     0.210645909818    -0.866327496915    15.994914619570
         C            0.158629714828    -0.562793090182    -0.055081496915    12.000000000000
         C           -0.578558285172     0.629312909818     0.041676503085    12.000000000000
         C           -0.547663285172    -1.774213090182    -0.121777496915    12.000000000000
         C            1.633158414828    -0.615753890182    -0.119094396915    12.000000000000
         C           -1.974052285172     0.604021909818     0.079382503085    12.000000000000
         C           -1.940538285172    -1.804454090182    -0.108647496915    12.000000000000
         C           -2.654388285172    -0.609596090182    -0.009181496915    12.000000000000
         C            2.387460714828    -1.627693090182     0.668433503085    12.000000000000
         H            0.004093714828    -2.707185090182    -0.202545496915     1.007825032230
         H           -2.517966285172     1.539881909818     0.171034503085     1.007825032230
         H           -2.464356285172    -2.754219090182    -0.176760496915     1.007825032230
         H           -3.741239285172    -0.617494090182     0.010092503085     1.007825032230
         H            2.200822714828    -2.632792090182     0.276934503085     1.007825032230
         H            2.049044714828    -1.609479090182     1.708455503085     1.007825032230
         H            3.457581714828    -1.422478090182     0.614610503085     1.007825032230

  Basis Set: AUG-CC-PVTZ
    Blend: AUG-CC-PVTZ
  Basis Set: (AUG-CC-PVTZ AUX)
    Blend: AUG-CC-PVTZ-JKFIT
	 Reference Energy          =    -841.5171417822931517 [Eh]
	 Singles Energy            =      -0.0000000000000000 [Eh]
	 Same-Spin Energy          =      -0.4759933736622836 [Eh]
	 Opposite-Spin Energy      =      -1.4527262017642049 [Eh]
	 Correlation Energy        =      -1.9287195754264885 [Eh]
	 Total Energy              =    -843.4458613577196502 [Eh]

	 ================> DF-SCS-MP2 Energies <==================
	-----------------------------------------------------------
	 SCS Same-Spin Scale       =       0.3333333333333333 [-]
	 SCS Opposite-Spin Scale   =       1.2000000000000000 [-]
	 SCS Same-Spin Energy      =      -0.1586644578874279 [Eh]
	 SCS Opposite-Spin Energy  =      -1.7432714421170459 [Eh]
	 SCS Correlation Energy    =      -1.9019359000044738 [Eh]
	 SCS Total Energy          =    -843.4190776822975977 [Eh]
	-----------------------------------------------------------

  Dipole Moment: [D]
     X:    -2.3281      Y:    -3.0980      Z:     1.5459     Total:     4.1722

*** Psi4 exiting successfully. Buy a developer a beer!
