                               Psi4 1.4a3.dev225

  ==> Input File <==

--------------------------------------------------------------------------
#psi4
#
memory 32 gb

molecule  {
0 1
 Cl        0.2076870     2.2487580     0.1866360
  O        2.2653220     0.2846580    -0.8778020
  C        0.1642190    -0.4887810    -0.0665560
  C       -0.5729690     0.7033250     0.0302020
  C       -0.5420740    -1.7002010    -0.1332520
  C        1.6632570    -0.5094160    -0.1597980
  C       -1.9684630     0.6780340     0.0679080
  C       -1.9349490    -1.7304420    -0.1201220
  C       -2.6487990    -0.5355840    -0.0206560
  C        2.4894984    -1.6916895     0.7649004
  H        0.0096830    -2.6331730    -0.2140200
  H       -2.5123770     1.6138940     0.1595600
  H       -2.4587670    -2.6802070    -0.1882350
  H       -3.7356500    -0.5434820    -0.0013820
  H        2.2064120    -2.5587800     0.2654600
  H        2.0546340    -1.5354670     1.6969810
  H        3.4631710    -1.3484660     0.6031360
units angstrom
no_reorient  #important for SAPT in psi4, default
symmetry c1  #important for SAPT in psi4, default
}

set PROPERTIES_ORIGIN ["COM"]
properties('MP2/aug-cc-pvtz', properties = ['dipole'])
--------------------------------------------------------------------------

    Molecular point group: c1
  Charge       = 0
  Multiplicity = 1
  Basis Set: AUG-CC-PVTZ
    Blend: AUG-CC-PVTZ
  Basis Set: (AUG-CC-PVTZ AUX)
    Blend: AUG-CC-PVTZ-JKFIT

    Orbital Energies [Eh]
    ---------------------

    Doubly Occupied:

       1A   -104.841782     2A    -20.556955     3A    -11.352018
       4A    -11.321159     5A    -11.271947     6A    -11.268301
       7A    -11.264592     8A    -11.260708     9A    -11.258623
      10A    -11.241842    11A    -10.565565    12A     -8.032462
      13A     -8.030500    14A     -8.030445    15A     -1.382679
      16A     -1.199916    17A     -1.127121    18A     -1.060620
      19A     -1.010293    20A     -0.991484    21A     -0.877976
      22A     -0.839031    23A     -0.770112    24A     -0.699455
      25A     -0.668224    26A     -0.659488    27A     -0.635721
      28A     -0.622287    29A     -0.600745    30A     -0.592872
      31A     -0.587807    32A     -0.550622    33A     -0.540398
      34A     -0.525565    35A     -0.505827    36A     -0.474288
      37A     -0.455611    38A     -0.397980    39A     -0.362059
      40A     -0.344857

  @DF-RHF Final Energy:  -841.49980322479473

   => Energetics <=

    Nuclear Repulsion Energy =            560.0407904907303873
    One-Electron Energy =               -2265.5213124033393797
    Two-Electron Energy =                 863.9807186878142602
    Total Energy =                       -841.4998032247947322
  Basis Set: (AUG-CC-PVTZ AUX)
    Blend: AUG-CC-PVTZ-RI
    Molecular point group: c1

    Geometry (in Angstrom), charge = 0, multiplicity = 1:

       Center              X                  Y                   Z               Mass
    ------------   -----------------  -----------------  -----------------  -----------------
         CL           0.192673574227     2.182979933976     0.191977815524    34.968852682000
         O            2.250308574227     0.218879933976    -0.872460184476    15.994914619570
         C            0.149205574227    -0.554559066024    -0.061214184476    12.000000000000
         C           -0.587982425773     0.637546933976     0.035543815524    12.000000000000
         C           -0.557087425773    -1.765979066024    -0.127910184476    12.000000000000
         C            1.648243574227    -0.575194066024    -0.154456184476    12.000000000000
         C           -1.983476425773     0.612255933976     0.073249815524    12.000000000000
         C           -1.949962425773    -1.796220066024    -0.114780184476    12.000000000000
         C           -2.663812425773    -0.601362066024    -0.015314184476    12.000000000000
         C            2.474484974227    -1.757467566024     0.770242215524    12.000000000000
         H           -0.005330425773    -2.698951066024    -0.208678184476     1.007825032230
         H           -2.527390425773     1.548115933976     0.164901815524     1.007825032230
         H           -2.473780425773    -2.745985066024    -0.182893184476     1.007825032230
         H           -3.750663425773    -0.609260066024     0.003959815524     1.007825032230
         H            2.191398574227    -2.624558066024     0.270801815524     1.007825032230
         H            2.039620574227    -1.601245066024     1.702322815524     1.007825032230
         H            3.448157574227    -1.414244066024     0.608477815524     1.007825032230

  Basis Set: AUG-CC-PVTZ
    Blend: AUG-CC-PVTZ
  Basis Set: (AUG-CC-PVTZ AUX)
    Blend: AUG-CC-PVTZ-JKFIT
	 Reference Energy          =    -841.4998032247947322 [Eh]
	 Singles Energy            =      -0.0000000000000000 [Eh]
	 Same-Spin Energy          =      -0.4745071266191819 [Eh]
	 Opposite-Spin Energy      =      -1.4510303603523602 [Eh]
	 Correlation Energy        =      -1.9255374869715420 [Eh]
	 Total Energy              =    -843.4253407117662391 [Eh]

	 ================> DF-SCS-MP2 Energies <==================
	-----------------------------------------------------------
	 SCS Same-Spin Scale       =       0.3333333333333333 [-]
	 SCS Opposite-Spin Scale   =       1.2000000000000000 [-]
	 SCS Same-Spin Energy      =      -0.1581690422063939 [Eh]
	 SCS Opposite-Spin Energy  =      -1.7412364324228322 [Eh]
	 SCS Correlation Energy    =      -1.8994054746292262 [Eh]
	 SCS Total Energy          =    -843.3992086994239799 [Eh]
	-----------------------------------------------------------

  Dipole Moment: [D]
     X:    -2.4267      Y:    -2.7016      Z:     1.2231     Total:     3.8319

*** Psi4 exiting successfully. Buy a developer a beer!
