                               Psi4 1.4a3.dev225

  ==> Input File <==

--------------------------------------------------------------------------
#psi4
#
memory 32 gb

molecule  {
0 1
 Cl        0.2076870     2.2487580     0.1866360
  O        2.2653220     0.2846580    -0.8778020
  C        0.1642190    -0.4887810    -0.0665560
  C       -0.5729690     0.7033250     0.0302020
  C       -0.5420740    -1.7002010    -0.1332520
  C        1.6175868    -0.5326900    -0.1470394
  C       -1.9684630     0.6780340     0.0679080
  C       -1.9349490    -1.7304420    -0.1201220
  C       -2.6487990    -0.5355840    -0.0206560
  C        2.3930500    -1.5536810     0.6569590
  H        0.0096830    -2.6331730    -0.2140200
  H       -2.5123770     1.6138940     0.1595600
  H       -2.4587670    -2.6802070    -0.1882350
  H       -3.7356500    -0.5434820    -0.0013820
  H        2.2064120    -2.5587800     0.2654600
  H        2.0546340    -1.5354670     1.6969810
  H        3.4631710    -1.3484660     0.6031360
units angstrom
no_reorient  #important for SAPT in psi4, default
symmetry c1  #important for SAPT in psi4, default
}

set PROPERTIES_ORIGIN ["COM"]
properties('MP2/aug-cc-pvtz', properties = ['dipole'])
--------------------------------------------------------------------------

    Molecular point group: c1
  Charge       = 0
  Multiplicity = 1
  Basis Set: AUG-CC-PVTZ
    Blend: AUG-CC-PVTZ
  Basis Set: (AUG-CC-PVTZ AUX)
    Blend: AUG-CC-PVTZ-JKFIT

    Orbital Energies [Eh]
    ---------------------

    Doubly Occupied:

       1A   -104.842214     2A    -20.548539     3A    -11.347319
       4A    -11.323988     5A    -11.271560     6A    -11.270306
       7A    -11.267089     8A    -11.262177     9A    -11.259982
      10A    -11.244063    11A    -10.565934    12A     -8.032827
      13A     -8.030859    14A     -8.030795    15A     -1.354075
      16A     -1.202315    17A     -1.128774    18A     -1.073229
      19A     -1.014778    20A     -1.000751    21A     -0.884015
      22A     -0.842039    23A     -0.775330    24A     -0.703599
      25A     -0.671494    26A     -0.661353    27A     -0.633974
      28A     -0.615738    29A     -0.603377    30A     -0.590388
      31A     -0.564086    32A     -0.552667    33A     -0.537370
      34A     -0.524565    35A     -0.485762    36A     -0.473571
      37A     -0.456930    38A     -0.421343    39A     -0.363701
      40A     -0.346258

  @DF-RHF Final Energy:  -841.51756938184872

   => Energetics <=

    Nuclear Repulsion Energy =            563.7396561839341302
    One-Electron Energy =               -2272.9561793794950972
    Two-Electron Energy =                 867.6989538137122508
    Total Energy =                       -841.5175693818487161
  Basis Set: (AUG-CC-PVTZ AUX)
    Blend: AUG-CC-PVTZ-RI
    Molecular point group: c1

    Geometry (in Angstrom), charge = 0, multiplicity = 1:

       Center              X                  Y                   Z               Mass
    ------------   -----------------  -----------------  -----------------  -----------------
         CL           0.203746417613     2.174040659669     0.199393764157    34.968852682000
         O            2.261381417613     0.209940659669    -0.865044235843    15.994914619570
         C            0.160278417613    -0.563498340331    -0.053798235843    12.000000000000
         C           -0.576909582387     0.628607659669     0.042959764157    12.000000000000
         C           -0.546014582387    -1.774918340331    -0.120494235843    12.000000000000
         C            1.613646217613    -0.607407340331    -0.134281635843    12.000000000000
         C           -1.972403582387     0.603316659669     0.080665764157    12.000000000000
         C           -1.938889582387    -1.805159340331    -0.107364235843    12.000000000000
         C           -2.652739582387    -0.610301340331    -0.007898235843    12.000000000000
         C            2.389109417613    -1.628398340331     0.669716764157    12.000000000000
         H            0.005742417613    -2.707890340331    -0.201262235843     1.007825032230
         H           -2.516317582387     1.539176659669     0.172317764157     1.007825032230
         H           -2.462707582387    -2.754924340331    -0.175477235843     1.007825032230
         H           -3.739590582387    -0.618199340331     0.011375764157     1.007825032230
         H            2.202471417613    -2.633497340331     0.278217764157     1.007825032230
         H            2.050693417613    -1.610184340331     1.709738764157     1.007825032230
         H            3.459230417613    -1.423183340331     0.615893764157     1.007825032230

  Basis Set: AUG-CC-PVTZ
    Blend: AUG-CC-PVTZ
  Basis Set: (AUG-CC-PVTZ AUX)
    Blend: AUG-CC-PVTZ-JKFIT
	 Reference Energy          =    -841.5175693818487161 [Eh]
	 Singles Energy            =      -0.0000000000000000 [Eh]
	 Same-Spin Energy          =      -0.4758692603034396 [Eh]
	 Opposite-Spin Energy      =      -1.4525398106514120 [Eh]
	 Correlation Energy        =      -1.9284090709548516 [Eh]
	 Total Energy              =    -843.4459784528036153 [Eh]

	 ================> DF-SCS-MP2 Energies <==================
	-----------------------------------------------------------
	 SCS Same-Spin Scale       =       0.3333333333333333 [-]
	 SCS Opposite-Spin Scale   =       1.2000000000000000 [-]
	 SCS Same-Spin Energy      =      -0.1586230867678132 [Eh]
	 SCS Opposite-Spin Energy  =      -1.7430477727816944 [Eh]
	 SCS Correlation Energy    =      -1.9016708595495075 [Eh]
	 SCS Total Energy          =    -843.4192402413982563 [Eh]
	-----------------------------------------------------------

  Dipole Moment: [D]
     X:    -2.4752      Y:    -3.0256      Z:     1.4959     Total:     4.1856

*** Psi4 exiting successfully. Buy a developer a beer!
