                               Psi4 1.4a3.dev225

  ==> Input File <==

--------------------------------------------------------------------------
#psi4
#
memory 32 gb

molecule  {
0 1
 Cl        0.2076870     2.2487580     0.1866360
  O        2.2653220     0.2846580    -0.8778020
  C        0.1642190    -0.4887810    -0.0665560
  C       -0.5729690     0.7033250     0.0302020
  C       -0.5420740    -1.7002010    -0.1332520
  C        1.6632570    -0.5094160    -0.1597980
  C       -1.9684630     0.6780340     0.0679080
  C       -1.9349490    -1.7304420    -0.1201220
  C       -2.6487990    -0.5355840    -0.0206560
  C        2.3930500    -1.5536810     0.6569590
  H        0.0096830    -2.6331730    -0.2140200
  H       -2.5123770     1.6138940     0.1595600
  H       -2.4587670    -2.6802070    -0.1882350
  H       -3.7356500    -0.5434820    -0.0013820
  H        2.1920570    -2.5686360     0.2994714
  H        2.0546340    -1.5354670     1.6969810
  H        3.4631710    -1.3484660     0.6031360
units angstrom
no_reorient  #important for SAPT in psi4, default
symmetry c1  #important for SAPT in psi4, default
}

set PROPERTIES_ORIGIN ["COM"]
properties('MP2/aug-cc-pvtz', properties = ['dipole'])
--------------------------------------------------------------------------

    Molecular point group: c1
  Charge       = 0
  Multiplicity = 1
  Basis Set: AUG-CC-PVTZ
    Blend: AUG-CC-PVTZ
  Basis Set: (AUG-CC-PVTZ AUX)
    Blend: AUG-CC-PVTZ-JKFIT

    Orbital Energies [Eh]
    ---------------------

    Doubly Occupied:

       1A   -104.841238     2A    -20.553540     3A    -11.346577
       4A    -11.320415     5A    -11.270576     6A    -11.267439
       7A    -11.263951     8A    -11.260107     9A    -11.258038
      10A    -11.243091    11A    -10.565014    12A     -8.031910
      13A     -8.029950    14A     -8.029895    15A     -1.384269
      16A     -1.199492    17A     -1.126773    18A     -1.066465
      19A     -1.013165    20A     -0.999777    21A     -0.876358
      22A     -0.837974    23A     -0.772117    24A     -0.704773
      25A     -0.669013    26A     -0.664334    27A     -0.634826
      28A     -0.621469    29A     -0.602878    30A     -0.592410
      31A     -0.565884    32A     -0.552045    33A     -0.536311
      34A     -0.524278    35A     -0.497355    36A     -0.473640
      37A     -0.458072    38A     -0.420170    39A     -0.361894
      40A     -0.344407

  @DF-RHF Final Energy:  -841.52673925318470

   => Energetics <=

    Nuclear Repulsion Energy =            563.6053581433619684
    One-Electron Energy =               -2272.7004192666258859
    Two-Electron Energy =                 867.5683218700791031
    Total Energy =                       -841.5267392531847008
  Basis Set: (AUG-CC-PVTZ AUX)
    Blend: AUG-CC-PVTZ-RI
    Molecular point group: c1

    Geometry (in Angstrom), charge = 0, multiplicity = 1:

       Center              X                  Y                   Z               Mass
    ------------   -----------------  -----------------  -----------------  -----------------
         CL           0.200282061550     2.172291812601     0.200165266457    34.968852682000
         O            2.257917061550     0.208191812601    -0.864272733543    15.994914619570
         C            0.156814061550    -0.565247187399    -0.053026733543    12.000000000000
         C           -0.580373938450     0.626858812601     0.043731266457    12.000000000000
         C           -0.549478938450    -1.776667187399    -0.119722733543    12.000000000000
         C            1.655852061550    -0.585882187399    -0.146268733543    12.000000000000
         C           -1.975867938450     0.601567812601     0.081437266457    12.000000000000
         C           -1.942353938450    -1.806908187399    -0.106592733543    12.000000000000
         C           -2.656203938450    -0.612050187399    -0.007126733543    12.000000000000
         C            2.385645061550    -1.630147187399     0.670488266457    12.000000000000
         H            0.002278061550    -2.709639187399    -0.200490733543     1.007825032230
         H           -2.519781938450     1.537427812601     0.173089266457     1.007825032230
         H           -2.466171938450    -2.756673187399    -0.174705733543     1.007825032230
         H           -3.743054938450    -0.619948187399     0.012147266457     1.007825032230
         H            2.184652061550    -2.645102187399     0.313000666457     1.007825032230
         H            2.047229061550    -1.611933187399     1.710510266457     1.007825032230
         H            3.455766061550    -1.424932187399     0.616665266457     1.007825032230

  Basis Set: AUG-CC-PVTZ
    Blend: AUG-CC-PVTZ
  Basis Set: (AUG-CC-PVTZ AUX)
    Blend: AUG-CC-PVTZ-JKFIT
	 Reference Energy          =    -841.5267392531847008 [Eh]
	 Singles Energy            =      -0.0000000000000000 [Eh]
	 Same-Spin Energy          =      -0.4742468388533635 [Eh]
	 Opposite-Spin Energy      =      -1.4491292143691636 [Eh]
	 Correlation Energy        =      -1.9233760532225270 [Eh]
	 Total Energy              =    -843.4501153064072696 [Eh]

	 ================> DF-SCS-MP2 Energies <==================
	-----------------------------------------------------------
	 SCS Same-Spin Scale       =       0.3333333333333333 [-]
	 SCS Opposite-Spin Scale   =       1.2000000000000000 [-]
	 SCS Same-Spin Energy      =      -0.1580822796177878 [Eh]
	 SCS Opposite-Spin Energy  =      -1.7389550572429964 [Eh]
	 SCS Correlation Energy    =      -1.8970373368607842 [Eh]
	 SCS Total Energy          =    -843.4237765900454633 [Eh]
	-----------------------------------------------------------

  Dipole Moment: [D]
     X:    -2.2124      Y:    -2.9954      Z:     1.4389     Total:     3.9921

*** Psi4 exiting successfully. Buy a developer a beer!
