                               Psi4 1.4a3.dev225

  ==> Input File <==

--------------------------------------------------------------------------
#psi4
#
memory 32 gb

molecule  {
0 1
 Cl        0.2076870     2.2487580     0.1866360
  O        2.2653220     0.2846580    -0.8778020
  C        0.1642190    -0.4887810    -0.0665560
  C       -0.5729690     0.7033250     0.0302020
  C       -0.5420740    -1.7002010    -0.1332520
  C        1.6632570    -0.5094160    -0.1597980
  C       -1.9684630     0.6780340     0.0679080
  C       -1.9349490    -1.7304420    -0.1201220
  C       -2.6487990    -0.5355840    -0.0206560
  C        2.3930500    -1.5536810     0.6569590
  H        0.0096830    -2.6331730    -0.2140200
  H       -2.4122376     1.4415938     0.1426860
  H       -2.4587670    -2.6802070    -0.1882350
  H       -3.7356500    -0.5434820    -0.0013820
  H        2.2064120    -2.5587800     0.2654600
  H        2.0546340    -1.5354670     1.6969810
  H        3.4631710    -1.3484660     0.6031360
units angstrom
no_reorient  #important for SAPT in psi4, default
symmetry c1  #important for SAPT in psi4, default
}

set PROPERTIES_ORIGIN ["COM"]
properties('MP2/aug-cc-pvtz', properties = ['dipole'])
--------------------------------------------------------------------------

    Molecular point group: c1
  Charge       = 0
  Multiplicity = 1
  Basis Set: AUG-CC-PVTZ
    Blend: AUG-CC-PVTZ
  Basis Set: (AUG-CC-PVTZ AUX)
    Blend: AUG-CC-PVTZ-JKFIT

    Orbital Energies [Eh]
    ---------------------

    Doubly Occupied:

       1A   -104.841719     2A    -20.553089     3A    -11.345944
       4A    -11.319626     5A    -11.269783     6A    -11.267344
       7A    -11.263159     8A    -11.257281     9A    -11.242882
      10A    -11.237379    11A    -10.565489    12A     -8.032387
      13A     -8.030431    14A     -8.030376    15A     -1.383890
      16A     -1.201063    17A     -1.126703    18A     -1.070941
      19A     -1.019687    20A     -0.999591    21A     -0.881818
      22A     -0.849023    23A     -0.779796    24A     -0.709948
      25A     -0.674311    26A     -0.666540    27A     -0.649858
      28A     -0.622564    29A     -0.604903    30A     -0.595408
      31A     -0.564087    32A     -0.553968    33A     -0.539944
      34A     -0.526668    35A     -0.498079    36A     -0.473636
      37A     -0.458422    38A     -0.419570    39A     -0.361761
      40A     -0.344063

  @DF-RHF Final Energy:  -841.49215377523740

   => Energetics <=

    Nuclear Repulsion Energy =            564.8210747342594686
    One-Electron Energy =               -2274.9601939539666091
    Two-Electron Energy =                 868.6469654444696289
    Total Energy =                       -841.4921537752373979
  Basis Set: (AUG-CC-PVTZ AUX)
    Blend: AUG-CC-PVTZ-RI
    Molecular point group: c1

    Geometry (in Angstrom), charge = 0, multiplicity = 1:

       Center              X                  Y                   Z               Mass
    ------------   -----------------  -----------------  -----------------  -----------------
         CL           0.199532863950     2.173354771180     0.200498236624    34.968852682000
         O            2.257167863950     0.209254771180    -0.863939763376    15.994914619570
         C            0.156064863950    -0.564184228820    -0.052693763376    12.000000000000
         C           -0.581123136050     0.627921771180     0.044064236624    12.000000000000
         C           -0.550228136050    -1.775604228820    -0.119389763376    12.000000000000
         C            1.655102863950    -0.584819228820    -0.145935763376    12.000000000000
         C           -1.976617136050     0.602630771180     0.081770236624    12.000000000000
         C           -1.943103136050    -1.805845228820    -0.106259763376    12.000000000000
         C           -2.656953136050    -0.610987228820    -0.006793763376    12.000000000000
         C            2.384895863950    -1.629084228820     0.670821236624    12.000000000000
         H            0.001528863950    -2.708576228820    -0.200157763376     1.007825032230
         H           -2.420391736050     1.366190571180     0.156548236624     1.007825032230
         H           -2.466921136050    -2.755610228820    -0.174372763376     1.007825032230
         H           -3.743804136050    -0.618885228820     0.012480236624     1.007825032230
         H            2.198257863950    -2.634183228820     0.279322236624     1.007825032230
         H            2.046479863950    -1.610870228820     1.710843236624     1.007825032230
         H            3.455016863950    -1.423869228820     0.616998236624     1.007825032230

  Basis Set: AUG-CC-PVTZ
    Blend: AUG-CC-PVTZ
  Basis Set: (AUG-CC-PVTZ AUX)
    Blend: AUG-CC-PVTZ-JKFIT
	 Reference Energy          =    -841.4921537752373979 [Eh]
	 Singles Energy            =      -0.0000000000000000 [Eh]
	 Same-Spin Energy          =      -0.4739136754726469 [Eh]
	 Opposite-Spin Energy      =      -1.4486142469841345 [Eh]
	 Correlation Energy        =      -1.9225279224567815 [Eh]
	 Total Energy              =    -843.4146816976941636 [Eh]

	 ================> DF-SCS-MP2 Energies <==================
	-----------------------------------------------------------
	 SCS Same-Spin Scale       =       0.3333333333333333 [-]
	 SCS Opposite-Spin Scale   =       1.2000000000000000 [-]
	 SCS Same-Spin Energy      =      -0.1579712251575490 [Eh]
	 SCS Opposite-Spin Energy  =      -1.7383370963809615 [Eh]
	 SCS Correlation Energy    =      -1.8963083215385104 [Eh]
	 SCS Total Energy          =    -843.3884620967759247 [Eh]
	-----------------------------------------------------------

  Dipole Moment: [D]
     X:    -2.1984      Y:    -3.0003      Z:     1.4266     Total:     3.9837

*** Psi4 exiting successfully. Buy a developer a beer!
