                               Psi4 1.4a3.dev225

  ==> Input File <==

--------------------------------------------------------------------------
#psi4
#
memory 32 gb

molecule  {
0 1
 Cl        0.2076870     2.2487580     0.1866360
  O        2.2653220     0.2846580    -0.8778020
  C        0.1642190    -0.4887810    -0.0665560
  C       -0.5729690     0.7033250     0.0302020
  C       -0.5420740    -1.7002010    -0.1332520
  C        1.6632570    -0.5094160    -0.1597980
  C       -1.9684630     0.6780340     0.0679080
  C       -1.9349490    -1.7304420    -0.1201220
  C       -2.6487990    -0.5355840    -0.0206560
  C        2.3930500    -1.5536810     0.6569590
  H        0.0096830    -2.6331730    -0.2140200
  H       -2.5123770     1.6138940     0.1595600
  H       -2.4587670    -2.6802070    -0.1882350
  H       -3.7356500    -0.5434820    -0.0013820
  H        2.2438950    -2.5625193     0.2590554
  H        2.0546340    -1.5354670     1.6969810
  H        3.4631710    -1.3484660     0.6031360
units angstrom
no_reorient  #important for SAPT in psi4, default
symmetry c1  #important for SAPT in psi4, default
}

set PROPERTIES_ORIGIN ["COM"]
properties('MP2/aug-cc-pvtz', properties = ['dipole'])
--------------------------------------------------------------------------

    Molecular point group: c1
  Charge       = 0
  Multiplicity = 1
  Basis Set: AUG-CC-PVTZ
    Blend: AUG-CC-PVTZ
  Basis Set: (AUG-CC-PVTZ AUX)
    Blend: AUG-CC-PVTZ-JKFIT

    Orbital Energies [Eh]
    ---------------------

    Doubly Occupied:

       1A   -104.841209     2A    -20.553538     3A    -11.346501
       4A    -11.320361     5A    -11.270447     6A    -11.267295
       7A    -11.263888     8A    -11.260010     9A    -11.257916
      10A    -11.242871    11A    -10.564986    12A     -8.031882
      13A     -8.029922    14A     -8.029867    15A     -1.384242
      16A     -1.199412    17A     -1.126697    18A     -1.066244
      19A     -1.013064    20A     -0.999686    21A     -0.876330
      22A     -0.837914    23A     -0.772130    24A     -0.704191
      25A     -0.668907    26A     -0.663649    27A     -0.633795
      28A     -0.623199    29A     -0.603924    30A     -0.593776
      31A     -0.562074    32A     -0.552390    33A     -0.535983
      34A     -0.524329    35A     -0.498039    36A     -0.473566
      37A     -0.458055    38A     -0.420058    39A     -0.361784
      40A     -0.344337

  @DF-RHF Final Energy:  -841.52673897671707

   => Energetics <=

    Nuclear Repulsion Energy =            563.5574868113041020
    One-Electron Energy =               -2272.6115124145471782
    Two-Electron Energy =                 867.5272866265261200
    Total Energy =                       -841.5267389767170698
  Basis Set: (AUG-CC-PVTZ AUX)
    Blend: AUG-CC-PVTZ-RI
    Molecular point group: c1

    Geometry (in Angstrom), charge = 0, multiplicity = 1:

       Center              X                  Y                   Z               Mass
    ------------   -----------------  -----------------  -----------------  -----------------
         CL           0.199942858015     2.172251787788     0.200429729786    34.968852682000
         O            2.257577858015     0.208151787788    -0.864008270214    15.994914619570
         C            0.156474858015    -0.565287212212    -0.052762270214    12.000000000000
         C           -0.580713141985     0.626818787788     0.043995729786    12.000000000000
         C           -0.549818141985    -1.776707212212    -0.119458270214    12.000000000000
         C            1.655512858015    -0.585922212212    -0.146004270214    12.000000000000
         C           -1.976207141985     0.601527787788     0.081701729786    12.000000000000
         C           -1.942693141985    -1.806948212212    -0.106328270214    12.000000000000
         C           -2.656543141985    -0.612090212212    -0.006862270214    12.000000000000
         C            2.385305858015    -1.630187212212     0.670752729786    12.000000000000
         H            0.001938858015    -2.709679212212    -0.200226270214     1.007825032230
         H           -2.520121141985     1.537387787788     0.173353729786     1.007825032230
         H           -2.466511141985    -2.756713212212    -0.174441270214     1.007825032230
         H           -3.743394141985    -0.619988212212     0.012411729786     1.007825032230
         H            2.236150858015    -2.639025512212     0.272849129786     1.007825032230
         H            2.046889858015    -1.611973212212     1.710774729786     1.007825032230
         H            3.455426858015    -1.424972212212     0.616929729786     1.007825032230

  Basis Set: AUG-CC-PVTZ
    Blend: AUG-CC-PVTZ
  Basis Set: (AUG-CC-PVTZ AUX)
    Blend: AUG-CC-PVTZ-JKFIT
	 Reference Energy          =    -841.5267389767170698 [Eh]
	 Singles Energy            =      -0.0000000000000000 [Eh]
	 Same-Spin Energy          =      -0.4742109616816796 [Eh]
	 Opposite-Spin Energy      =      -1.4491235195858061 [Eh]
	 Correlation Energy        =      -1.9233344812674857 [Eh]
	 Total Energy              =    -843.4500734579845584 [Eh]

	 ================> DF-SCS-MP2 Energies <==================
	-----------------------------------------------------------
	 SCS Same-Spin Scale       =       0.3333333333333333 [-]
	 SCS Opposite-Spin Scale   =       1.2000000000000000 [-]
	 SCS Same-Spin Energy      =      -0.1580703205605599 [Eh]
	 SCS Opposite-Spin Energy  =      -1.7389482235029672 [Eh]
	 SCS Correlation Energy    =      -1.8970185440635270 [Eh]
	 SCS Total Energy          =    -843.4237575207805548 [Eh]
	-----------------------------------------------------------

  Dipole Moment: [D]
     X:    -2.1893      Y:    -2.9962      Z:     1.4183     Total:     3.9726

*** Psi4 exiting successfully. Buy a developer a beer!
