                               Psi4 1.4a3.dev225

  ==> Input File <==

--------------------------------------------------------------------------
#psi4
#
memory 32 gb

molecule  {
0 1
 Cl        0.2076870     2.2487580     0.1866360
  O        2.2653220     0.2846580    -0.8778020
  C        0.1642190    -0.4887810    -0.0665560
  C       -0.5729690     0.7033250     0.0302020
  C       -0.5420740    -1.7002010    -0.1332520
  C        1.6632570    -0.5094160    -0.1597980
  C       -1.9684630     0.6780340     0.0679080
  C       -1.8349770    -1.7282715    -0.1210644
  C       -2.6487990    -0.5355840    -0.0206560
  C        2.3930500    -1.5536810     0.6569590
  H        0.0096830    -2.6331730    -0.2140200
  H       -2.5123770     1.6138940     0.1595600
  H       -2.4587670    -2.6802070    -0.1882350
  H       -3.7356500    -0.5434820    -0.0013820
  H        2.2064120    -2.5587800     0.2654600
  H        2.0546340    -1.5354670     1.6969810
  H        3.4631710    -1.3484660     0.6031360
units angstrom
no_reorient  #important for SAPT in psi4, default
symmetry c1  #important for SAPT in psi4, default
}

set PROPERTIES_ORIGIN ["COM"]
properties('MP2/aug-cc-pvtz', properties = ['dipole'])
--------------------------------------------------------------------------

    Molecular point group: c1
  Charge       = 0
  Multiplicity = 1
  Basis Set: AUG-CC-PVTZ
    Blend: AUG-CC-PVTZ
  Basis Set: (AUG-CC-PVTZ AUX)
    Blend: AUG-CC-PVTZ-JKFIT

    Orbital Energies [Eh]
    ---------------------

    Doubly Occupied:

       1A   -104.841525     2A    -20.552829     3A    -11.345631
       4A    -11.320625     5A    -11.269400     6A    -11.269325
       7A    -11.260365     8A    -11.255963     9A    -11.253144
      10A    -11.242952    11A    -10.565292    12A     -8.032187
      13A     -8.030228    14A     -8.030171    15A     -1.383585
      16A     -1.203098    17A     -1.132246    18A     -1.063736
      19A     -1.023147    20A     -0.996565    21A     -0.879693
      22A     -0.832124    23A     -0.769711    24A     -0.704611
      25A     -0.673434    26A     -0.664161    27A     -0.630823
      28A     -0.621518    29A     -0.600026    30A     -0.596072
      31A     -0.565906    32A     -0.556230    33A     -0.541523
      34A     -0.511294    35A     -0.491813    36A     -0.477618
      37A     -0.457904    38A     -0.420119    39A     -0.367698
      40A     -0.343248

  @DF-RHF Final Energy:  -841.51323929308683

   => Energetics <=

    Nuclear Repulsion Energy =            564.9626379004284900
    One-Electron Energy =               -2275.3966720154057839
    Two-Electron Energy =                 868.9207948218904676
    Total Energy =                       -841.5132392930868264
  Basis Set: (AUG-CC-PVTZ AUX)
    Blend: AUG-CC-PVTZ-RI
    Molecular point group: c1

    Geometry (in Angstrom), charge = 0, multiplicity = 1:

       Center              X                  Y                   Z               Mass
    ------------   -----------------  -----------------  -----------------  -----------------
         CL           0.192399041049     2.172058210056     0.200461246016    34.968852682000
         O            2.250034041049     0.207958210056    -0.863976753984    15.994914619570
         C            0.148931041049    -0.565480789944    -0.052730753984    12.000000000000
         C           -0.588256958951     0.626625210056     0.044027246016    12.000000000000
         C           -0.557361958951    -1.776900789944    -0.119426753984    12.000000000000
         C            1.647969041049    -0.586115789944    -0.145972753984    12.000000000000
         C           -1.983750958951     0.601334210056     0.081733246016    12.000000000000
         C           -1.850264958951    -1.804971289944    -0.107239153984    12.000000000000
         C           -2.664086958951    -0.612283789944    -0.006830753984    12.000000000000
         C            2.377762041049    -1.630380789944     0.670784246016    12.000000000000
         H           -0.005604958951    -2.709872789944    -0.200194753984     1.007825032230
         H           -2.527664958951     1.537194210056     0.173385246016     1.007825032230
         H           -2.474054958951    -2.756906789944    -0.174409753984     1.007825032230
         H           -3.750937958951    -0.620181789944     0.012443246016     1.007825032230
         H            2.191124041049    -2.635479789944     0.279285246016     1.007825032230
         H            2.039346041049    -1.612166789944     1.710806246016     1.007825032230
         H            3.447883041049    -1.425165789944     0.616961246016     1.007825032230

  Basis Set: AUG-CC-PVTZ
    Blend: AUG-CC-PVTZ
  Basis Set: (AUG-CC-PVTZ AUX)
    Blend: AUG-CC-PVTZ-JKFIT
	 Reference Energy          =    -841.5132392930868264 [Eh]
	 Singles Energy            =      -0.0000000000000000 [Eh]
	 Same-Spin Energy          =      -0.4741507431573458 [Eh]
	 Opposite-Spin Energy      =      -1.4494411009061139 [Eh]
	 Correlation Energy        =      -1.9235918440634596 [Eh]
	 Total Energy              =    -843.4368311371503069 [Eh]

	 ================> DF-SCS-MP2 Energies <==================
	-----------------------------------------------------------
	 SCS Same-Spin Scale       =       0.3333333333333333 [-]
	 SCS Opposite-Spin Scale   =       1.2000000000000000 [-]
	 SCS Same-Spin Energy      =      -0.1580502477191153 [Eh]
	 SCS Opposite-Spin Energy  =      -1.7393293210873366 [Eh]
	 SCS Correlation Energy    =      -1.8973795688064519 [Eh]
	 SCS Total Energy          =    -843.4106188618932265 [Eh]
	-----------------------------------------------------------

  Dipole Moment: [D]
     X:    -2.2382      Y:    -2.9397      Z:     1.4333     Total:     3.9631

*** Psi4 exiting successfully. Buy a developer a beer!
