                               Psi4 1.4a3.dev225

  ==> Input File <==

--------------------------------------------------------------------------
#psi4
#
memory 32 gb

molecule  {
0 1
 Cl        0.2076870     2.2487580     0.1866360
  O        2.2653220     0.2846580    -0.8778020
  C        0.1642190    -0.4887810    -0.0665560
  C       -0.5729690     0.7033250     0.0302020
  C       -0.5420740    -1.7002010    -0.1332520
  C        1.6632570    -0.5094160    -0.1597980
  C       -1.9684630     0.6780340     0.0679080
  C       -1.9342291    -1.7546701    -0.1220675
  C       -2.6487990    -0.5355840    -0.0206560
  C        2.3930500    -1.5536810     0.6569590
  H        0.0096830    -2.6331730    -0.2140200
  H       -2.5123770     1.6138940     0.1595600
  H       -2.4587670    -2.6802070    -0.1882350
  H       -3.7356500    -0.5434820    -0.0013820
  H        2.2064120    -2.5587800     0.2654600
  H        2.0546340    -1.5354670     1.6969810
  H        3.4631710    -1.3484660     0.6031360
units angstrom
no_reorient  #important for SAPT in psi4, default
symmetry c1  #important for SAPT in psi4, default
}

set PROPERTIES_ORIGIN ["COM"]
properties('MP2/aug-cc-pvtz', properties = ['dipole'])
--------------------------------------------------------------------------

    Molecular point group: c1
  Charge       = 0
  Multiplicity = 1
  Basis Set: AUG-CC-PVTZ
    Blend: AUG-CC-PVTZ
  Basis Set: (AUG-CC-PVTZ AUX)
    Blend: AUG-CC-PVTZ-JKFIT

    Orbital Energies [Eh]
    ---------------------

    Doubly Occupied:

       1A   -104.841589     2A    -20.553210     3A    -11.346270
       4A    -11.321127     5A    -11.270398     6A    -11.267505
       7A    -11.266422     8A    -11.260124     9A    -11.258637
      10A    -11.242899    11A    -10.565363    12A     -8.032257
      13A     -8.030299    14A     -8.030242    15A     -1.384007
      16A     -1.198592    17A     -1.125696    18A     -1.065168
      19A     -1.013889    20A     -0.999326    21A     -0.875007
      22A     -0.838264    23A     -0.773818    24A     -0.703968
      25A     -0.667848    26A     -0.663620    27A     -0.634569
      28A     -0.621723    29A     -0.606706    30A     -0.594761
      31A     -0.563614    32A     -0.550840    33A     -0.535448
      34A     -0.525248    35A     -0.497696    36A     -0.472596
      37A     -0.458124    38A     -0.419928    39A     -0.361654
      40A     -0.343594

  @DF-RHF Final Energy:  -841.52592197360752

   => Energetics <=

    Nuclear Repulsion Energy =            563.2183621440201478
    One-Electron Energy =               -2271.9244711836226998
    Two-Electron Energy =                 867.1801870659950282
    Total Energy =                       -841.5259219736075238
  Basis Set: (AUG-CC-PVTZ AUX)
    Blend: AUG-CC-PVTZ-RI
    Molecular point group: c1

    Geometry (in Angstrom), charge = 0, multiplicity = 1:

       Center              X                  Y                   Z               Mass
    ------------   -----------------  -----------------  -----------------  -----------------
         CL           0.200132039819     2.174114996173     0.200539400242    34.968852682000
         O            2.257767039819     0.210014996173    -0.863898599758    15.994914619570
         C            0.156664039819    -0.563424003827    -0.052652599758    12.000000000000
         C           -0.580523960181     0.628681996173     0.044105400242    12.000000000000
         C           -0.549628960181    -1.774844003827    -0.119348599758    12.000000000000
         C            1.655702039819    -0.584059003827    -0.145894599758    12.000000000000
         C           -1.976017960181     0.603390996173     0.081811400242    12.000000000000
         C           -1.941784060181    -1.829313103827    -0.108164099758    12.000000000000
         C           -2.656353960181    -0.610227003827    -0.006752599758    12.000000000000
         C            2.385495039819    -1.628324003827     0.670862400242    12.000000000000
         H            0.002128039819    -2.707816003827    -0.200116599758     1.007825032230
         H           -2.519931960181     1.539250996173     0.173463400242     1.007825032230
         H           -2.466321960181    -2.754850003827    -0.174331599758     1.007825032230
         H           -3.743204960181    -0.618125003827     0.012521400242     1.007825032230
         H            2.198857039819    -2.633423003827     0.279363400242     1.007825032230
         H            2.047079039819    -1.610110003827     1.710884400242     1.007825032230
         H            3.455616039819    -1.423109003827     0.617039400242     1.007825032230

  Basis Set: AUG-CC-PVTZ
    Blend: AUG-CC-PVTZ
  Basis Set: (AUG-CC-PVTZ AUX)
    Blend: AUG-CC-PVTZ-JKFIT
	 Reference Energy          =    -841.5259219736075238 [Eh]
	 Singles Energy            =      -0.0000000000000000 [Eh]
	 Same-Spin Energy          =      -0.4742090502422283 [Eh]
	 Opposite-Spin Energy      =      -1.4492785091957678 [Eh]
	 Correlation Energy        =      -1.9234875594379961 [Eh]
	 Total Energy              =    -843.4494095330454684 [Eh]

	 ================> DF-SCS-MP2 Energies <==================
	-----------------------------------------------------------
	 SCS Same-Spin Scale       =       0.3333333333333333 [-]
	 SCS Opposite-Spin Scale   =       1.2000000000000000 [-]
	 SCS Same-Spin Energy      =      -0.1580696834140761 [Eh]
	 SCS Opposite-Spin Energy  =      -1.7391342110349213 [Eh]
	 SCS Correlation Energy    =      -1.8972038944489973 [Eh]
	 SCS Total Energy          =    -843.4231258680565588 [Eh]
	-----------------------------------------------------------

  Dipole Moment: [D]
     X:    -2.2110      Y:    -2.9925      Z:     1.4267     Total:     3.9848

*** Psi4 exiting successfully. Buy a developer a beer!
