                               Psi4 1.4a3.dev225

  ==> Input File <==

--------------------------------------------------------------------------
#psi4
#
memory 32 gb

molecule  {
0 1
 Cl        0.2076870     2.2487580     0.1866360
  O        2.2653220     0.2846580    -0.8778020
  C        0.1642190    -0.4887810    -0.0665560
  C       -0.5729690     0.7033250     0.0302020
  C       -0.5420740    -1.7002010    -0.1332520
  C        1.6632570    -0.5094160    -0.1597980
  C       -1.9684630     0.6780340     0.0679080
  C       -1.9349490    -1.7304420    -0.1201220
  C       -2.6487990    -0.5355840    -0.0206560
  C        2.3930500    -1.5536810     0.6569590
  H        0.0096830    -2.6331730    -0.2140200
  H       -2.5123770     1.6138940     0.1595600
  H       -2.5069663    -2.7676000    -0.1945024
  H       -3.7356500    -0.5434820    -0.0013820
  H        2.2064120    -2.5587800     0.2654600
  H        2.0546340    -1.5354670     1.6969810
  H        3.4631710    -1.3484660     0.6031360
units angstrom
no_reorient  #important for SAPT in psi4, default
symmetry c1  #important for SAPT in psi4, default
}

set PROPERTIES_ORIGIN ["COM"]
properties('MP2/aug-cc-pvtz', properties = ['dipole'])
--------------------------------------------------------------------------

    Molecular point group: c1
  Charge       = 0
  Multiplicity = 1
  Basis Set: AUG-CC-PVTZ
    Blend: AUG-CC-PVTZ
  Basis Set: (AUG-CC-PVTZ AUX)
    Blend: AUG-CC-PVTZ-JKFIT

    Orbital Energies [Eh]
    ---------------------

    Doubly Occupied:

       1A   -104.841527     2A    -20.553694     3A    -11.346674
       4A    -11.320776     5A    -11.271220     6A    -11.269541
       7A    -11.267999     8A    -11.264745     9A    -11.260785
      10A    -11.243292    11A    -10.565301    12A     -8.032198
      13A     -8.030237    14A     -8.030182    15A     -1.384452
      16A     -1.199836    17A     -1.126438    18A     -1.066832
      19A     -1.012075    20A     -0.998702    21A     -0.876826
      22A     -0.835631    23A     -0.766557    24A     -0.701238
      25A     -0.669524    26A     -0.663767    27A     -0.632326
      28A     -0.621985    29A     -0.599960    30A     -0.588203
      31A     -0.564681    32A     -0.552770    33A     -0.536615
      34A     -0.519461    35A     -0.497224    36A     -0.474098
      37A     -0.458243    38A     -0.420113    39A     -0.362465
      40A     -0.344832

  @DF-RHF Final Energy:  -841.51947338849288

   => Energetics <=

    Nuclear Repulsion Energy =            563.1167260511267614
    One-Electron Energy =               -2271.7263477929691362
    Two-Electron Energy =                 867.0901483533494911
    Total Energy =                       -841.5194733884928837
  Basis Set: (AUG-CC-PVTZ AUX)
    Blend: AUG-CC-PVTZ-RI
    Molecular point group: c1

    Geometry (in Angstrom), charge = 0, multiplicity = 1:

       Center              X                  Y                   Z               Mass
    ------------   -----------------  -----------------  -----------------  -----------------
         CL           0.200503522760     2.172799178327     0.200428832013    34.968852682000
         O            2.258138522760     0.208699178327    -0.864009167987    15.994914619570
         C            0.157035522760    -0.564739821673    -0.052763167987    12.000000000000
         C           -0.580152477240     0.627366178327     0.043994832013    12.000000000000
         C           -0.549257477240    -1.776159821673    -0.119459167987    12.000000000000
         C            1.656073522760    -0.585374821673    -0.146005167987    12.000000000000
         C           -1.975646477240     0.602075178327     0.081700832013    12.000000000000
         C           -1.942132477240    -1.806400821673    -0.106329167987    12.000000000000
         C           -2.655982477240    -0.611542821673    -0.006863167987    12.000000000000
         C            2.385866522760    -1.629639821673     0.670751832013    12.000000000000
         H            0.002499522760    -2.709131821673    -0.200227167987     1.007825032230
         H           -2.519560477240     1.537935178327     0.173352832013     1.007825032230
         H           -2.514149777240    -2.843558821673    -0.180709567987     1.007825032230
         H           -3.742833477240    -0.619440821673     0.012410832013     1.007825032230
         H            2.199228522760    -2.634738821673     0.279252832013     1.007825032230
         H            2.047450522760    -1.611425821673     1.710773832013     1.007825032230
         H            3.455987522760    -1.424424821673     0.616928832013     1.007825032230

  Basis Set: AUG-CC-PVTZ
    Blend: AUG-CC-PVTZ
  Basis Set: (AUG-CC-PVTZ AUX)
    Blend: AUG-CC-PVTZ-JKFIT
	 Reference Energy          =    -841.5194733884928837 [Eh]
	 Singles Energy            =      -0.0000000000000000 [Eh]
	 Same-Spin Energy          =      -0.4744467063631230 [Eh]
	 Opposite-Spin Energy      =      -1.4500618598826693 [Eh]
	 Correlation Energy        =      -1.9245085662457924 [Eh]
	 Total Energy              =    -843.4439819547386605 [Eh]

	 ================> DF-SCS-MP2 Energies <==================
	-----------------------------------------------------------
	 SCS Same-Spin Scale       =       0.3333333333333333 [-]
	 SCS Opposite-Spin Scale   =       1.2000000000000000 [-]
	 SCS Same-Spin Energy      =      -0.1581489021210410 [Eh]
	 SCS Opposite-Spin Energy  =      -1.7400742318592031 [Eh]
	 SCS Correlation Energy    =      -1.8982231339802440 [Eh]
	 SCS Total Energy          =    -843.4176965224730793 [Eh]
	-----------------------------------------------------------

  Dipole Moment: [D]
     X:    -2.1804      Y:    -2.9590      Z:     1.4294     Total:     3.9437

*** Psi4 exiting successfully. Buy a developer a beer!
