                               Psi4 1.4a3.dev225

  ==> Input File <==

--------------------------------------------------------------------------
#psi4
#
memory 32 gb

molecule  {
0 1
 Cl        0.2076870     2.2487580     0.1866360
  O        2.2653220     0.2846580    -0.8778020
  C        0.1642190    -0.4887810    -0.0665560
  C       -0.5729690     0.7033250     0.0302020
  C       -0.5420740    -1.7002010    -0.1332520
  C        1.6142384    -0.5740675    -0.1013399
  C       -1.9684630     0.6780340     0.0679080
  C       -1.9349490    -1.7304420    -0.1201220
  C       -2.6487990    -0.5355840    -0.0206560
  C        2.3930500    -1.5536810     0.6569590
  H        0.0096830    -2.6331730    -0.2140200
  H       -2.5123770     1.6138940     0.1595600
  H       -2.4587670    -2.6802070    -0.1882350
  H       -3.7356500    -0.5434820    -0.0013820
  H        2.2064120    -2.5587800     0.2654600
  H        2.0546340    -1.5354670     1.6969810
  H        3.4631710    -1.3484660     0.6031360
units angstrom
no_reorient  #important for SAPT in psi4, default
symmetry c1  #important for SAPT in psi4, default
}

set PROPERTIES_ORIGIN ["COM"]
properties('MP2/aug-cc-pvtz', properties = ['dipole'])
--------------------------------------------------------------------------

    Molecular point group: c1
  Charge       = 0
  Multiplicity = 1
  Basis Set: AUG-CC-PVTZ
    Blend: AUG-CC-PVTZ
  Basis Set: (AUG-CC-PVTZ AUX)
    Blend: AUG-CC-PVTZ-JKFIT

    Orbital Energies [Eh]
    ---------------------

    Doubly Occupied:

       1A   -104.841387     2A    -20.544385     3A    -11.351317
       4A    -11.325124     5A    -11.273479     6A    -11.270890
       7A    -11.267613     8A    -11.262754     9A    -11.260287
      10A    -11.246839    11A    -10.565064    12A     -8.031957
      13A     -8.029985    14A     -8.029914    15A     -1.323446
      16A     -1.201865    17A     -1.128823    18A     -1.077817
      19A     -1.021056    20A     -1.007287    21A     -0.884501
      22A     -0.843709    23A     -0.776251    24A     -0.704600
      25A     -0.671426    26A     -0.660794    27A     -0.634296
      28A     -0.618097    29A     -0.603582    30A     -0.592610
      31A     -0.562039    32A     -0.551167    33A     -0.535592
      34A     -0.522042    35A     -0.477708    36A     -0.468694
      37A     -0.451660    38A     -0.422619    39A     -0.362991
      40A     -0.346054

  @DF-RHF Final Energy:  -841.50097409282125

   => Energetics <=

    Nuclear Repulsion Energy =            563.3624921213843209
    One-Electron Energy =               -2272.2234924678618881
    Two-Electron Energy =                 867.3600262536563150
    Total Energy =                       -841.5009740928212523
  Basis Set: (AUG-CC-PVTZ AUX)
    Blend: AUG-CC-PVTZ-RI
    Molecular point group: c1

    Geometry (in Angstrom), charge = 0, multiplicity = 1:

       Center              X                  Y                   Z               Mass
    ------------   -----------------  -----------------  -----------------  -----------------
         CL           0.204007300487     2.177264492280     0.195833192871    34.968852682000
         O            2.261642300487     0.213164492280    -0.868604807129    15.994914619570
         C            0.160539300487    -0.560274507720    -0.057358807129    12.000000000000
         C           -0.576648699513     0.631831492280     0.039399192871    12.000000000000
         C           -0.545753699513    -1.771694507720    -0.124054807129    12.000000000000
         C            1.610558700487    -0.645561007720    -0.092142707129    12.000000000000
         C           -1.972142699513     0.606540492280     0.077105192871    12.000000000000
         C           -1.938628699513    -1.801935507720    -0.110924807129    12.000000000000
         C           -2.652478699513    -0.607077507720    -0.011458807129    12.000000000000
         C            2.389370300487    -1.625174507720     0.666156192871    12.000000000000
         H            0.006003300487    -2.704666507720    -0.204822807129     1.007825032230
         H           -2.516056699513     1.542400492280     0.168757192871     1.007825032230
         H           -2.462446699513    -2.751700507720    -0.179037807129     1.007825032230
         H           -3.739329699513    -0.614975507720     0.007815192871     1.007825032230
         H            2.202732300487    -2.630273507720     0.274657192871     1.007825032230
         H            2.050954300487    -1.606960507720     1.706178192871     1.007825032230
         H            3.459491300487    -1.419959507720     0.612333192871     1.007825032230

  Basis Set: AUG-CC-PVTZ
    Blend: AUG-CC-PVTZ
  Basis Set: (AUG-CC-PVTZ AUX)
    Blend: AUG-CC-PVTZ-JKFIT
	 Reference Energy          =    -841.5009740928212523 [Eh]
	 Singles Energy            =      -0.0000000000000000 [Eh]
	 Same-Spin Energy          =      -0.4780177462247964 [Eh]
	 Opposite-Spin Energy      =      -1.4567245550435872 [Eh]
	 Correlation Energy        =      -1.9347423012683835 [Eh]
	 Total Energy              =    -843.4357163940895816 [Eh]

	 ================> DF-SCS-MP2 Energies <==================
	-----------------------------------------------------------
	 SCS Same-Spin Scale       =       0.3333333333333333 [-]
	 SCS Opposite-Spin Scale   =       1.2000000000000000 [-]
	 SCS Same-Spin Energy      =      -0.1593392487415988 [Eh]
	 SCS Opposite-Spin Energy  =      -1.7480694660523046 [Eh]
	 SCS Correlation Energy    =      -1.9074087147939034 [Eh]
	 SCS Total Energy          =    -843.4083828076151121 [Eh]
	-----------------------------------------------------------

  Dipole Moment: [D]
     X:    -2.4252      Y:    -3.1813      Z:     1.6405     Total:     4.3236

*** Psi4 exiting successfully. Buy a developer a beer!
