                               Psi4 1.4a3.dev225

  ==> Input File <==

--------------------------------------------------------------------------
#psi4
#
memory 32 gb

molecule  {
0 1
 Cl        0.2076870     2.2487580     0.1866360
  O        2.2653220     0.2846580    -0.8778020
  C        0.1642190    -0.4887810    -0.0665560
  C       -0.5729690     0.7033250     0.0302020
  C       -0.5420740    -1.7002010    -0.1332520
  C        1.6632570    -0.5094160    -0.1597980
  C       -1.9684630     0.6780340     0.0679080
  C       -1.9349490    -1.7304420    -0.1201220
  C       -2.6487990    -0.5355840    -0.0206560
  C        2.3930500    -1.5536810     0.6569590
  H        0.0096830    -2.6331730    -0.2140200
  H       -2.5123770     1.6138940     0.1595600
  H       -2.4587670    -2.6802070    -0.1882350
  H       -3.7356500    -0.5434820    -0.0013820
  H        2.0955084    -2.5402404     0.2875016
  H        2.0546340    -1.5354670     1.6969810
  H        3.4631710    -1.3484660     0.6031360
units angstrom
no_reorient  #important for SAPT in psi4, default
symmetry c1  #important for SAPT in psi4, default
}

set PROPERTIES_ORIGIN ["COM"]
properties('MP2/aug-cc-pvtz', properties = ['dipole'])
--------------------------------------------------------------------------

    Molecular point group: c1
  Charge       = 0
  Multiplicity = 1
  Basis Set: AUG-CC-PVTZ
    Blend: AUG-CC-PVTZ
  Basis Set: (AUG-CC-PVTZ AUX)
    Blend: AUG-CC-PVTZ-JKFIT

    Orbital Energies [Eh]
    ---------------------

    Doubly Occupied:

       1A   -104.841274     2A    -20.552532     3A    -11.345592
       4A    -11.320551     5A    -11.270821     6A    -11.267745
       7A    -11.264077     8A    -11.260327     9A    -11.258292
      10A    -11.243696    11A    -10.565048    12A     -8.031944
      13A     -8.029984    14A     -8.029928    15A     -1.383600
      16A     -1.199656    17A     -1.126938    18A     -1.067191
      19A     -1.013596    20A     -1.000309    21A     -0.876217
      22A     -0.838054    23A     -0.771235    24A     -0.704607
      25A     -0.669297    26A     -0.664406    27A     -0.636241
      28A     -0.617862    29A     -0.603739    30A     -0.593592
      31A     -0.570506    32A     -0.551519    33A     -0.536622
      34A     -0.524500    35A     -0.496330    36A     -0.473726
      37A     -0.457469    38A     -0.419083    39A     -0.362136
      40A     -0.344549

  @DF-RHF Final Energy:  -841.52575924091298

   => Energetics <=

    Nuclear Repulsion Energy =            563.8116123330859182
    One-Electron Energy =               -2273.1051632069907100
    Two-Electron Energy =                 867.7677916329917025
    Total Energy =                       -841.5257592409129757
  Basis Set: (AUG-CC-PVTZ AUX)
    Blend: AUG-CC-PVTZ-RI
    Molecular point group: c1

    Geometry (in Angstrom), charge = 0, multiplicity = 1:

       Center              X                  Y                   Z               Mass
    ------------   -----------------  -----------------  -----------------  -----------------
         CL           0.200913830260     2.172106005126     0.200243591208    34.968852682000
         O            2.258548830260     0.208006005126    -0.864194408792    15.994914619570
         C            0.157445830260    -0.565432994874    -0.052948408792    12.000000000000
         C           -0.579742169740     0.626673005126     0.043809591208    12.000000000000
         C           -0.548847169740    -1.776852994874    -0.119644408792    12.000000000000
         C            1.656483830260    -0.586067994874    -0.146190408792    12.000000000000
         C           -1.975236169740     0.601382005126     0.081515591208    12.000000000000
         C           -1.941722169740    -1.807093994874    -0.106514408792    12.000000000000
         C           -2.655572169740    -0.612235994874    -0.007048408792    12.000000000000
         C            2.386276830260    -1.630332994874     0.670566591208    12.000000000000
         H            0.002909830260    -2.709824994874    -0.200412408792     1.007825032230
         H           -2.519150169740     1.537242005126     0.173167591208     1.007825032230
         H           -2.465540169740    -2.756858994874    -0.174627408792     1.007825032230
         H           -3.742423169740    -0.620133994874     0.012225591208     1.007825032230
         H            2.088735230260    -2.616892394874     0.301109191208     1.007825032230
         H            2.047860830260    -1.612118994874     1.710588591208     1.007825032230
         H            3.456397830260    -1.425117994874     0.616743591208     1.007825032230

  Basis Set: AUG-CC-PVTZ
    Blend: AUG-CC-PVTZ
  Basis Set: (AUG-CC-PVTZ AUX)
    Blend: AUG-CC-PVTZ-JKFIT
	 Reference Energy          =    -841.5257592409129757 [Eh]
	 Singles Energy            =      -0.0000000000000000 [Eh]
	 Same-Spin Energy          =      -0.4743761371657474 [Eh]
	 Opposite-Spin Energy      =      -1.4492476535960557 [Eh]
	 Correlation Energy        =      -1.9236237907618032 [Eh]
	 Total Energy              =    -843.4493830316747562 [Eh]

	 ================> DF-SCS-MP2 Energies <==================
	-----------------------------------------------------------
	 SCS Same-Spin Scale       =       0.3333333333333333 [-]
	 SCS Opposite-Spin Scale   =       1.2000000000000000 [-]
	 SCS Same-Spin Energy      =      -0.1581253790552491 [Eh]
	 SCS Opposite-Spin Energy  =      -1.7390971843152667 [Eh]
	 SCS Correlation Energy    =      -1.8972225633705158 [Eh]
	 SCS Total Energy          =    -843.4229818042834950 [Eh]
	-----------------------------------------------------------

  Dipole Moment: [D]
     X:    -2.2482      Y:    -2.9733      Z:     1.4570     Total:     4.0022

*** Psi4 exiting successfully. Buy a developer a beer!
