                               Psi4 1.4a3.dev225

  ==> Input File <==

--------------------------------------------------------------------------
#psi4
#
memory 32 gb

molecule  {
0 1
 Cl        0.2076870     2.2487580     0.1866360
  O        2.2653220     0.2846580    -0.8778020
  C        0.1642190    -0.4887810    -0.0665560
  C       -0.5729690     0.7033250     0.0302020
  C       -0.5420740    -1.7002010    -0.1332520
  C        1.7254228    -0.4014606    -0.0619577
  C       -1.9684630     0.6780340     0.0679080
  C       -1.9349490    -1.7304420    -0.1201220
  C       -2.6487990    -0.5355840    -0.0206560
  C        2.3930500    -1.5536810     0.6569590
  H        0.0096830    -2.6331730    -0.2140200
  H       -2.5123770     1.6138940     0.1595600
  H       -2.4587670    -2.6802070    -0.1882350
  H       -3.7356500    -0.5434820    -0.0013820
  H        2.2064120    -2.5587800     0.2654600
  H        2.0546340    -1.5354670     1.6969810
  H        3.4631710    -1.3484660     0.6031360
units angstrom
no_reorient  #important for SAPT in psi4, default
symmetry c1  #important for SAPT in psi4, default
}

set PROPERTIES_ORIGIN ["COM"]
properties('MP2/aug-cc-pvtz', properties = ['dipole'])
--------------------------------------------------------------------------

    Molecular point group: c1
  Charge       = 0
  Multiplicity = 1
  Basis Set: AUG-CC-PVTZ
    Blend: AUG-CC-PVTZ
  Basis Set: (AUG-CC-PVTZ AUX)
    Blend: AUG-CC-PVTZ-JKFIT

    Orbital Energies [Eh]
    ---------------------

    Doubly Occupied:

       1A   -104.840484     2A    -20.561549     3A    -11.349272
       4A    -11.314506     5A    -11.270227     6A    -11.264494
       7A    -11.259669     8A    -11.256955     9A    -11.256024
      10A    -11.243717    11A    -10.564380    12A     -8.031275
      13A     -8.029334    14A     -8.029287    15A     -1.411464
      16A     -1.196015    17A     -1.124585    18A     -1.058130
      19A     -1.012337    20A     -0.998625    21A     -0.868788
      22A     -0.831099    23A     -0.768787    24A     -0.706393
      25A     -0.667117    26A     -0.663179    27A     -0.639146
      28A     -0.627822    29A     -0.603619    30A     -0.593611
      31A     -0.562429    32A     -0.552071    33A     -0.536256
      34A     -0.523775    35A     -0.507970    36A     -0.472744
      37A     -0.457504    38A     -0.415303    39A     -0.358283
      40A     -0.341714

  @DF-RHF Final Energy:  -841.51650488238317

   => Energetics <=

    Nuclear Repulsion Energy =            563.5112902001442308
    One-Electron Energy =               -2272.5157139502725840
    Two-Electron Energy =                 867.4879188677451793
    Total Energy =                       -841.5165048823831739
  Basis Set: (AUG-CC-PVTZ AUX)
    Blend: AUG-CC-PVTZ-RI
    Molecular point group: c1

    Geometry (in Angstrom), charge = 0, multiplicity = 1:

       Center              X                  Y                   Z               Mass
    ------------   -----------------  -----------------  -----------------  -----------------
         CL           0.195344624045     2.163816223220     0.192764819465    34.968852682000
         O            2.252979624045     0.199716223220    -0.871673180535    15.994914619570
         C            0.151876624045    -0.573722776780    -0.060427180535    12.000000000000
         C           -0.585311375955     0.618383223220     0.036330819465    12.000000000000
         C           -0.554416375955    -1.785142776780    -0.127123180535    12.000000000000
         C            1.713080424045    -0.486402376780    -0.055828880535    12.000000000000
         C           -1.980805375955     0.593092223220     0.074036819465    12.000000000000
         C           -1.947291375955    -1.815383776780    -0.113993180535    12.000000000000
         C           -2.661141375955    -0.620525776780    -0.014527180535    12.000000000000
         C            2.380707624045    -1.638622776780     0.663087819465    12.000000000000
         H           -0.002659375955    -2.718114776780    -0.207891180535     1.007825032230
         H           -2.524719375955     1.528952223220     0.165688819465     1.007825032230
         H           -2.471109375955    -2.765148776780    -0.182106180535     1.007825032230
         H           -3.747992375955    -0.628423776780     0.004746819465     1.007825032230
         H            2.194069624045    -2.643721776780     0.271588819465     1.007825032230
         H            2.042291624045    -1.620408776780     1.703109819465     1.007825032230
         H            3.450828624045    -1.433407776780     0.609264819465     1.007825032230

  Basis Set: AUG-CC-PVTZ
    Blend: AUG-CC-PVTZ
  Basis Set: (AUG-CC-PVTZ AUX)
    Blend: AUG-CC-PVTZ-JKFIT
	 Reference Energy          =    -841.5165048823831739 [Eh]
	 Singles Energy            =      -0.0000000000000000 [Eh]
	 Same-Spin Energy          =      -0.4736634817089897 [Eh]
	 Opposite-Spin Energy      =      -1.4483725339322751 [Eh]
	 Correlation Energy        =      -1.9220360156412648 [Eh]
	 Total Energy              =    -843.4385408980244847 [Eh]

	 ================> DF-SCS-MP2 Energies <==================
	-----------------------------------------------------------
	 SCS Same-Spin Scale       =       0.3333333333333333 [-]
	 SCS Opposite-Spin Scale   =       1.2000000000000000 [-]
	 SCS Same-Spin Energy      =      -0.1578878272363299 [Eh]
	 SCS Opposite-Spin Energy  =      -1.7380470407187301 [Eh]
	 SCS Correlation Energy    =      -1.8959348679550601 [Eh]
	 SCS Total Energy          =    -843.4124397503381942 [Eh]
	-----------------------------------------------------------

  Dipole Moment: [D]
     X:    -1.7908      Y:    -2.8983      Z:     1.4090     Total:     3.6867

*** Psi4 exiting successfully. Buy a developer a beer!
