                               Psi4 1.4a3.dev225

  ==> Input File <==

--------------------------------------------------------------------------
#psi4
#
memory 32 gb

molecule  {
0 1
 Cl        0.2076870     2.2487580     0.1866360
  O        2.2653220     0.2846580    -0.8778020
  C        0.1642190    -0.4887810    -0.0665560
  C       -0.5729690     0.7033250     0.0302020
  C       -0.5420740    -1.7002010    -0.1332520
  C        1.6403072    -0.5208957    -0.1535421
  C       -1.9684630     0.6780340     0.0679080
  C       -1.9349490    -1.7304420    -0.1201220
  C       -2.6487990    -0.5355840    -0.0206560
  C        2.3930500    -1.5536810     0.6569590
  H        0.0096830    -2.6331730    -0.2140200
  H       -2.5123770     1.6138940     0.1595600
  H       -2.4587670    -2.6802070    -0.1882350
  H       -3.7356500    -0.5434820    -0.0013820
  H        2.2064120    -2.5587800     0.2654600
  H        2.0546340    -1.5354670     1.6969810
  H        3.4631710    -1.3484660     0.6031360
units angstrom
no_reorient  #important for SAPT in psi4, default
symmetry c1  #important for SAPT in psi4, default
}

set PROPERTIES_ORIGIN ["COM"]
properties('MP2/aug-cc-pvtz', properties = ['dipole'])
--------------------------------------------------------------------------

    Molecular point group: c1
  Charge       = 0
  Multiplicity = 1
  Basis Set: AUG-CC-PVTZ
    Blend: AUG-CC-PVTZ
  Basis Set: (AUG-CC-PVTZ AUX)
    Blend: AUG-CC-PVTZ-JKFIT

    Orbital Energies [Eh]
    ---------------------

    Doubly Occupied:

       1A   -104.841729     2A    -20.550960     3A    -11.346800
       4A    -11.322202     5A    -11.271102     6A    -11.268946
       7A    -11.265508     8A    -11.261143     9A    -11.259009
      10A    -11.243507    11A    -10.565477    12A     -8.032372
      13A     -8.030408    14A     -8.030348    15A     -1.368830
      16A     -1.200919    17A     -1.127767    18A     -1.069788
      19A     -1.013944    20A     -1.000305    21A     -0.880117
      22A     -0.840000    23A     -0.773620    24A     -0.703813
      25A     -0.670186    26A     -0.662579    27A     -0.634035
      28A     -0.618435    29A     -0.603416    30A     -0.592282
      31A     -0.564312    32A     -0.552561    33A     -0.536650
      34A     -0.524437    35A     -0.491398    36A     -0.473822
      37A     -0.457740    38A     -0.420926    39A     -0.362870
      40A     -0.345353

  @DF-RHF Final Energy:  -841.52320363426156

   => Energetics <=

    Nuclear Repulsion Energy =            563.6744936375446287
    One-Electron Energy =               -2272.8361642768704769
    Two-Electron Energy =                 867.6384670050642853
    Total Energy =                       -841.5232036342615629
  Basis Set: (AUG-CC-PVTZ AUX)
    Blend: AUG-CC-PVTZ-RI
    Molecular point group: c1

    Geometry (in Angstrom), charge = 0, multiplicity = 1:

       Center              X                  Y                   Z               Mass
    ------------   -----------------  -----------------  -----------------  -----------------
         CL           0.201976209978     2.173121733950     0.199900407051    34.968852682000
         O            2.259611209978     0.209021733950    -0.864537592949    15.994914619570
         C            0.158508209978    -0.564417266050    -0.053291592949    12.000000000000
         C           -0.578679790022     0.627688733950     0.043466407051    12.000000000000
         C           -0.547784790022    -1.775837266050    -0.119987592949    12.000000000000
         C            1.634596409978    -0.596531966050    -0.140277692949    12.000000000000
         C           -1.974173790022     0.602397733950     0.081172407051    12.000000000000
         C           -1.940659790022    -1.806078266050    -0.106857592949    12.000000000000
         C           -2.654509790022    -0.611220266050    -0.007391592949    12.000000000000
         C            2.387339209978    -1.629317266050     0.670223407051    12.000000000000
         H            0.003972209978    -2.708809266050    -0.200755592949     1.007825032230
         H           -2.518087790022     1.538257733950     0.172824407051     1.007825032230
         H           -2.464477790022    -2.755843266050    -0.174970592949     1.007825032230
         H           -3.741360790022    -0.619118266050     0.011882407051     1.007825032230
         H            2.200701209978    -2.634416266050     0.278724407051     1.007825032230
         H            2.048923209978    -1.611103266050     1.710245407051     1.007825032230
         H            3.457460209978    -1.424102266050     0.616400407051     1.007825032230

  Basis Set: AUG-CC-PVTZ
    Blend: AUG-CC-PVTZ
  Basis Set: (AUG-CC-PVTZ AUX)
    Blend: AUG-CC-PVTZ-JKFIT
	 Reference Energy          =    -841.5232036342615629 [Eh]
	 Singles Energy            =      -0.0000000000000000 [Eh]
	 Same-Spin Energy          =      -0.4750039625664905 [Eh]
	 Opposite-Spin Energy      =      -1.4507588866814889 [Eh]
	 Correlation Energy        =      -1.9257628492479792 [Eh]
	 Total Energy              =    -843.4489664835095937 [Eh]

	 ================> DF-SCS-MP2 Energies <==================
	-----------------------------------------------------------
	 SCS Same-Spin Scale       =       0.3333333333333333 [-]
	 SCS Opposite-Spin Scale   =       1.2000000000000000 [-]
	 SCS Same-Spin Energy      =      -0.1583346541888301 [Eh]
	 SCS Opposite-Spin Energy  =      -1.7409106640177867 [Eh]
	 SCS Correlation Energy    =      -1.8992453182066169 [Eh]
	 SCS Total Energy          =    -843.4224489524681303 [Eh]
	-----------------------------------------------------------

  Dipole Moment: [D]
     X:    -2.3449      Y:    -3.0094      Z:     1.4630     Total:     4.0860

*** Psi4 exiting successfully. Buy a developer a beer!
