                               Psi4 1.4a3.dev225

  ==> Input File <==

--------------------------------------------------------------------------
#psi4
#
memory 32 gb

molecule  {
0 1
 Cl        0.2076870     2.2487580     0.1866360
  O        2.2653220     0.2846580    -0.8778020
  C        0.1642190    -0.4887810    -0.0665560
  C       -0.5729690     0.7033250     0.0302020
  C       -0.5420740    -1.7002010    -0.1332520
  C        1.6632570    -0.5094160    -0.1597980
  C       -1.9684630     0.6780340     0.0679080
  C       -1.9335857    -1.6335113    -0.1123858
  C       -2.6487990    -0.5355840    -0.0206560
  C        2.3930500    -1.5536810     0.6569590
  H        0.0096830    -2.6331730    -0.2140200
  H       -2.5123770     1.6138940     0.1595600
  H       -2.4587670    -2.6802070    -0.1882350
  H       -3.7356500    -0.5434820    -0.0013820
  H        2.2064120    -2.5587800     0.2654600
  H        2.0546340    -1.5354670     1.6969810
  H        3.4631710    -1.3484660     0.6031360
units angstrom
no_reorient  #important for SAPT in psi4, default
symmetry c1  #important for SAPT in psi4, default
}

set PROPERTIES_ORIGIN ["COM"]
properties('MP2/aug-cc-pvtz', properties = ['dipole'])
--------------------------------------------------------------------------

    Molecular point group: c1
  Charge       = 0
  Multiplicity = 1
  Basis Set: AUG-CC-PVTZ
    Blend: AUG-CC-PVTZ
  Basis Set: (AUG-CC-PVTZ AUX)
    Blend: AUG-CC-PVTZ-JKFIT

    Orbital Energies [Eh]
    ---------------------

    Doubly Occupied:

       1A   -104.840040     2A    -20.553902     3A    -11.346396
       4A    -11.317825     5A    -11.271392     6A    -11.267791
       7A    -11.260574     8A    -11.256266     9A    -11.252911
      10A    -11.243840    11A    -10.563818    12A     -8.030721
      13A     -8.028757    14A     -8.028706    15A     -1.384609
      16A     -1.204515    17A     -1.131726    18A     -1.072419
      19A     -1.011001    20A     -1.001629    21A     -0.882148
      22A     -0.837682    23A     -0.764491    24A     -0.706343
      25A     -0.674938    26A     -0.665235    27A     -0.635009
      28A     -0.621939    29A     -0.599961    30A     -0.583352
      31A     -0.568937    32A     -0.558183    33A     -0.542105
      34A     -0.511393    35A     -0.495308    36A     -0.478384
      37A     -0.457340    38A     -0.419333    39A     -0.365415
      40A     -0.345887

  @DF-RHF Final Energy:  -841.51465695827949

   => Energetics <=

    Nuclear Repulsion Energy =            565.3159865284368379
    One-Electron Energy =               -2276.0968418249985916
    Two-Electron Energy =                 869.2661983382821518
    Total Energy =                       -841.5146569582794882
  Basis Set: (AUG-CC-PVTZ AUX)
    Blend: AUG-CC-PVTZ-RI
    Molecular point group: c1

    Geometry (in Angstrom), charge = 0, multiplicity = 1:

       Center              X                  Y                   Z               Mass
    ------------   -----------------  -----------------  -----------------  -----------------
         CL           0.200081910790     2.164675187328     0.199785072885    34.968852682000
         O            2.257716910790     0.200575187328    -0.864652927115    15.994914619570
         C            0.156613910790    -0.572863812672    -0.053406927115    12.000000000000
         C           -0.580574089210     0.619242187328     0.043351072885    12.000000000000
         C           -0.549679089210    -1.784283812672    -0.120102927115    12.000000000000
         C            1.655651910790    -0.593498812672    -0.146648927115    12.000000000000
         C           -1.976068089210     0.593951187328     0.081057072885    12.000000000000
         C           -1.941190789210    -1.717594112672    -0.099236727115    12.000000000000
         C           -2.656404089210    -0.619666812672    -0.007506927115    12.000000000000
         C            2.385444910790    -1.637763812672     0.670108072885    12.000000000000
         H            0.002077910790    -2.717255812672    -0.200870927115     1.007825032230
         H           -2.519982089210     1.529811187328     0.172709072885     1.007825032230
         H           -2.466372089210    -2.764289812672    -0.175085927115     1.007825032230
         H           -3.743255089210    -0.627564812672     0.011767072885     1.007825032230
         H            2.198806910790    -2.642862812672     0.278609072885     1.007825032230
         H            2.047028910790    -1.619549812672     1.710130072885     1.007825032230
         H            3.455565910790    -1.432548812672     0.616285072885     1.007825032230

  Basis Set: AUG-CC-PVTZ
    Blend: AUG-CC-PVTZ
  Basis Set: (AUG-CC-PVTZ AUX)
    Blend: AUG-CC-PVTZ-JKFIT
	 Reference Energy          =    -841.5146569582794882 [Eh]
	 Singles Energy            =      -0.0000000000000000 [Eh]
	 Same-Spin Energy          =      -0.4744416518537209 [Eh]
	 Opposite-Spin Energy      =      -1.4493246950652419 [Eh]
	 Correlation Energy        =      -1.9237663469189628 [Eh]
	 Total Energy              =    -843.4384233051983983 [Eh]

	 ================> DF-SCS-MP2 Energies <==================
	-----------------------------------------------------------
	 SCS Same-Spin Scale       =       0.3333333333333333 [-]
	 SCS Opposite-Spin Scale   =       1.2000000000000000 [-]
	 SCS Same-Spin Energy      =      -0.1581472172845736 [Eh]
	 SCS Opposite-Spin Energy  =      -1.7391896340782902 [Eh]
	 SCS Correlation Energy    =      -1.8973368513628639 [Eh]
	 SCS Total Energy          =    -843.4119938096423539 [Eh]
	-----------------------------------------------------------

  Dipole Moment: [D]
     X:    -2.1581      Y:    -2.9568      Z:     1.4326     Total:     3.9309

*** Psi4 exiting successfully. Buy a developer a beer!
