                               Psi4 1.4a3.dev225

  ==> Input File <==

--------------------------------------------------------------------------
#psi4
#
memory 32 gb

molecule  {
0 1
 Cl        0.2076870     2.2487580     0.1866360
  O        2.2653220     0.2846580    -0.8778020
  C        0.1642190    -0.4887810    -0.0665560
  C       -0.5729690     0.7033250     0.0302020
  C       -0.5420740    -1.7002010    -0.1332520
  C        1.6632570    -0.5094160    -0.1597980
  C       -1.9684630     0.6780340     0.0679080
  C       -1.9349490    -1.7304420    -0.1201220
  C       -2.6487990    -0.5355840    -0.0206560
  C        2.3930500    -1.5536810     0.6569590
  H        0.0096830    -2.6331730    -0.2140200
  H       -2.5123770     1.6138940     0.1595600
  H       -2.4587670    -2.6802070    -0.1882350
  H       -3.7356500    -0.5434820    -0.0013820
  H        2.1893625    -2.6505965     0.2296963
  H        2.0546340    -1.5354670     1.6969810
  H        3.4631710    -1.3484660     0.6031360
units angstrom
no_reorient  #important for SAPT in psi4, default
symmetry c1  #important for SAPT in psi4, default
}

set PROPERTIES_ORIGIN ["COM"]
properties('MP2/aug-cc-pvtz', properties = ['dipole'])
--------------------------------------------------------------------------

    Molecular point group: c1
  Charge       = 0
  Multiplicity = 1
  Basis Set: AUG-CC-PVTZ
    Blend: AUG-CC-PVTZ
  Basis Set: (AUG-CC-PVTZ AUX)
    Blend: AUG-CC-PVTZ-JKFIT

    Orbital Energies [Eh]
    ---------------------

    Doubly Occupied:

       1A   -104.841328     2A    -20.553999     3A    -11.347183
       4A    -11.320452     5A    -11.270544     6A    -11.267089
       7A    -11.263892     8A    -11.260006     9A    -11.257798
      10A    -11.254567    11A    -10.565106    12A     -8.032002
      13A     -8.030043    14A     -8.029987    15A     -1.384723
      16A     -1.199457    17A     -1.126718    18A     -1.065482
      19A     -1.011745    20A     -0.995785    21A     -0.875495
      22A     -0.837600    23A     -0.770842    24A     -0.703256
      25A     -0.669022    26A     -0.663481    27A     -0.633023
      28A     -0.619186    29A     -0.601763    30A     -0.589697
      31A     -0.560574    32A     -0.550934    33A     -0.536444
      34A     -0.524264    35A     -0.494808    36A     -0.473486
      37A     -0.457670    38A     -0.420314    39A     -0.361797
      40A     -0.344366

  @DF-RHF Final Energy:  -841.52025366202668

   => Energetics <=

    Nuclear Repulsion Energy =            563.2049963901364436
    One-Electron Energy =               -2271.9186462393399779
    Two-Electron Energy =                 867.1933961871769725
    Total Energy =                       -841.5202536620266756
  Basis Set: (AUG-CC-PVTZ AUX)
    Blend: AUG-CC-PVTZ-RI
    Molecular point group: c1

    Geometry (in Angstrom), charge = 0, multiplicity = 1:

       Center              X                  Y                   Z               Mass
    ------------   -----------------  -----------------  -----------------  -----------------
         CL           0.200299693093     2.172828123634     0.200621841952    34.968852682000
         O            2.257934693093     0.208728123634    -0.863816158048    15.994914619570
         C            0.156831693093    -0.564710876366    -0.052570158048    12.000000000000
         C           -0.580356306907     0.627395123634     0.044187841952    12.000000000000
         C           -0.549461306907    -1.776130876366    -0.119266158048    12.000000000000
         C            1.655869693093    -0.585345876366    -0.145812158048    12.000000000000
         C           -1.975850306907     0.602104123634     0.081893841952    12.000000000000
         C           -1.942336306907    -1.806371876366    -0.106136158048    12.000000000000
         C           -2.656186306907    -0.611513876366    -0.006670158048    12.000000000000
         C            2.385662693093    -1.629610876366     0.670944841952    12.000000000000
         H            0.002295693093    -2.709102876366    -0.200034158048     1.007825032230
         H           -2.519764306907     1.537964123634     0.173545841952     1.007825032230
         H           -2.466154306907    -2.756136876366    -0.174249158048     1.007825032230
         H           -3.743037306907    -0.619411876366     0.012603841952     1.007825032230
         H            2.181975193093    -2.726526376366     0.243682141952     1.007825032230
         H            2.047246693093    -1.611396876366     1.710966841952     1.007825032230
         H            3.455783693093    -1.424395876366     0.617121841952     1.007825032230

  Basis Set: AUG-CC-PVTZ
    Blend: AUG-CC-PVTZ
  Basis Set: (AUG-CC-PVTZ AUX)
    Blend: AUG-CC-PVTZ-JKFIT
	 Reference Energy          =    -841.5202536620266756 [Eh]
	 Singles Energy            =      -0.0000000000000000 [Eh]
	 Same-Spin Energy          =      -0.4742957708491208 [Eh]
	 Opposite-Spin Energy      =      -1.4498807234793525 [Eh]
	 Correlation Energy        =      -1.9241764943284734 [Eh]
	 Total Energy              =    -843.4444301563551107 [Eh]

	 ================> DF-SCS-MP2 Energies <==================
	-----------------------------------------------------------
	 SCS Same-Spin Scale       =       0.3333333333333333 [-]
	 SCS Opposite-Spin Scale   =       1.2000000000000000 [-]
	 SCS Same-Spin Energy      =      -0.1580985902830403 [Eh]
	 SCS Opposite-Spin Energy  =      -1.7398568681752229 [Eh]
	 SCS Correlation Energy    =      -1.8979554584582632 [Eh]
	 SCS Total Energy          =    -843.4182091204849030 [Eh]
	-----------------------------------------------------------

  Dipole Moment: [D]
     X:    -2.1969      Y:    -2.9662      Z:     1.4344     Total:     3.9601

*** Psi4 exiting successfully. Buy a developer a beer!
