                               Psi4 1.4a3.dev225

  ==> Input File <==

--------------------------------------------------------------------------
#psi4
#
memory 32 gb

molecule  {
0 1
 Cl        0.2076870     2.2487580     0.1866360
  O        2.2653220     0.2846580    -0.8778020
  C        0.1642190    -0.4887810    -0.0665560
  C       -0.5729690     0.7033250     0.0302020
  C       -0.5420740    -1.7002010    -0.1332520
  C        1.6632570    -0.5094160    -0.1597980
  C       -1.9684630     0.6780340     0.0679080
  C       -1.9349490    -1.7304420    -0.1201220
  C       -2.6487990    -0.5355840    -0.0206560
  C        2.3930500    -1.5536810     0.6569590
  H        0.0096830    -2.6331730    -0.2140200
  H       -2.5123770     1.6138940     0.1595600
  H       -2.4587670    -2.6802070    -0.1882350
  H       -3.7356500    -0.5434820    -0.0013820
  H        2.2405110    -2.3751470     0.3369874
  H        2.0546340    -1.5354670     1.6969810
  H        3.4631710    -1.3484660     0.6031360
units angstrom
no_reorient  #important for SAPT in psi4, default
symmetry c1  #important for SAPT in psi4, default
}

set PROPERTIES_ORIGIN ["COM"]
properties('MP2/aug-cc-pvtz', properties = ['dipole'])
--------------------------------------------------------------------------

    Molecular point group: c1
  Charge       = 0
  Multiplicity = 1
  Basis Set: AUG-CC-PVTZ
    Blend: AUG-CC-PVTZ
  Basis Set: (AUG-CC-PVTZ AUX)
    Blend: AUG-CC-PVTZ-JKFIT

    Orbital Energies [Eh]
    ---------------------

    Doubly Occupied:

       1A   -104.841160     2A    -20.552768     3A    -11.345095
       4A    -11.320421     5A    -11.270613     6A    -11.267929
       7A    -11.264058     8A    -11.260268     9A    -11.258380
      10A    -11.218845    11A    -10.564934    12A     -8.031831
      13A     -8.029870    14A     -8.029815    15A     -1.383527
      16A     -1.199587    17A     -1.126950    18A     -1.071513
      19A     -1.024414    20A     -1.006370    21A     -0.878805
      22A     -0.839024    23A     -0.776024    24A     -0.708775
      25A     -0.669033    26A     -0.667880    27A     -0.645268
      28A     -0.628343    29A     -0.608089    30A     -0.597195
      31A     -0.568323    32A     -0.552707    33A     -0.535953
      34A     -0.524549    35A     -0.501261    36A     -0.473826
      37A     -0.458289    38A     -0.419386    39A     -0.362052
      40A     -0.344491

  @DF-RHF Final Energy:  -841.49311787299473

   => Energetics <=

    Nuclear Repulsion Energy =            564.6129036352657522
    One-Electron Energy =               -2274.5568012470785106
    Two-Electron Energy =                 868.4507797388179142
    Total Energy =                       -841.4931178729947305
  Basis Set: (AUG-CC-PVTZ AUX)
    Blend: AUG-CC-PVTZ-RI
    Molecular point group: c1

    Geometry (in Angstrom), charge = 0, multiplicity = 1:

       Center              X                  Y                   Z               Mass
    ------------   -----------------  -----------------  -----------------  -----------------
         CL           0.199965001323     2.171025711426     0.199919779366    34.968852682000
         O            2.257600001323     0.206925711426    -0.864518220634    15.994914619570
         C            0.156497001323    -0.566513288574    -0.053272220634    12.000000000000
         C           -0.580690998677     0.625592711426     0.043485779366    12.000000000000
         C           -0.549795998677    -1.777933288574    -0.119968220634    12.000000000000
         C            1.655535001323    -0.587148288574    -0.146514220634    12.000000000000
         C           -1.976184998677     0.600301711426     0.081191779366    12.000000000000
         C           -1.942670998677    -1.808174288574    -0.106838220634    12.000000000000
         C           -2.656520998677    -0.613316288574    -0.007372220634    12.000000000000
         C            2.385328001323    -1.631413288574     0.670242779366    12.000000000000
         H            0.001961001323    -2.710905288574    -0.200736220634     1.007825032230
         H           -2.520098998677     1.536161711426     0.172843779366     1.007825032230
         H           -2.466488998677    -2.757939288574    -0.174951220634     1.007825032230
         H           -3.743371998677    -0.621214288574     0.011901779366     1.007825032230
         H            2.232789001323    -2.452879288574     0.350271179366     1.007825032230
         H            2.046912001323    -1.613199288574     1.710264779366     1.007825032230
         H            3.455449001323    -1.426198288574     0.616419779366     1.007825032230

  Basis Set: AUG-CC-PVTZ
    Blend: AUG-CC-PVTZ
  Basis Set: (AUG-CC-PVTZ AUX)
    Blend: AUG-CC-PVTZ-JKFIT
	 Reference Energy          =    -841.4931178729947305 [Eh]
	 Singles Energy            =      -0.0000000000000000 [Eh]
	 Same-Spin Energy          =      -0.4742312618142213 [Eh]
	 Opposite-Spin Energy      =      -1.4485246073538063 [Eh]
	 Correlation Energy        =      -1.9227558691680275 [Eh]
	 Total Energy              =    -843.4158737421627166 [Eh]

	 ================> DF-SCS-MP2 Energies <==================
	-----------------------------------------------------------
	 SCS Same-Spin Scale       =       0.3333333333333333 [-]
	 SCS Opposite-Spin Scale   =       1.2000000000000000 [-]
	 SCS Same-Spin Energy      =      -0.1580770872714071 [Eh]
	 SCS Opposite-Spin Energy  =      -1.7382295288245675 [Eh]
	 SCS Correlation Energy    =      -1.8963066160959745 [Eh]
	 SCS Total Energy          =    -843.3894244890907430 [Eh]
	-----------------------------------------------------------

  Dipole Moment: [D]
     X:    -2.2206      Y:    -3.0101      Z:     1.4175     Total:     4.0001

*** Psi4 exiting successfully. Buy a developer a beer!
