                               Psi4 1.4a3.dev225

  ==> Input File <==

--------------------------------------------------------------------------
#psi4
#
memory 32 gb

molecule  {
0 1
 Cl        0.2076870     2.2487580     0.1866360
  O        2.2653220     0.2846580    -0.8778020
  C        0.1642190    -0.4887810    -0.0665560
  C       -0.5729690     0.7033250     0.0302020
  C       -0.5420740    -1.7002010    -0.1332520
  C        1.6632570    -0.5094160    -0.1597980
  C       -1.9684630     0.6780340     0.0679080
  C       -1.9349490    -1.7304420    -0.1201220
  C       -2.7511132    -0.3643282    -0.0063998
  C        2.3930500    -1.5536810     0.6569590
  H        0.0096830    -2.6331730    -0.2140200
  H       -2.5123770     1.6138940     0.1595600
  H       -2.4587670    -2.6802070    -0.1882350
  H       -3.7356500    -0.5434820    -0.0013820
  H        2.2064120    -2.5587800     0.2654600
  H        2.0546340    -1.5354670     1.6969810
  H        3.4631710    -1.3484660     0.6031360
units angstrom
no_reorient  #important for SAPT in psi4, default
symmetry c1  #important for SAPT in psi4, default
}

set PROPERTIES_ORIGIN ["COM"]
properties('MP2/aug-cc-pvtz', properties = ['dipole'])
--------------------------------------------------------------------------

    Molecular point group: c1
  Charge       = 0
  Multiplicity = 1
  Basis Set: AUG-CC-PVTZ
    Blend: AUG-CC-PVTZ
  Basis Set: (AUG-CC-PVTZ AUX)
    Blend: AUG-CC-PVTZ-JKFIT

    Orbital Energies [Eh]
    ---------------------

    Doubly Occupied:

       1A   -104.843342     2A    -20.554180     3A    -11.346617
       4A    -11.322603     5A    -11.272822     6A    -11.271735
       7A    -11.265668     8A    -11.263522     9A    -11.252757
      10A    -11.243552    11A    -10.566974    12A     -8.033867
      13A     -8.031901    14A     -8.031846    15A     -1.384676
      16A     -1.197632    17A     -1.119413    18A     -1.075159
      19A     -1.015738    20A     -0.989884    21A     -0.881063
      22A     -0.833912    23A     -0.773252    24A     -0.712417
      25A     -0.685191    26A     -0.658963    27A     -0.632682
      28A     -0.622465    29A     -0.607551    30A     -0.591878
      31A     -0.567046    32A     -0.552555    33A     -0.544149
      34A     -0.505126    35A     -0.481281    36A     -0.467846
      37A     -0.459343    38A     -0.420978    39A     -0.379672
      40A     -0.328905

  @DF-RHF Final Energy:  -841.48462867403885

   => Energetics <=

    Nuclear Repulsion Energy =            562.0647901900875922
    One-Electron Energy =               -2269.5185162519810547
    Two-Electron Energy =                 865.9690973878547311
    Total Energy =                       -841.4846286740388450
  Basis Set: (AUG-CC-PVTZ AUX)
    Blend: AUG-CC-PVTZ-RI
    Molecular point group: c1

    Geometry (in Angstrom), charge = 0, multiplicity = 1:

       Center              X                  Y                   Z               Mass
    ------------   -----------------  -----------------  -----------------  -----------------
         CL           0.208159704409     2.158884318350     0.199277082103    34.968852682000
         O            2.265794704409     0.194784318350    -0.865160917897    15.994914619570
         C            0.164691704409    -0.578654681650    -0.053914917897    12.000000000000
         C           -0.572496295591     0.613451318350     0.042843082103    12.000000000000
         C           -0.541601295591    -1.790074681650    -0.120610917897    12.000000000000
         C            1.663729704409    -0.599289681650    -0.147156917897    12.000000000000
         C           -1.967990295591     0.588160318350     0.080549082103    12.000000000000
         C           -1.934476295591    -1.820315681650    -0.107480917897    12.000000000000
         C           -2.750640495591    -0.454201881650     0.006241282103    12.000000000000
         C            2.393522704409    -1.643554681650     0.669600082103    12.000000000000
         H            0.010155704409    -2.723046681650    -0.201378917897     1.007825032230
         H           -2.511904295591     1.524020318350     0.172201082103     1.007825032230
         H           -2.458294295591    -2.770080681650    -0.175593917897     1.007825032230
         H           -3.735177295591    -0.633355681650     0.011259082103     1.007825032230
         H            2.206884704409    -2.648653681650     0.278101082103     1.007825032230
         H            2.055106704409    -1.625340681650     1.709622082103     1.007825032230
         H            3.463643704409    -1.438339681650     0.615777082103     1.007825032230

  Basis Set: AUG-CC-PVTZ
    Blend: AUG-CC-PVTZ
  Basis Set: (AUG-CC-PVTZ AUX)
    Blend: AUG-CC-PVTZ-JKFIT
	 Reference Energy          =    -841.4846286740388450 [Eh]
	 Singles Energy            =      -0.0000000000000000 [Eh]
	 Same-Spin Energy          =      -0.4738590605489909 [Eh]
	 Opposite-Spin Energy      =      -1.4519282015978989 [Eh]
	 Correlation Energy        =      -1.9257872621468897 [Eh]
	 Total Energy              =    -843.4104159361857000 [Eh]

	 ================> DF-SCS-MP2 Energies <==================
	-----------------------------------------------------------
	 SCS Same-Spin Scale       =       0.3333333333333333 [-]
	 SCS Opposite-Spin Scale   =       1.2000000000000000 [-]
	 SCS Same-Spin Energy      =      -0.1579530201829970 [Eh]
	 SCS Opposite-Spin Energy  =      -1.7423138419174786 [Eh]
	 SCS Correlation Energy    =      -1.9002668621004755 [Eh]
	 SCS Total Energy          =    -843.3848955361393109 [Eh]
	-----------------------------------------------------------

  Dipole Moment: [D]
     X:    -2.2142      Y:    -2.9197      Z:     1.4358     Total:     3.9356

*** Psi4 exiting successfully. Buy a developer a beer!
