                               Psi4 1.4a3.dev225

  ==> Input File <==

--------------------------------------------------------------------------
#psi4
#
memory 32 gb

molecule  {
0 1
 Cl        0.2076870     2.2487580     0.1866360
  O        2.2653220     0.2846580    -0.8778020
  C        0.1642190    -0.4887810    -0.0665560
  C       -0.5729690     0.7033250     0.0302020
  C       -0.5420740    -1.7002010    -0.1332520
  C        1.6632570    -0.5094160    -0.1597980
  C       -1.9684630     0.6780340     0.0679080
  C       -1.9349490    -1.7304420    -0.1201220
  C       -2.6487990    -0.5355840    -0.0206560
  C        2.3930500    -1.5536810     0.6569590
  H        0.0096830    -2.6331730    -0.2140200
  H       -2.5123770     1.6138940     0.1595600
  H       -2.4587670    -2.6802070    -0.1882350
  H       -3.7856408    -0.5438453    -0.0004955
  H        2.2064120    -2.5587800     0.2654600
  H        2.0546340    -1.5354670     1.6969810
  H        3.4631710    -1.3484660     0.6031360
units angstrom
no_reorient  #important for SAPT in psi4, default
symmetry c1  #important for SAPT in psi4, default
}

set PROPERTIES_ORIGIN ["COM"]
properties('MP2/aug-cc-pvtz', properties = ['dipole'])
--------------------------------------------------------------------------

    Molecular point group: c1
  Charge       = 0
  Multiplicity = 1
  Basis Set: AUG-CC-PVTZ
    Blend: AUG-CC-PVTZ
  Basis Set: (AUG-CC-PVTZ AUX)
    Blend: AUG-CC-PVTZ-JKFIT

    Orbital Energies [Eh]
    ---------------------

    Doubly Occupied:

       1A   -104.841433     2A    -20.553435     3A    -11.346387
       4A    -11.320701     5A    -11.270688     6A    -11.269457
       7A    -11.267708     8A    -11.260557     9A    -11.258464
      10A    -11.243171    11A    -10.565205    12A     -8.032102
      13A     -8.030141    14A     -8.030085    15A     -1.384214
      16A     -1.199612    17A     -1.126736    18A     -1.065771
      19A     -1.013353    20A     -0.999526    21A     -0.873869
      22A     -0.837799    23A     -0.771545    24A     -0.701576
      25A     -0.668938    26A     -0.660054    27A     -0.634205
      28A     -0.621822    29A     -0.603836    30A     -0.593898
      31A     -0.563492    32A     -0.551147    33A     -0.533566
      34A     -0.524415    35A     -0.497868    36A     -0.473834
      37A     -0.458074    38A     -0.419911    39A     -0.362079
      40A     -0.344628

  @DF-RHF Final Energy:  -841.52442006011734

   => Energetics <=

    Nuclear Repulsion Energy =            563.3597185858999410
    One-Electron Energy =               -2272.2176775873413135
    Two-Electron Energy =                 867.3335389413241501
    Total Energy =                       -841.5244200601173361
  Basis Set: (AUG-CC-PVTZ AUX)
    Blend: AUG-CC-PVTZ-RI
    Molecular point group: c1

    Geometry (in Angstrom), charge = 0, multiplicity = 1:

       Center              X                  Y                   Z               Mass
    ------------   -----------------  -----------------  -----------------  -----------------
         CL           0.200515245495     2.172229696829     0.200382020250    34.968852682000
         O            2.258150245495     0.208129696829    -0.864055979750    15.994914619570
         C            0.157047245495    -0.565309303171    -0.052809979750    12.000000000000
         C           -0.580140754505     0.626796696829     0.043948020250    12.000000000000
         C           -0.549245754505    -1.776729303171    -0.119505979750    12.000000000000
         C            1.656085245495    -0.585944303171    -0.146051979750    12.000000000000
         C           -1.975634754505     0.601505696829     0.081654020250    12.000000000000
         C           -1.942120754505    -1.806970303171    -0.106375979750    12.000000000000
         C           -2.655970754505    -0.612112303171    -0.006909979750    12.000000000000
         C            2.385878245495    -1.630209303171     0.670705020250    12.000000000000
         H            0.002511245495    -2.709701303171    -0.200273979750     1.007825032230
         H           -2.519548754505     1.537365696829     0.173306020250     1.007825032230
         H           -2.465938754505    -2.756735303171    -0.174488979750     1.007825032230
         H           -3.792812554505    -0.620373603171     0.013250520250     1.007825032230
         H            2.199240245495    -2.635308303171     0.279206020250     1.007825032230
         H            2.047462245495    -1.611995303171     1.710727020250     1.007825032230
         H            3.455999245495    -1.424994303171     0.616882020250     1.007825032230

  Basis Set: AUG-CC-PVTZ
    Blend: AUG-CC-PVTZ
  Basis Set: (AUG-CC-PVTZ AUX)
    Blend: AUG-CC-PVTZ-JKFIT
	 Reference Energy          =    -841.5244200601173361 [Eh]
	 Singles Energy            =      -0.0000000000000000 [Eh]
	 Same-Spin Energy          =      -0.4743297868196907 [Eh]
	 Opposite-Spin Energy      =      -1.4495497663941581 [Eh]
	 Correlation Energy        =      -1.9238795532138488 [Eh]
	 Total Energy              =    -843.4482996133311872 [Eh]

	 ================> DF-SCS-MP2 Energies <==================
	-----------------------------------------------------------
	 SCS Same-Spin Scale       =       0.3333333333333333 [-]
	 SCS Opposite-Spin Scale   =       1.2000000000000000 [-]
	 SCS Same-Spin Energy      =      -0.1581099289398969 [Eh]
	 SCS Opposite-Spin Energy  =      -1.7394597196729897 [Eh]
	 SCS Correlation Energy    =      -1.8975696486128866 [Eh]
	 SCS Total Energy          =    -843.4219897087301661 [Eh]
	-----------------------------------------------------------

  Dipole Moment: [D]
     X:    -2.1878      Y:    -2.9887      Z:     1.4275     Total:     3.9695

*** Psi4 exiting successfully. Buy a developer a beer!
