                               Psi4 1.4a3.dev225

  ==> Input File <==

--------------------------------------------------------------------------
#psi4
#
memory 32 gb

molecule  {
0 1
 Cl        0.2076870     2.2487580     0.1866360
  O        2.2653220     0.2846580    -0.8778020
  C        0.1642190    -0.4887810    -0.0665560
  C       -0.5729690     0.7033250     0.0302020
  C       -0.5420740    -1.7002010    -0.1332520
  C        1.6632570    -0.5094160    -0.1597980
  C       -1.9684630     0.6780340     0.0679080
  C       -1.9349490    -1.7304420    -0.1201220
  C       -2.6487990    -0.5355840    -0.0206560
  C        2.3930500    -1.5536810     0.6569590
  H        0.0096830    -2.6331730    -0.2140200
  H       -2.5374119     1.6569691     0.1637785
  H       -2.4587670    -2.6802070    -0.1882350
  H       -3.7356500    -0.5434820    -0.0013820
  H        2.2064120    -2.5587800     0.2654600
  H        2.0546340    -1.5354670     1.6969810
  H        3.4631710    -1.3484660     0.6031360
units angstrom
no_reorient  #important for SAPT in psi4, default
symmetry c1  #important for SAPT in psi4, default
}

set PROPERTIES_ORIGIN ["COM"]
properties('MP2/aug-cc-pvtz', properties = ['dipole'])
--------------------------------------------------------------------------

    Molecular point group: c1
  Charge       = 0
  Multiplicity = 1
  Basis Set: AUG-CC-PVTZ
    Blend: AUG-CC-PVTZ
  Basis Set: (AUG-CC-PVTZ AUX)
    Blend: AUG-CC-PVTZ-JKFIT

    Orbital Energies [Eh]
    ---------------------

    Doubly Occupied:

       1A   -104.841128     2A    -20.553422     3A    -11.346400
       4A    -11.320758     5A    -11.270792     6A    -11.267500
       7A    -11.265815     8A    -11.263936     9A    -11.258262
      10A    -11.243157    11A    -10.564904    12A     -8.031800
      13A     -8.029839    14A     -8.029783    15A     -1.384195
      16A     -1.199336    17A     -1.126810    18A     -1.065960
      19A     -1.012203    20A     -0.999922    21A     -0.875816
      22A     -0.836061    23A     -0.770444    24A     -0.703489
      25A     -0.668881    26A     -0.663256    27A     -0.630231
      28A     -0.620897    29A     -0.603525    30A     -0.592835
      31A     -0.564435    32A     -0.551813    33A     -0.535151
      34A     -0.522930    35A     -0.497591    36A     -0.473641
      37A     -0.457777    38A     -0.419946    39A     -0.362006
      40A     -0.344547

  @DF-RHF Final Energy:  -841.52434909062242

   => Energetics <=

    Nuclear Repulsion Energy =            563.3580158441341155
    One-Electron Energy =               -2272.2223363692733074
    Two-Electron Energy =                 867.3399714345167695
    Total Energy =                       -841.5243490906224224
  Basis Set: (AUG-CC-PVTZ AUX)
    Blend: AUG-CC-PVTZ-RI
    Molecular point group: c1

    Geometry (in Angstrom), charge = 0, multiplicity = 1:

       Center              X                  Y                   Z               Mass
    ------------   -----------------  -----------------  -----------------  -----------------
         CL           0.200351945802     2.171945456334     0.200360217207    34.968852682000
         O            2.257986945802     0.207845456334    -0.864077782793    15.994914619570
         C            0.156883945802    -0.565593543666    -0.052831782793    12.000000000000
         C           -0.580304054198     0.626512456334     0.043926217207    12.000000000000
         C           -0.549409054198    -1.777013543666    -0.119527782793    12.000000000000
         C            1.655921945802    -0.586228543666    -0.146073782793    12.000000000000
         C           -1.975798054198     0.601221456334     0.081632217207    12.000000000000
         C           -1.942284054198    -1.807254543666    -0.106397782793    12.000000000000
         C           -2.656134054198    -0.612396543666    -0.006931782793    12.000000000000
         C            2.385714945802    -1.630493543666     0.670683217207    12.000000000000
         H            0.002347945802    -2.709985543666    -0.200295782793     1.007825032230
         H           -2.544746954198     1.580156556334     0.177502717207     1.007825032230
         H           -2.466102054198    -2.757019543666    -0.174510782793     1.007825032230
         H           -3.742985054198    -0.620294543666     0.012342217207     1.007825032230
         H            2.199076945802    -2.635592543666     0.279184217207     1.007825032230
         H            2.047298945802    -1.612279543666     1.710705217207     1.007825032230
         H            3.455835945802    -1.425278543666     0.616860217207     1.007825032230

  Basis Set: AUG-CC-PVTZ
    Blend: AUG-CC-PVTZ
  Basis Set: (AUG-CC-PVTZ AUX)
    Blend: AUG-CC-PVTZ-JKFIT
	 Reference Energy          =    -841.5243490906224224 [Eh]
	 Singles Energy            =      -0.0000000000000000 [Eh]
	 Same-Spin Energy          =      -0.4743695432192565 [Eh]
	 Opposite-Spin Energy      =      -1.4495433085678671 [Eh]
	 Correlation Energy        =      -1.9239128517871236 [Eh]
	 Total Energy              =    -843.4482619424095446 [Eh]

	 ================> DF-SCS-MP2 Energies <==================
	-----------------------------------------------------------
	 SCS Same-Spin Scale       =       0.3333333333333333 [-]
	 SCS Opposite-Spin Scale   =       1.2000000000000000 [-]
	 SCS Same-Spin Energy      =      -0.1581231810730855 [Eh]
	 SCS Opposite-Spin Energy  =      -1.7394519702814404 [Eh]
	 SCS Correlation Energy    =      -1.8975751513545258 [Eh]
	 SCS Total Energy          =    -843.4219242419769671 [Eh]
	-----------------------------------------------------------

  Dipole Moment: [D]
     X:    -2.2009      Y:    -2.9943      Z:     1.4271     Total:     3.9808

*** Psi4 exiting successfully. Buy a developer a beer!
