                               Psi4 1.4a3.dev225

  ==> Input File <==

--------------------------------------------------------------------------
#psi4
#
memory 32 gb

molecule  {
0 1
 Cl        0.2076870     2.2487580     0.1866360
  O        2.2653220     0.2846580    -0.8778020
  C        0.1642190    -0.4887810    -0.0665560
  C       -0.5729690     0.7033250     0.0302020
  C       -0.5420740    -1.7002010    -0.1332520
  C        1.6632570    -0.5094160    -0.1597980
  C       -1.9684630     0.6780340     0.0679080
  C       -1.9349490    -1.7304420    -0.1201220
  C       -2.6487990    -0.5355840    -0.0206560
  C        2.3930500    -1.5536810     0.6569590
  H        0.0096830    -2.6331730    -0.2140200
  H       -2.5123770     1.6138940     0.1595600
  H       -2.4587670    -2.6802070    -0.1882350
  H       -3.7356500    -0.5434820    -0.0013820
  H        2.2507699    -2.5219201     0.1664505
  H        2.0546340    -1.5354670     1.6969810
  H        3.4631710    -1.3484660     0.6031360
units angstrom
no_reorient  #important for SAPT in psi4, default
symmetry c1  #important for SAPT in psi4, default
}

set PROPERTIES_ORIGIN ["COM"]
properties('MP2/aug-cc-pvtz', properties = ['dipole'])
--------------------------------------------------------------------------

    Molecular point group: c1
  Charge       = 0
  Multiplicity = 1
  Basis Set: AUG-CC-PVTZ
    Blend: AUG-CC-PVTZ
  Basis Set: (AUG-CC-PVTZ AUX)
    Blend: AUG-CC-PVTZ-JKFIT

    Orbital Energies [Eh]
    ---------------------

    Doubly Occupied:

       1A   -104.841170     2A    -20.552526     3A    -11.345418
       4A    -11.320364     5A    -11.270395     6A    -11.267256
       7A    -11.263860     8A    -11.260008     9A    -11.257887
      10A    -11.243098    11A    -10.564946    12A     -8.031842
      13A     -8.029883    14A     -8.029827    15A     -1.383539
      16A     -1.199385    17A     -1.126678    18A     -1.066455
      19A     -1.013296    20A     -1.000065    21A     -0.876098
      22A     -0.837818    23A     -0.771263    24A     -0.702914
      25A     -0.668905    26A     -0.662531    27A     -0.632801
      28A     -0.623291    29A     -0.607986    30A     -0.596024
      31A     -0.559746    32A     -0.552360    33A     -0.535666
      34A     -0.524622    35A     -0.498337    36A     -0.473489
      37A     -0.457409    38A     -0.418729    39A     -0.361775
      40A     -0.344313

  @DF-RHF Final Energy:  -841.52584983962242

   => Energetics <=

    Nuclear Repulsion Energy =            563.6610422130630695
    One-Electron Energy =               -2272.8258319934261635
    Two-Electron Energy =                 867.6389399407407836
    Total Energy =                       -841.5258498396224240
  Basis Set: (AUG-CC-PVTZ AUX)
    Blend: AUG-CC-PVTZ-RI
    Molecular point group: c1

    Geometry (in Angstrom), charge = 0, multiplicity = 1:

       Center              X                  Y                   Z               Mass
    ------------   -----------------  -----------------  -----------------  -----------------
         CL           0.199897871898     2.171986125684     0.201035692774    34.968852682000
         O            2.257532871898     0.207886125684    -0.863402307226    15.994914619570
         C            0.156429871898    -0.565552874316    -0.052156307226    12.000000000000
         C           -0.580758128102     0.626553125684     0.044601692774    12.000000000000
         C           -0.549863128102    -1.776972874316    -0.118852307226    12.000000000000
         C            1.655467871898    -0.586187874316    -0.145398307226    12.000000000000
         C           -1.976252128102     0.601262125684     0.082307692774    12.000000000000
         C           -1.942738128102    -1.807213874316    -0.105722307226    12.000000000000
         C           -2.656588128102    -0.612355874316    -0.006256307226    12.000000000000
         C            2.385260871898    -1.630452874316     0.671358692774    12.000000000000
         H            0.001893871898    -2.709944874316    -0.199620307226     1.007825032230
         H           -2.520166128102     1.537122125684     0.173959692774     1.007825032230
         H           -2.466556128102    -2.756978874316    -0.173835307226     1.007825032230
         H           -3.743439128102    -0.620253874316     0.013017692774     1.007825032230
         H            2.242980771898    -2.598691974316     0.180850192774     1.007825032230
         H            2.046844871898    -1.612238874316     1.711380692774     1.007825032230
         H            3.455381871898    -1.425237874316     0.617535692774     1.007825032230

  Basis Set: AUG-CC-PVTZ
    Blend: AUG-CC-PVTZ
  Basis Set: (AUG-CC-PVTZ AUX)
    Blend: AUG-CC-PVTZ-JKFIT
	 Reference Energy          =    -841.5258498396224240 [Eh]
	 Singles Energy            =      -0.0000000000000000 [Eh]
	 Same-Spin Energy          =      -0.4742540914244217 [Eh]
	 Opposite-Spin Energy      =      -1.4492029700905578 [Eh]
	 Correlation Energy        =      -1.9234570615149795 [Eh]
	 Total Energy              =    -843.4493069011374473 [Eh]

	 ================> DF-SCS-MP2 Energies <==================
	-----------------------------------------------------------
	 SCS Same-Spin Scale       =       0.3333333333333333 [-]
	 SCS Opposite-Spin Scale   =       1.2000000000000000 [-]
	 SCS Same-Spin Energy      =      -0.1580846971414739 [Eh]
	 SCS Opposite-Spin Energy  =      -1.7390435641086692 [Eh]
	 SCS Correlation Energy    =      -1.8971282612501432 [Eh]
	 SCS Total Energy          =    -843.4229781008725695 [Eh]
	-----------------------------------------------------------

  Dipole Moment: [D]
     X:    -2.1803      Y:    -2.9782      Z:     1.3985     Total:     3.9470

*** Psi4 exiting successfully. Buy a developer a beer!
