                               Psi4 1.4a3.dev225

  ==> Input File <==

--------------------------------------------------------------------------
#psi4
#
memory 32 gb

molecule  {
0 1
 Cl        0.2076870     2.2487580     0.1866360
  O        2.2653220     0.2846580    -0.8778020
  C        0.1642190    -0.4887810    -0.0665560
  C       -0.5729690     0.7033250     0.0302020
  C       -0.5420740    -1.7002010    -0.1332520
  C        1.6632570    -0.5094160    -0.1597980
  C       -1.9684630     0.6780340     0.0679080
  C       -1.9349490    -1.7304420    -0.1201220
  C       -2.6487990    -0.5355840    -0.0206560
  C        2.3930500    -1.5536810     0.6569590
  H        0.0096830    -2.6331730    -0.2140200
  H       -2.6125164     1.7861942     0.1764340
  H       -2.4587670    -2.6802070    -0.1882350
  H       -3.7356500    -0.5434820    -0.0013820
  H        2.2064120    -2.5587800     0.2654600
  H        2.0546340    -1.5354670     1.6969810
  H        3.4631710    -1.3484660     0.6031360
units angstrom
no_reorient  #important for SAPT in psi4, default
symmetry c1  #important for SAPT in psi4, default
}

set PROPERTIES_ORIGIN ["COM"]
properties('MP2/aug-cc-pvtz', properties = ['dipole'])
--------------------------------------------------------------------------

    Molecular point group: c1
  Charge       = 0
  Multiplicity = 1
  Basis Set: AUG-CC-PVTZ
    Blend: AUG-CC-PVTZ
  Basis Set: (AUG-CC-PVTZ AUX)
    Blend: AUG-CC-PVTZ-JKFIT

    Orbital Energies [Eh]
    ---------------------

    Doubly Occupied:

       1A   -104.840924     2A    -20.553818     3A    -11.346898
       4A    -11.322153     5A    -11.280360     6A    -11.271755
       7A    -11.268028     8A    -11.265447     9A    -11.259227
      10A    -11.243501    11A    -10.564698    12A     -8.031592
      13A     -8.029625    14A     -8.029568    15A     -1.384570
      16A     -1.199409    17A     -1.127109    18A     -1.065333
      19A     -1.010441    20A     -1.000418    21A     -0.875367
      22A     -0.832402    23A     -0.767420    24A     -0.702129
      25A     -0.669303    26A     -0.662524    27A     -0.625490
      28A     -0.615551    29A     -0.602067    30A     -0.587911
      31A     -0.564861    32A     -0.551098    33A     -0.533237
      34A     -0.514299    35A     -0.496239    36A     -0.473840
      37A     -0.457147    38A     -0.420341    39A     -0.362703
      40A     -0.345222

  @DF-RHF Final Energy:  -841.50423470329463

   => Energetics <=

    Nuclear Repulsion Energy =            562.6517466079266114
    One-Electron Energy =               -2270.8039139651132245
    Two-Electron Energy =                 866.6479326538918713
    Total Energy =                       -841.5042347032946282
  Basis Set: (AUG-CC-PVTZ AUX)
    Blend: AUG-CC-PVTZ-RI
    Molecular point group: c1

    Geometry (in Angstrom), charge = 0, multiplicity = 1:

       Center              X                  Y                   Z               Mass
    ------------   -----------------  -----------------  -----------------  -----------------
         CL           0.200843394389     2.171099867949     0.200277405556    34.968852682000
         O            2.258478394389     0.206999867949    -0.864160594444    15.994914619570
         C            0.157375394389    -0.566439132051    -0.052914594444    12.000000000000
         C           -0.579812605611     0.625666867949     0.043843405556    12.000000000000
         C           -0.548917605611    -1.777859132051    -0.119610594444    12.000000000000
         C            1.656413394389    -0.587074132051    -0.146156594444    12.000000000000
         C           -1.975306605611     0.600375867949     0.081549405556    12.000000000000
         C           -1.941792605611    -1.808100132051    -0.106480594444    12.000000000000
         C           -2.655642605611    -0.613242132051    -0.007014594444    12.000000000000
         C            2.386206394389    -1.631339132051     0.670600405556    12.000000000000
         H            0.002839394389    -2.710831132051    -0.200378594444     1.007825032230
         H           -2.619360005611     1.708536067949     0.190075405556     1.007825032230
         H           -2.465610605611    -2.757865132051    -0.174593594444     1.007825032230
         H           -3.742493605611    -0.621140132051     0.012259405556     1.007825032230
         H            2.199568394389    -2.636438132051     0.279101405556     1.007825032230
         H            2.047790394389    -1.613125132051     1.710622405556     1.007825032230
         H            3.456327394389    -1.426124132051     0.616777405556     1.007825032230

  Basis Set: AUG-CC-PVTZ
    Blend: AUG-CC-PVTZ
  Basis Set: (AUG-CC-PVTZ AUX)
    Blend: AUG-CC-PVTZ-JKFIT
	 Reference Energy          =    -841.5042347032946282 [Eh]
	 Singles Energy            =      -0.0000000000000000 [Eh]
	 Same-Spin Energy          =      -0.4748834943503668 [Eh]
	 Opposite-Spin Energy      =      -1.4513407185561205 [Eh]
	 Correlation Energy        =      -1.9262242129064873 [Eh]
	 Total Energy              =    -843.4304589162011325 [Eh]

	 ================> DF-SCS-MP2 Energies <==================
	-----------------------------------------------------------
	 SCS Same-Spin Scale       =       0.3333333333333333 [-]
	 SCS Opposite-Spin Scale   =       1.2000000000000000 [-]
	 SCS Same-Spin Energy      =      -0.1582944981167889 [Eh]
	 SCS Opposite-Spin Energy  =      -1.7416088622673445 [Eh]
	 SCS Correlation Energy    =      -1.8999033603841333 [Eh]
	 SCS Total Energy          =    -843.4041380636787153 [Eh]
	-----------------------------------------------------------

  Dipole Moment: [D]
     X:    -2.1774      Y:    -3.0178      Z:     1.4247     Total:     3.9847

*** Psi4 exiting successfully. Buy a developer a beer!
