                               Psi4 1.4a3.dev225

  ==> Input File <==

--------------------------------------------------------------------------
#psi4
#
memory 32 gb

molecule  {
0 1
 Cl        0.2076870     2.2487580     0.1866360
  O        2.2653220     0.2846580    -0.8778020
  C        0.1642190    -0.4887810    -0.0665560
  C       -0.5729690     0.7033250     0.0302020
  C       -0.5420740    -1.7002010    -0.1332520
  C        1.6632570    -0.5094160    -0.1597980
  C       -1.9684630     0.6780340     0.0679080
  C       -1.9349490    -1.7304420    -0.1201220
  C       -2.6487990    -0.5355840    -0.0206560
  C        2.3930500    -1.5536810     0.6569590
  H        0.0096830    -2.6331730    -0.2140200
  H       -2.5123770     1.6138940     0.1595600
  H       -2.4587670    -2.6802070    -0.1882350
  H       -3.7156537    -0.5433367    -0.0017366
  H        2.2064120    -2.5587800     0.2654600
  H        2.0546340    -1.5354670     1.6969810
  H        3.4631710    -1.3484660     0.6031360
units angstrom
no_reorient  #important for SAPT in psi4, default
symmetry c1  #important for SAPT in psi4, default
}

set PROPERTIES_ORIGIN ["COM"]
properties('MP2/aug-cc-pvtz', properties = ['dipole'])
--------------------------------------------------------------------------

    Molecular point group: c1
  Charge       = 0
  Multiplicity = 1
  Basis Set: AUG-CC-PVTZ
    Blend: AUG-CC-PVTZ
  Basis Set: (AUG-CC-PVTZ AUX)
    Blend: AUG-CC-PVTZ-JKFIT

    Orbital Energies [Eh]
    ---------------------

    Doubly Occupied:

       1A   -104.841148     2A    -20.553287     3A    -11.346233
       4A    -11.320294     5A    -11.270480     6A    -11.267283
       7A    -11.261774     8A    -11.259827     9A    -11.257809
      10A    -11.243040    11A    -10.564926    12A     -8.031822
      13A     -8.029863    14A     -8.029807    15A     -1.384066
      16A     -1.199427    17A     -1.126786    18A     -1.066785
      19A     -1.013120    20A     -0.999950    21A     -0.877413
      22A     -0.838000    23A     -0.772072    24A     -0.705589
      25A     -0.669147    26A     -0.665157    27A     -0.634369
      28A     -0.621689    29A     -0.603989    30A     -0.593683
      31A     -0.564742    32A     -0.552609    33A     -0.537035
      34A     -0.524341    35A     -0.497706    36A     -0.473529
      37A     -0.457880    38A     -0.419819    39A     -0.361792
      40A     -0.344299

  @DF-RHF Final Energy:  -841.52702690471415

   => Energetics <=

    Nuclear Repulsion Energy =            563.7247593097156368
    One-Electron Energy =               -2272.9383967303265308
    Two-Electron Energy =                 867.6866105158967457
    Total Energy =                       -841.5270269047141483
  Basis Set: (AUG-CC-PVTZ AUX)
    Blend: AUG-CC-PVTZ-RI
    Molecular point group: c1

    Geometry (in Angstrom), charge = 0, multiplicity = 1:

       Center              X                  Y                   Z               Mass
    ------------   -----------------  -----------------  -----------------  -----------------
         CL           0.200057282770     2.172226368790     0.200390141426    34.968852682000
         O            2.257692282770     0.208126368790    -0.864047858574    15.994914619570
         C            0.156589282770    -0.565312631210    -0.052801858574    12.000000000000
         C           -0.580598717230     0.626793368790     0.043956141426    12.000000000000
         C           -0.549703717230    -1.776732631210    -0.119497858574    12.000000000000
         C            1.655627282770    -0.585947631210    -0.146043858574    12.000000000000
         C           -1.976092717230     0.601502368790     0.081662141426    12.000000000000
         C           -1.942578717230    -1.806973631210    -0.106367858574    12.000000000000
         C           -2.656428717230    -0.612115631210    -0.006901858574    12.000000000000
         C            2.385420282770    -1.630212631210     0.670713141426    12.000000000000
         H            0.002053282770    -2.709704631210    -0.200265858574     1.007825032230
         H           -2.520006717230     1.537362368790     0.173314141426     1.007825032230
         H           -2.466396717230    -2.756738631210    -0.174480858574     1.007825032230
         H           -3.723283417230    -0.619868331210     0.012017541426     1.007825032230
         H            2.198782282770    -2.635311631210     0.279214141426     1.007825032230
         H            2.047004282770    -1.611998631210     1.710735141426     1.007825032230
         H            3.455541282770    -1.424997631210     0.616890141426     1.007825032230

  Basis Set: AUG-CC-PVTZ
    Blend: AUG-CC-PVTZ
  Basis Set: (AUG-CC-PVTZ AUX)
    Blend: AUG-CC-PVTZ-JKFIT
	 Reference Energy          =    -841.5270269047141483 [Eh]
	 Singles Energy            =      -0.0000000000000000 [Eh]
	 Same-Spin Energy          =      -0.4741921077414638 [Eh]
	 Opposite-Spin Energy      =      -1.4489866373486686 [Eh]
	 Correlation Energy        =      -1.9231787450901323 [Eh]
	 Total Energy              =    -843.4502056498042748 [Eh]

	 ================> DF-SCS-MP2 Energies <==================
	-----------------------------------------------------------
	 SCS Same-Spin Scale       =       0.3333333333333333 [-]
	 SCS Opposite-Spin Scale   =       1.2000000000000000 [-]
	 SCS Same-Spin Energy      =      -0.1580640359138213 [Eh]
	 SCS Opposite-Spin Energy  =      -1.7387839648184023 [Eh]
	 SCS Correlation Energy    =      -1.8968480007322235 [Eh]
	 SCS Total Energy          =    -843.4238749054463824 [Eh]
	-----------------------------------------------------------

  Dipole Moment: [D]
     X:    -2.2101      Y:    -2.9918      Z:     1.4274     Total:     3.9841

*** Psi4 exiting successfully. Buy a developer a beer!
