                               Psi4 1.4a3.dev225

  ==> Input File <==

--------------------------------------------------------------------------
#psi4
#
memory 32 gb

molecule  {
0 1
 Cl        0.2076870     2.2487580     0.1866360
  O        2.2653220     0.2846580    -0.8778020
  C        0.1642190    -0.4887810    -0.0665560
  C       -0.5729690     0.7033250     0.0302020
  C       -0.4414528    -1.5276174    -0.1237502
  C        1.6632570    -0.5094160    -0.1597980
  C       -1.9684630     0.6780340     0.0679080
  C       -1.9349490    -1.7304420    -0.1201220
  C       -2.6487990    -0.5355840    -0.0206560
  C        2.3930500    -1.5536810     0.6569590
  H        0.0096830    -2.6331730    -0.2140200
  H       -2.5123770     1.6138940     0.1595600
  H       -2.4587670    -2.6802070    -0.1882350
  H       -3.7356500    -0.5434820    -0.0013820
  H        2.2064120    -2.5587800     0.2654600
  H        2.0546340    -1.5354670     1.6969810
  H        3.4631710    -1.3484660     0.6031360
units angstrom
no_reorient  #important for SAPT in psi4, default
symmetry c1  #important for SAPT in psi4, default
}

set PROPERTIES_ORIGIN ["COM"]
properties('MP2/aug-cc-pvtz', properties = ['dipole'])
--------------------------------------------------------------------------

    Molecular point group: c1
  Charge       = 0
  Multiplicity = 1
  Basis Set: AUG-CC-PVTZ
    Blend: AUG-CC-PVTZ
  Basis Set: (AUG-CC-PVTZ AUX)
    Blend: AUG-CC-PVTZ-JKFIT

    Orbital Energies [Eh]
    ---------------------

    Doubly Occupied:

       1A   -104.840803     2A    -20.555089     3A    -11.347249
       4A    -11.319421     5A    -11.266818     6A    -11.262426
       7A    -11.261112     8A    -11.257712     9A    -11.247585
      10A    -11.242718    11A    -10.564570    12A     -8.031463
      13A     -8.029518    14A     -8.029461    15A     -1.386015
      16A     -1.214777    17A     -1.131002    18A     -1.085357
      19A     -1.010830    20A     -0.991440    21A     -0.863137
      22A     -0.847984    23A     -0.780956    24A     -0.699855
      25A     -0.677305    26A     -0.655957    27A     -0.637834
      28A     -0.626629    29A     -0.602891    30A     -0.583636
      31A     -0.566414    32A     -0.554398    33A     -0.537382
      34A     -0.507807    35A     -0.495631    36A     -0.473814
      37A     -0.457962    38A     -0.414932    39A     -0.391182
      40A     -0.330543

  @DF-RHF Final Energy:  -841.46654718767036

   => Energetics <=

    Nuclear Repulsion Energy =            567.1202544547833213
    One-Electron Energy =               -2279.6103709861522475
    Two-Electron Energy =                 871.0235693436986821
    Total Energy =                       -841.4665471876703577
  Basis Set: (AUG-CC-PVTZ AUX)
    Blend: AUG-CC-PVTZ-RI
    Molecular point group: c1

    Geometry (in Angstrom), charge = 0, multiplicity = 1:

       Center              X                  Y                   Z               Mass
    ------------   -----------------  -----------------  -----------------  -----------------
         CL           0.192348460126     2.158780865871     0.199647510228    34.968852682000
         O            2.249983460126     0.194680865871    -0.864790489772    15.994914619570
         C            0.148880460126    -0.578758134129    -0.053544489772    12.000000000000
         C           -0.588307539874     0.613347865871     0.043213510228    12.000000000000
         C           -0.456791339874    -1.617594534129    -0.110738689772    12.000000000000
         C            1.647918460126    -0.599393134129    -0.146786489772    12.000000000000
         C           -1.983801539874     0.588056865871     0.080919510228    12.000000000000
         C           -1.950287539874    -1.820419134129    -0.107110489772    12.000000000000
         C           -2.664137539874    -0.625561134129    -0.007644489772    12.000000000000
         C            2.377711460126    -1.643658134129     0.669970510228    12.000000000000
         H           -0.005655539874    -2.723150134129    -0.201008489772     1.007825032230
         H           -2.527715539874     1.523916865871     0.172571510228     1.007825032230
         H           -2.474105539874    -2.770184134129    -0.175223489772     1.007825032230
         H           -3.750988539874    -0.633459134129     0.011629510228     1.007825032230
         H            2.191073460126    -2.648757134129     0.278471510228     1.007825032230
         H            2.039295460126    -1.625444134129     1.709992510228     1.007825032230
         H            3.447832460126    -1.438443134129     0.616147510228     1.007825032230

  Basis Set: AUG-CC-PVTZ
    Blend: AUG-CC-PVTZ
  Basis Set: (AUG-CC-PVTZ AUX)
    Blend: AUG-CC-PVTZ-JKFIT
	 Reference Energy          =    -841.4665471876703577 [Eh]
	 Singles Energy            =      -0.0000000000000000 [Eh]
	 Same-Spin Energy          =      -0.4737252522088236 [Eh]
	 Opposite-Spin Energy      =      -1.4510105104231585 [Eh]
	 Correlation Energy        =      -1.9247357626319821 [Eh]
	 Total Energy              =    -843.3912829503022976 [Eh]

	 ================> DF-SCS-MP2 Energies <==================
	-----------------------------------------------------------
	 SCS Same-Spin Scale       =       0.3333333333333333 [-]
	 SCS Opposite-Spin Scale   =       1.2000000000000000 [-]
	 SCS Same-Spin Energy      =      -0.1579084174029412 [Eh]
	 SCS Opposite-Spin Energy  =      -1.7412126125077902 [Eh]
	 SCS Correlation Energy    =      -1.8991210299107315 [Eh]
	 SCS Total Energy          =    -843.3656682175810602 [Eh]
	-----------------------------------------------------------

  Dipole Moment: [D]
     X:    -2.1336      Y:    -2.9714      Z:     1.4240     Total:     3.9254

*** Psi4 exiting successfully. Buy a developer a beer!
