                               Psi4 1.4a3.dev225

  ==> Input File <==

--------------------------------------------------------------------------
#psi4
#
memory 32 gb

molecule  {
0 1
 Cl        0.2076870     2.2487580     0.1866360
  O        2.2653220     0.2846580    -0.8778020
  C        0.1642190    -0.4887810    -0.0665560
  C       -0.5729690     0.7033250     0.0302020
  C       -0.5420740    -1.7002010    -0.1332520
  C        1.6632570    -0.5094160    -0.1597980
  C       -1.9684630     0.6780340     0.0679080
  C       -1.9349490    -1.7304420    -0.1201220
  C       -2.6487990    -0.5355840    -0.0206560
  C        2.3930500    -1.5536810     0.6569590
  H        0.0096830    -2.6331730    -0.2140200
  H       -2.5123770     1.6138940     0.1595600
  H       -2.4587670    -2.6802070    -0.1882350
  H       -3.7356500    -0.5434820    -0.0013820
  H        2.1723130    -2.7424130     0.1939326
  H        2.0546340    -1.5354670     1.6969810
  H        3.4631710    -1.3484660     0.6031360
units angstrom
no_reorient  #important for SAPT in psi4, default
symmetry c1  #important for SAPT in psi4, default
}

set PROPERTIES_ORIGIN ["COM"]
properties('MP2/aug-cc-pvtz', properties = ['dipole'])
--------------------------------------------------------------------------

    Molecular point group: c1
  Charge       = 0
  Multiplicity = 1
  Basis Set: AUG-CC-PVTZ
    Blend: AUG-CC-PVTZ
  Basis Set: (AUG-CC-PVTZ AUX)
    Blend: AUG-CC-PVTZ-JKFIT

    Orbital Energies [Eh]
    ---------------------

    Doubly Occupied:

       1A   -104.841485     2A    -20.554951     3A    -11.348297
       4A    -11.320548     5A    -11.270607     6A    -11.266763
       7A    -11.265233     8A    -11.263883     9A    -11.259949
      10A    -11.257595    11A    -10.565265    12A     -8.032162
      13A     -8.030203    14A     -8.030147    15A     -1.385572
      16A     -1.199489    17A     -1.126727    18A     -1.064976
      19A     -1.011160    20A     -0.992895    21A     -0.874984
      22A     -0.837397    23A     -0.770298    24A     -0.702729
      25A     -0.669134    26A     -0.663633    27A     -0.632589
      28A     -0.618629    29A     -0.600725    30A     -0.586342
      31A     -0.557510    32A     -0.547035    33A     -0.536768
      34A     -0.524030    35A     -0.490552    36A     -0.473302
      37A     -0.457177    38A     -0.420898    39A     -0.361761
      40A     -0.344376

  @DF-RHF Final Energy:  -841.50654522420336

   => Energetics <=

    Nuclear Repulsion Energy =            562.8327998453052032
    One-Electron Energy =               -2271.1631401324748367
    Two-Electron Energy =                 866.8237950629663828
    Total Energy =                       -841.5065452242033643
  Basis Set: (AUG-CC-PVTZ AUX)
    Blend: AUG-CC-PVTZ-RI
    Molecular point group: c1

    Geometry (in Angstrom), charge = 0, multiplicity = 1:

       Center              X                  Y                   Z               Mass
    ------------   -----------------  -----------------  -----------------  -----------------
         CL           0.200411257017     2.173428927703     0.200855862814    34.968852682000
         O            2.258046257017     0.209328927703    -0.863582137186    15.994914619570
         C            0.156943257017    -0.564110072297    -0.052336137186    12.000000000000
         C           -0.580244742983     0.627995927703     0.044421862814    12.000000000000
         C           -0.549349742983    -1.775530072297    -0.119032137186    12.000000000000
         C            1.655981257017    -0.584745072297    -0.145578137186    12.000000000000
         C           -1.975738742983     0.602704927703     0.082127862814    12.000000000000
         C           -1.942224742983    -1.805771072297    -0.105902137186    12.000000000000
         C           -2.656074742983    -0.610913072297    -0.006436137186    12.000000000000
         C            2.385774257017    -1.629010072297     0.671178862814    12.000000000000
         H            0.002407257017    -2.708502072297    -0.199800137186     1.007825032230
         H           -2.519652742983     1.538564927703     0.173779862814     1.007825032230
         H           -2.466042742983    -2.755536072297    -0.174015137186     1.007825032230
         H           -3.742925742983    -0.618811072297     0.012837862814     1.007825032230
         H            2.165037257017    -2.817742072297     0.208152462814     1.007825032230
         H            2.047358257017    -1.610796072297     1.711200862814     1.007825032230
         H            3.455895257017    -1.423795072297     0.617355862814     1.007825032230

  Basis Set: AUG-CC-PVTZ
    Blend: AUG-CC-PVTZ
  Basis Set: (AUG-CC-PVTZ AUX)
    Blend: AUG-CC-PVTZ-JKFIT
	 Reference Energy          =    -841.5065452242033643 [Eh]
	 Singles Energy            =      -0.0000000000000000 [Eh]
	 Same-Spin Energy          =      -0.4743724521873062 [Eh]
	 Opposite-Spin Energy      =      -1.4508263151155358 [Eh]
	 Correlation Energy        =      -1.9251987673028421 [Eh]
	 Total Energy              =    -843.4317439915062096 [Eh]

	 ================> DF-SCS-MP2 Energies <==================
	-----------------------------------------------------------
	 SCS Same-Spin Scale       =       0.3333333333333333 [-]
	 SCS Opposite-Spin Scale   =       1.2000000000000000 [-]
	 SCS Same-Spin Energy      =      -0.1581241507291020 [Eh]
	 SCS Opposite-Spin Energy  =      -1.7409915781386429 [Eh]
	 SCS Correlation Energy    =      -1.8991157288677449 [Eh]
	 SCS Total Energy          =    -843.4056609530711057 [Eh]
	-----------------------------------------------------------

  Dipole Moment: [D]
     X:    -2.1900      Y:    -2.9318      Z:     1.4422     Total:     3.9334

*** Psi4 exiting successfully. Buy a developer a beer!
