                               Psi4 1.4a3.dev225

  ==> Input File <==

--------------------------------------------------------------------------
#psi4
#
memory 32 gb

molecule  {
0 1
 Cl        0.2076870     2.2487580     0.1866360
  O        2.2653220     0.2846580    -0.8778020
  C        0.1642190    -0.4887810    -0.0665560
  C       -0.5729690     0.7033250     0.0302020
  C       -0.5420740    -1.7002010    -0.1332520
  C        1.6632570    -0.5094160    -0.1597980
  C       -1.9684630     0.6780340     0.0679080
  C       -1.9349490    -1.7304420    -0.1201220
  C       -2.6487990    -0.5355840    -0.0206560
  C        2.3930500    -1.5536810     0.6569590
  H        0.0096830    -2.6331730    -0.2140200
  H       -2.5123770     1.6138940     0.1595600
  H       -2.4346673    -2.6365105    -0.1851013
  H       -3.7356500    -0.5434820    -0.0013820
  H        2.2064120    -2.5587800     0.2654600
  H        2.0546340    -1.5354670     1.6969810
  H        3.4631710    -1.3484660     0.6031360
units angstrom
no_reorient  #important for SAPT in psi4, default
symmetry c1  #important for SAPT in psi4, default
}

set PROPERTIES_ORIGIN ["COM"]
properties('MP2/aug-cc-pvtz', properties = ['dipole'])
--------------------------------------------------------------------------

    Molecular point group: c1
  Charge       = 0
  Multiplicity = 1
  Basis Set: AUG-CC-PVTZ
    Blend: AUG-CC-PVTZ
  Basis Set: (AUG-CC-PVTZ AUX)
    Blend: AUG-CC-PVTZ-JKFIT

    Orbital Energies [Eh]
    ---------------------

    Doubly Occupied:

       1A   -104.841120     2A    -20.553173     3A    -11.346107
       4A    -11.320283     5A    -11.270248     6A    -11.267022
       7A    -11.263521     8A    -11.259784     9A    -11.252207
      10A    -11.242988    11A    -10.564897    12A     -8.031793
      13A     -8.029834    14A     -8.029778    15A     -1.383963
      16A     -1.199378    17A     -1.127115    18A     -1.066352
      19A     -1.014184    20A     -1.000454    21A     -0.876075
      22A     -0.839754    23A     -0.775304    24A     -0.706047
      25A     -0.668771    26A     -0.663972    27A     -0.635917
      28A     -0.621643    29A     -0.607063    30A     -0.594783
      31A     -0.564189    32A     -0.551944    33A     -0.536085
      34A     -0.526220    35A     -0.497872    36A     -0.473429
      37A     -0.457818    38A     -0.419733    39A     -0.361615
      40A     -0.344247

  @DF-RHF Final Energy:  -841.52611972374882

   => Energetics <=

    Nuclear Repulsion Energy =            563.8901015544311122
    One-Electron Energy =               -2273.2590732946996468
    Two-Electron Energy =                 867.8428520165197142
    Total Energy =                       -841.5261197237488204
  Basis Set: (AUG-CC-PVTZ AUX)
    Blend: AUG-CC-PVTZ-RI
    Molecular point group: c1

    Geometry (in Angstrom), charge = 0, multiplicity = 1:

       Center              X                  Y                   Z               Mass
    ------------   -----------------  -----------------  -----------------  -----------------
         CL           0.200030432047     2.171941390184     0.200367315629    34.968852682000
         O            2.257665432047     0.207841390184    -0.864070684371    15.994914619570
         C            0.156562432047    -0.565597609816    -0.052824684371    12.000000000000
         C           -0.580625567953     0.626508390184     0.043933315629    12.000000000000
         C           -0.549730567953    -1.777017609816    -0.119520684371    12.000000000000
         C            1.655600432047    -0.586232609816    -0.146066684371    12.000000000000
         C           -1.976119567953     0.601217390184     0.081639315629    12.000000000000
         C           -1.942605567953    -1.807258609816    -0.106390684371    12.000000000000
         C           -2.656455567953    -0.612400609816    -0.006924684371    12.000000000000
         C            2.385393432047    -1.630497609816     0.670690315629    12.000000000000
         H            0.002026432047    -2.709989609816    -0.200288684371     1.007825032230
         H           -2.520033567953     1.537077390184     0.173291315629     1.007825032230
         H           -2.442323867953    -2.713327109816    -0.171369984371     1.007825032230
         H           -3.743306567953    -0.620298609816     0.012349315629     1.007825032230
         H            2.198755432047    -2.635596609816     0.279191315629     1.007825032230
         H            2.046977432047    -1.612283609816     1.710712315629     1.007825032230
         H            3.455514432047    -1.425282609816     0.616867315629     1.007825032230

  Basis Set: AUG-CC-PVTZ
    Blend: AUG-CC-PVTZ
  Basis Set: (AUG-CC-PVTZ AUX)
    Blend: AUG-CC-PVTZ-JKFIT
	 Reference Energy          =    -841.5261197237488204 [Eh]
	 Singles Energy            =      -0.0000000000000000 [Eh]
	 Same-Spin Energy          =      -0.4741450840615581 [Eh]
	 Opposite-Spin Energy      =      -1.4488265655133072 [Eh]
	 Correlation Energy        =      -1.9229716495748654 [Eh]
	 Total Energy              =    -843.4490913733236539 [Eh]

	 ================> DF-SCS-MP2 Energies <==================
	-----------------------------------------------------------
	 SCS Same-Spin Scale       =       0.3333333333333333 [-]
	 SCS Opposite-Spin Scale   =       1.2000000000000000 [-]
	 SCS Same-Spin Energy      =      -0.1580483613538527 [Eh]
	 SCS Opposite-Spin Energy  =      -1.7385918786159686 [Eh]
	 SCS Correlation Energy    =      -1.8966402399698212 [Eh]
	 SCS Total Energy          =    -843.4227599637185904 [Eh]
	-----------------------------------------------------------

  Dipole Moment: [D]
     X:    -2.2130      Y:    -3.0017      Z:     1.4268     Total:     3.9929

*** Psi4 exiting successfully. Buy a developer a beer!
