                               Psi4 1.4a3.dev225

  ==> Input File <==

--------------------------------------------------------------------------
#psi4
#
memory 32 gb

molecule  {
0 1
 Cl        0.2076870     2.2487580     0.1866360
  O        2.2653220     0.2846580    -0.8778020
  C        0.1642190    -0.4887810    -0.0665560
  C       -0.5729690     0.7033250     0.0302020
  C       -0.5420740    -1.7002010    -0.1332520
  C        1.6632570    -0.5094160    -0.1597980
  C       -1.9684630     0.6780340     0.0679080
  C       -1.9349490    -1.7304420    -0.1201220
  C       -2.6487990    -0.5355840    -0.0206560
  C        2.3930500    -1.5536810     0.6569590
  H        0.0096830    -2.6331730    -0.2140200
  H       -2.5123770     1.6138940     0.1595600
  H       -2.4587670    -2.6802070    -0.1882350
  H       -3.9356133    -0.5449351     0.0021641
  H        2.2064120    -2.5587800     0.2654600
  H        2.0546340    -1.5354670     1.6969810
  H        3.4631710    -1.3484660     0.6031360
units angstrom
no_reorient  #important for SAPT in psi4, default
symmetry c1  #important for SAPT in psi4, default
}

set PROPERTIES_ORIGIN ["COM"]
properties('MP2/aug-cc-pvtz', properties = ['dipole'])
--------------------------------------------------------------------------

    Molecular point group: c1
  Charge       = 0
  Multiplicity = 1
  Basis Set: AUG-CC-PVTZ
    Blend: AUG-CC-PVTZ
  Basis Set: (AUG-CC-PVTZ AUX)
    Blend: AUG-CC-PVTZ-JKFIT

    Orbital Energies [Eh]
    ---------------------

    Doubly Occupied:

       1A   -104.842223     2A    -20.553938     3A    -11.346897
       4A    -11.321814     5A    -11.284829     6A    -11.271427
       7A    -11.268869     8A    -11.262214     9A    -11.260150
      10A    -11.243593    11A    -10.565981    12A     -8.032878
      13A     -8.030912    14A     -8.030856    15A     -1.384707
      16A     -1.200409    17A     -1.127171    18A     -1.064797
      19A     -1.014207    20A     -0.999225    21A     -0.869310
      22A     -0.837760    23A     -0.771268    24A     -0.697145
      25A     -0.669723    26A     -0.649964    27A     -0.633188
      28A     -0.622214    29A     -0.603719    30A     -0.594512
      31A     -0.562369    32A     -0.549301    33A     -0.527390
      34A     -0.517219    35A     -0.498256    36A     -0.474718
      37A     -0.458608    38A     -0.420220    39A     -0.363036
      40A     -0.345570

  @DF-RHF Final Energy:  -841.50461225162928

   => Energetics <=

    Nuclear Repulsion Energy =            562.6640102588322634
    One-Electron Energy =               -2270.7920705868609730
    Two-Electron Energy =                 866.6234480763995407
    Total Energy =                       -841.5046122516292826
  Basis Set: (AUG-CC-PVTZ AUX)
    Blend: AUG-CC-PVTZ-RI
    Molecular point group: c1

    Geometry (in Angstrom), charge = 0, multiplicity = 1:

       Center              X                  Y                   Z               Mass
    ------------   -----------------  -----------------  -----------------  -----------------
         CL           0.201496595124     2.172236827969     0.200364617077    34.968852682000
         O            2.259131595124     0.208136827969    -0.864073382923    15.994914619570
         C            0.158028595124    -0.565302172031    -0.052827382923    12.000000000000
         C           -0.579159404876     0.626803827969     0.043930617077    12.000000000000
         C           -0.548264404876    -1.776722172031    -0.119523382923    12.000000000000
         C            1.657066595124    -0.585937172031    -0.146069382923    12.000000000000
         C           -1.974653404876     0.601512827969     0.081636617077    12.000000000000
         C           -1.941139404876    -1.806963172031    -0.106393382923    12.000000000000
         C           -2.654989404876    -0.612105172031    -0.006927382923    12.000000000000
         C            2.386859595124    -1.630202172031     0.670687617077    12.000000000000
         H            0.003492595124    -2.709694172031    -0.200291382923     1.007825032230
         H           -2.518567404876     1.537372827969     0.173288617077     1.007825032230
         H           -2.464957404876    -2.756728172031    -0.174506382923     1.007825032230
         H           -3.941803704876    -0.621456272031     0.015892717077     1.007825032230
         H            2.200221595124    -2.635301172031     0.279188617077     1.007825032230
         H            2.048443595124    -1.611988172031     1.710709617077     1.007825032230
         H            3.456980595124    -1.424987172031     0.616864617077     1.007825032230

  Basis Set: AUG-CC-PVTZ
    Blend: AUG-CC-PVTZ
  Basis Set: (AUG-CC-PVTZ AUX)
    Blend: AUG-CC-PVTZ-JKFIT
	 Reference Energy          =    -841.5046122516292826 [Eh]
	 Singles Energy            =      -0.0000000000000000 [Eh]
	 Same-Spin Energy          =      -0.4747203593486954 [Eh]
	 Opposite-Spin Energy      =      -1.4513373531556595 [Eh]
	 Correlation Energy        =      -1.9260577125043548 [Eh]
	 Total Energy              =    -843.4306699641335854 [Eh]

	 ================> DF-SCS-MP2 Energies <==================
	-----------------------------------------------------------
	 SCS Same-Spin Scale       =       0.3333333333333333 [-]
	 SCS Opposite-Spin Scale   =       1.2000000000000000 [-]
	 SCS Same-Spin Energy      =      -0.1582401197828985 [Eh]
	 SCS Opposite-Spin Energy  =      -1.7416048237867914 [Eh]
	 SCS Correlation Energy    =      -1.8998449435696898 [Eh]
	 SCS Total Energy          =    -843.4044571951990292 [Eh]
	-----------------------------------------------------------

  Dipole Moment: [D]
     X:    -2.1121      Y:    -2.9799      Z:     1.4278     Total:     3.9217

*** Psi4 exiting successfully. Buy a developer a beer!
