                               Psi4 1.4a3.dev225

  ==> Input File <==

--------------------------------------------------------------------------
#psi4
#
memory 32 gb

molecule  {
0 1
 Cl        0.2076870     2.2487580     0.1866360
  O        2.2653220     0.2846580    -0.8778020
  C        0.1642190    -0.4887810    -0.0665560
  C       -0.5729690     0.7033250     0.0302020
  C       -0.5420740    -1.7002010    -0.1332520
  C        1.6632570    -0.5094160    -0.1597980
  C       -1.9684630     0.6780340     0.0679080
  C       -1.9303601    -1.5851383    -0.1085534
  C       -2.6487990    -0.5355840    -0.0206560
  C        2.3930500    -1.5536810     0.6569590
  H        0.0096830    -2.6331730    -0.2140200
  H       -2.5123770     1.6138940     0.1595600
  H       -2.4587670    -2.6802070    -0.1882350
  H       -3.7356500    -0.5434820    -0.0013820
  H        2.2064120    -2.5587800     0.2654600
  H        2.0546340    -1.5354670     1.6969810
  H        3.4631710    -1.3484660     0.6031360
units angstrom
no_reorient  #important for SAPT in psi4, default
symmetry c1  #important for SAPT in psi4, default
}

set PROPERTIES_ORIGIN ["COM"]
properties('MP2/aug-cc-pvtz', properties = ['dipole'])
--------------------------------------------------------------------------

    Molecular point group: c1
  Charge       = 0
  Multiplicity = 1
  Basis Set: AUG-CC-PVTZ
    Blend: AUG-CC-PVTZ
  Basis Set: (AUG-CC-PVTZ AUX)
    Blend: AUG-CC-PVTZ-JKFIT

    Orbital Energies [Eh]
    ---------------------

    Doubly Occupied:

       1A   -104.839652     2A    -20.554281     3A    -11.346544
       4A    -11.316777     5A    -11.272043     6A    -11.268495
       7A    -11.261027     8A    -11.255467     9A    -11.247870
      10A    -11.244277    11A    -10.563427    12A     -8.030332
      13A     -8.028366    14A     -8.028316    15A     -1.384953
      16A     -1.208177    17A     -1.134619    18A     -1.075852
      19A     -1.010616    20A     -1.002165    21A     -0.885349
      22A     -0.837973    23A     -0.761188    24A     -0.707869
      25A     -0.678559    26A     -0.665971    27A     -0.636055
      28A     -0.622181    29A     -0.600026    30A     -0.578652
      31A     -0.571740    32A     -0.560917    33A     -0.544683
      34A     -0.505939    35A     -0.488706    36A     -0.481159
      37A     -0.457183    38A     -0.418881    39A     -0.368536
      40A     -0.345904

  @DF-RHF Final Energy:  -841.49872524723764

   => Energetics <=

    Nuclear Repulsion Energy =            566.2237556132765803
    One-Electron Energy =               -2277.8635052896438538
    Two-Electron Energy =                 870.1410244291296294
    Total Energy =                       -841.4987252472376440
  Basis Set: (AUG-CC-PVTZ AUX)
    Blend: AUG-CC-PVTZ-RI
    Molecular point group: c1

    Geometry (in Angstrom), charge = 0, multiplicity = 1:

       Center              X                  Y                   Z               Mass
    ------------   -----------------  -----------------  -----------------  -----------------
         CL           0.199830595595     2.160906316448     0.199486480266    34.968852682000
         O            2.257465595595     0.196806316448    -0.864951519734    15.994914619570
         C            0.156362595595    -0.576632683552    -0.053705519734    12.000000000000
         C           -0.580825404405     0.615473316448     0.043052480266    12.000000000000
         C           -0.549930404405    -1.788052683552    -0.120401519734    12.000000000000
         C            1.655400595595    -0.597267683552    -0.146947519734    12.000000000000
         C           -1.976319404405     0.590182316448     0.080758480266    12.000000000000
         C           -1.938216504405    -1.672989983552    -0.095702919734    12.000000000000
         C           -2.656655404405    -0.623435683552    -0.007805519734    12.000000000000
         C            2.385193595595    -1.641532683552     0.669809480266    12.000000000000
         H            0.001826595595    -2.721024683552    -0.201169519734     1.007825032230
         H           -2.520233404405     1.526042316448     0.172410480266     1.007825032230
         H           -2.466623404405    -2.768058683552    -0.175384519734     1.007825032230
         H           -3.743506404405    -0.631333683552     0.011468480266     1.007825032230
         H            2.198555595595    -2.646631683552     0.278310480266     1.007825032230
         H            2.046777595595    -1.623318683552     1.709831480266     1.007825032230
         H            3.455314595595    -1.436317683552     0.615986480266     1.007825032230

  Basis Set: AUG-CC-PVTZ
    Blend: AUG-CC-PVTZ
  Basis Set: (AUG-CC-PVTZ AUX)
    Blend: AUG-CC-PVTZ-JKFIT
	 Reference Energy          =    -841.4987252472376440 [Eh]
	 Singles Energy            =      -0.0000000000000000 [Eh]
	 Same-Spin Energy          =      -0.4746398317743769 [Eh]
	 Opposite-Spin Energy      =      -1.4498782821578344 [Eh]
	 Correlation Energy        =      -1.9245181139322112 [Eh]
	 Total Energy              =    -843.4232433611698525 [Eh]

	 ================> DF-SCS-MP2 Energies <==================
	-----------------------------------------------------------
	 SCS Same-Spin Scale       =       0.3333333333333333 [-]
	 SCS Opposite-Spin Scale   =       1.2000000000000000 [-]
	 SCS Same-Spin Energy      =      -0.1582132772581256 [Eh]
	 SCS Opposite-Spin Energy  =      -1.7398539385894012 [Eh]
	 SCS Correlation Energy    =      -1.8980672158475267 [Eh]
	 SCS Total Energy          =    -843.3967924630851485 [Eh]
	-----------------------------------------------------------

  Dipole Moment: [D]
     X:    -2.1213      Y:    -2.9181      Z:     1.4367     Total:     3.8832

*** Psi4 exiting successfully. Buy a developer a beer!
