                               Psi4 1.4a3.dev225

  ==> Input File <==

--------------------------------------------------------------------------
#psi4
#
memory 32 gb

molecule  {
0 1
 Cl        0.2076870     2.2487580     0.1866360
  O        2.2653220     0.2846580    -0.8778020
  C        0.1642190    -0.4887810    -0.0665560
  C       -0.5729690     0.7033250     0.0302020
  C       -0.5420740    -1.7002010    -0.1332520
  C        1.6632570    -0.5094160    -0.1597980
  C       -1.9684630     0.6780340     0.0679080
  C       -1.9349490    -1.7304420    -0.1201220
  C       -2.6487990    -0.5355840    -0.0206560
  C        2.3689379    -1.5191789     0.6299736
  H        0.0096830    -2.6331730    -0.2140200
  H       -2.5123770     1.6138940     0.1595600
  H       -2.4587670    -2.6802070    -0.1882350
  H       -3.7356500    -0.5434820    -0.0013820
  H        2.2064120    -2.5587800     0.2654600
  H        2.0546340    -1.5354670     1.6969810
  H        3.4631710    -1.3484660     0.6031360
units angstrom
no_reorient  #important for SAPT in psi4, default
symmetry c1  #important for SAPT in psi4, default
}

set PROPERTIES_ORIGIN ["COM"]
properties('MP2/aug-cc-pvtz', properties = ['dipole'])
--------------------------------------------------------------------------

    Molecular point group: c1
  Charge       = 0
  Multiplicity = 1
  Basis Set: AUG-CC-PVTZ
    Blend: AUG-CC-PVTZ
  Basis Set: (AUG-CC-PVTZ AUX)
    Blend: AUG-CC-PVTZ-JKFIT

    Orbital Energies [Eh]
    ---------------------

    Doubly Occupied:

       1A   -104.841016     2A    -20.552265     3A    -11.343786
       4A    -11.320123     5A    -11.270123     6A    -11.267070
       7A    -11.263675     8A    -11.259859     9A    -11.257778
      10A    -11.245163    11A    -10.564791    12A     -8.031687
      13A     -8.029728    14A     -8.029672    15A     -1.384733
      16A     -1.199304    17A     -1.126637    18A     -1.069306
      19A     -1.015371    20A     -1.001697    21A     -0.875641
      22A     -0.837510    23A     -0.772484    24A     -0.706636
      25A     -0.669528    26A     -0.665402    27A     -0.634954
      28A     -0.625681    29A     -0.603067    30A     -0.592920
      31A     -0.557552    32A     -0.551838    33A     -0.533124
      34A     -0.523634    35A     -0.494060    36A     -0.473313
      37A     -0.458356    38A     -0.423021    39A     -0.361603
      40A     -0.344171

  @DF-RHF Final Energy:  -841.52400235633013

   => Energetics <=

    Nuclear Repulsion Energy =            564.5725543997648401
    One-Electron Energy =               -2274.6365549500974339
    Two-Electron Energy =                 868.5399981940024645
    Total Energy =                       -841.5240023563301293
  Basis Set: (AUG-CC-PVTZ AUX)
    Blend: AUG-CC-PVTZ-RI
    Molecular point group: c1

    Geometry (in Angstrom), charge = 0, multiplicity = 1:

       Center              X                  Y                   Z               Mass
    ------------   -----------------  -----------------  -----------------  -----------------
         CL           0.202066767905     2.169539167910     0.202490326377    34.968852682000
         O            2.259701767905     0.205439167910    -0.861947673623    15.994914619570
         C            0.158598767905    -0.567999832090    -0.050701673623    12.000000000000
         C           -0.578589232095     0.624106167910     0.046056326377    12.000000000000
         C           -0.547694232095    -1.779419832090    -0.117397673623    12.000000000000
         C            1.657636767905    -0.588634832090    -0.143943673623    12.000000000000
         C           -1.974083232095     0.598815167910     0.083762326377    12.000000000000
         C           -1.940569232095    -1.809660832090    -0.104267673623    12.000000000000
         C           -2.654419232095    -0.614802832090    -0.004801673623    12.000000000000
         C            2.363317667905    -1.598397732090     0.645827926377    12.000000000000
         H            0.004062767905    -2.712391832090    -0.198165673623     1.007825032230
         H           -2.517997232095     1.534675167910     0.175414326377     1.007825032230
         H           -2.464387232095    -2.759425832090    -0.172380673623     1.007825032230
         H           -3.741270232095    -0.622700832090     0.014472326377     1.007825032230
         H            2.200791767905    -2.637998832090     0.281314326377     1.007825032230
         H            2.049013767905    -1.614685832090     1.712835326377     1.007825032230
         H            3.457550767905    -1.427684832090     0.618990326377     1.007825032230

  Basis Set: AUG-CC-PVTZ
    Blend: AUG-CC-PVTZ
  Basis Set: (AUG-CC-PVTZ AUX)
    Blend: AUG-CC-PVTZ-JKFIT
	 Reference Energy          =    -841.5240023563301293 [Eh]
	 Singles Energy            =      -0.0000000000000000 [Eh]
	 Same-Spin Energy          =      -0.4746690122498278 [Eh]
	 Opposite-Spin Energy      =      -1.4495100018365348 [Eh]
	 Correlation Energy        =      -1.9241790140863626 [Eh]
	 Total Energy              =    -843.4481813704164779 [Eh]

	 ================> DF-SCS-MP2 Energies <==================
	-----------------------------------------------------------
	 SCS Same-Spin Scale       =       0.3333333333333333 [-]
	 SCS Opposite-Spin Scale   =       1.2000000000000000 [-]
	 SCS Same-Spin Energy      =      -0.1582230040832759 [Eh]
	 SCS Opposite-Spin Energy  =      -1.7394120022038417 [Eh]
	 SCS Correlation Energy    =      -1.8976350062871177 [Eh]
	 SCS Total Energy          =    -843.4216373626172754 [Eh]
	-----------------------------------------------------------

  Dipole Moment: [D]
     X:    -2.1515      Y:    -3.0607      Z:     1.4762     Total:     4.0220

*** Psi4 exiting successfully. Buy a developer a beer!
