                               Psi4 1.4a3.dev225

  ==> Input File <==

--------------------------------------------------------------------------
#psi4
#
memory 32 gb

molecule  {
0 1
 Cl        0.2076870     2.2487580     0.1866360
  O        2.2653220     0.2846580    -0.8778020
  C        0.1642190    -0.4887810    -0.0665560
  C       -0.6178739     0.6144286     0.0212036
  C       -0.5420740    -1.7002010    -0.1332520
  C        1.6632570    -0.5094160    -0.1597980
  C       -1.9684630     0.6780340     0.0679080
  C       -1.9349490    -1.7304420    -0.1201220
  C       -2.6487990    -0.5355840    -0.0206560
  C        2.3930500    -1.5536810     0.6569590
  H        0.0096830    -2.6331730    -0.2140200
  H       -2.5123770     1.6138940     0.1595600
  H       -2.4587670    -2.6802070    -0.1882350
  H       -3.7356500    -0.5434820    -0.0013820
  H        2.2064120    -2.5587800     0.2654600
  H        2.0546340    -1.5354670     1.6969810
  H        3.4631710    -1.3484660     0.6031360
units angstrom
no_reorient  #important for SAPT in psi4, default
symmetry c1  #important for SAPT in psi4, default
}

set PROPERTIES_ORIGIN ["COM"]
properties('MP2/aug-cc-pvtz', properties = ['dipole'])
--------------------------------------------------------------------------

    Molecular point group: c1
  Charge       = 0
  Multiplicity = 1
  Basis Set: AUG-CC-PVTZ
    Blend: AUG-CC-PVTZ
  Basis Set: (AUG-CC-PVTZ AUX)
    Blend: AUG-CC-PVTZ-JKFIT

    Orbital Energies [Eh]
    ---------------------

    Doubly Occupied:

       1A   -104.828099     2A    -20.555888     3A    -11.350315
       4A    -11.318474     5A    -11.271174     6A    -11.269268
       7A    -11.267234     8A    -11.260381     9A    -11.259622
      10A    -11.245595    11A    -10.550949    12A     -8.017643
      13A     -8.015941    14A     -8.015894    15A     -1.386129
      16A     -1.206159    17A     -1.107837    18A     -1.074291
      19A     -1.016986    20A     -1.005199    21A     -0.882502
      22A     -0.844117    23A     -0.779404    24A     -0.708017
      25A     -0.675333    26A     -0.664611    27A     -0.640986
      28A     -0.623998    29A     -0.604198    30A     -0.589002
      31A     -0.566591    32A     -0.556335    33A     -0.542485
      34A     -0.508341    35A     -0.495548    36A     -0.463805
      37A     -0.449021    38A     -0.422299    39A     -0.366574
      40A     -0.355818

  @DF-RHF Final Energy:  -841.51973881214121

   => Energetics <=

    Nuclear Repulsion Energy =            563.7193395091356933
    One-Electron Energy =               -2272.9540334168982554
    Two-Electron Energy =                 867.7149550956212352
    Total Energy =                       -841.5197388121412132
  Basis Set: (AUG-CC-PVTZ AUX)
    Blend: AUG-CC-PVTZ-RI
    Molecular point group: c1

    Geometry (in Angstrom), charge = 0, multiplicity = 1:

       Center              X                  Y                   Z               Mass
    ------------   -----------------  -----------------  -----------------  -----------------
         CL           0.203686791027     2.179153477821     0.201088910701    34.968852682000
         O            2.261321791027     0.215053477821    -0.863349089299    15.994914619570
         C            0.160218791027    -0.558385522179    -0.052103089299    12.000000000000
         C           -0.621874108973     0.544824077821     0.035656510701    12.000000000000
         C           -0.546074208973    -1.769805522179    -0.118799089299    12.000000000000
         C            1.659256791027    -0.579020522179    -0.145345089299    12.000000000000
         C           -1.972463208973     0.608429477821     0.082360910701    12.000000000000
         C           -1.938949208973    -1.800046522179    -0.105669089299    12.000000000000
         C           -2.652799208973    -0.605188522179    -0.006203089299    12.000000000000
         C            2.389049791027    -1.623285522179     0.671411910701    12.000000000000
         H            0.005682791027    -2.702777522179    -0.199567089299     1.007825032230
         H           -2.516377208973     1.544289477821     0.174012910701     1.007825032230
         H           -2.462767208973    -2.749811522179    -0.173782089299     1.007825032230
         H           -3.739650208973    -0.613086522179     0.013070910701     1.007825032230
         H            2.202411791027    -2.628384522179     0.279912910701     1.007825032230
         H            2.050633791027    -1.605071522179     1.711433910701     1.007825032230
         H            3.459170791027    -1.418070522179     0.617588910701     1.007825032230

  Basis Set: AUG-CC-PVTZ
    Blend: AUG-CC-PVTZ
  Basis Set: (AUG-CC-PVTZ AUX)
    Blend: AUG-CC-PVTZ-JKFIT
	 Reference Energy          =    -841.5197388121412132 [Eh]
	 Singles Energy            =      -0.0000000000000000 [Eh]
	 Same-Spin Energy          =      -0.4737472534013056 [Eh]
	 Opposite-Spin Energy      =      -1.4487353011683402 [Eh]
	 Correlation Energy        =      -1.9224825545696458 [Eh]
	 Total Energy              =    -843.4422213667108963 [Eh]

	 ================> DF-SCS-MP2 Energies <==================
	-----------------------------------------------------------
	 SCS Same-Spin Scale       =       0.3333333333333333 [-]
	 SCS Opposite-Spin Scale   =       1.2000000000000000 [-]
	 SCS Same-Spin Energy      =      -0.1579157511337685 [Eh]
	 SCS Opposite-Spin Energy  =      -1.7384823614020082 [Eh]
	 SCS Correlation Energy    =      -1.8963981125357767 [Eh]
	 SCS Total Energy          =    -843.4161369246769482 [Eh]
	-----------------------------------------------------------

  Dipole Moment: [D]
     X:    -2.3628      Y:    -3.4738      Z:     1.3752     Total:     4.4206

*** Psi4 exiting successfully. Buy a developer a beer!
