                               Psi4 1.4a3.dev225

  ==> Input File <==

--------------------------------------------------------------------------
#psi4
#
memory 32 gb

molecule  {
0 1
 Cl        0.2076870     2.2487580     0.1866360
  O        2.2653220     0.2846580    -0.8778020
  C        0.1642190    -0.4887810    -0.0665560
  C       -0.6627788     0.5255321     0.0122052
  C       -0.5420740    -1.7002010    -0.1332520
  C        1.6632570    -0.5094160    -0.1597980
  C       -1.9684630     0.6780340     0.0679080
  C       -1.9349490    -1.7304420    -0.1201220
  C       -2.6487990    -0.5355840    -0.0206560
  C        2.3930500    -1.5536810     0.6569590
  H        0.0096830    -2.6331730    -0.2140200
  H       -2.5123770     1.6138940     0.1595600
  H       -2.4587670    -2.6802070    -0.1882350
  H       -3.7356500    -0.5434820    -0.0013820
  H        2.2064120    -2.5587800     0.2654600
  H        2.0546340    -1.5354670     1.6969810
  H        3.4631710    -1.3484660     0.6031360
units angstrom
no_reorient  #important for SAPT in psi4, default
symmetry c1  #important for SAPT in psi4, default
}

set PROPERTIES_ORIGIN ["COM"]
properties('MP2/aug-cc-pvtz', properties = ['dipole'])
--------------------------------------------------------------------------

    Molecular point group: c1
  Charge       = 0
  Multiplicity = 1
  Basis Set: AUG-CC-PVTZ
    Blend: AUG-CC-PVTZ
  Basis Set: (AUG-CC-PVTZ AUX)
    Blend: AUG-CC-PVTZ-JKFIT

    Orbital Energies [Eh]
    ---------------------

    Doubly Occupied:

       1A   -104.811334     2A    -20.558836     3A    -11.354877
       4A    -11.320177     5A    -11.275915     6A    -11.271888
       7A    -11.270154     8A    -11.263251     9A    -11.261066
      10A    -11.248448    11A    -10.533990    12A     -8.000538
      13A     -7.999031    14A     -7.998984    15A     -1.388443
      16A     -1.219783    17A     -1.091293    18A     -1.084836
      19A     -1.019803    20A     -1.007864    21A     -0.888894
      22A     -0.851337    23A     -0.787448    24A     -0.714580
      25A     -0.684149    26A     -0.666382    27A     -0.647052
      28A     -0.627033    29A     -0.606451    30A     -0.586737
      31A     -0.570350    32A     -0.563307    33A     -0.550655
      34A     -0.504005    35A     -0.474586    36A     -0.451938
      37A     -0.440129    38A     -0.420129    39A     -0.372712
      40A     -0.365374

  @DF-RHF Final Energy:  -841.49571014061769

   => Energetics <=

    Nuclear Repulsion Energy =            563.9621997855419977
    One-Electron Energy =               -2273.4083045680808937
    Two-Electron Energy =                 867.9503946419212070
    Total Energy =                       -841.4957101406176889
  Basis Set: (AUG-CC-PVTZ AUX)
    Blend: AUG-CC-PVTZ-RI
    Molecular point group: c1

    Geometry (in Angstrom), charge = 0, multiplicity = 1:

       Center              X                  Y                   Z               Mass
    ------------   -----------------  -----------------  -----------------  -----------------
         CL           0.207185452883     2.186079643869     0.201790000311    34.968852682000
         O            2.264820452883     0.221979643869    -0.862647999689    15.994914619570
         C            0.163717452883    -0.551459356131    -0.051401999689    12.000000000000
         C           -0.663280347117     0.462853743869     0.027359200311    12.000000000000
         C           -0.542575547117    -1.762879356131    -0.118097999689    12.000000000000
         C            1.662755452883    -0.572094356131    -0.144643999689    12.000000000000
         C           -1.968964547117     0.615355643869     0.083062000311    12.000000000000
         C           -1.935450547117    -1.793120356131    -0.104967999689    12.000000000000
         C           -2.649300547117    -0.598262356131    -0.005501999689    12.000000000000
         C            2.392548452883    -1.616359356131     0.672113000311    12.000000000000
         H            0.009181452883    -2.695851356131    -0.198865999689     1.007825032230
         H           -2.512878547117     1.551215643869     0.174714000311     1.007825032230
         H           -2.459268547117    -2.742885356131    -0.173080999689     1.007825032230
         H           -3.736151547117    -0.606160356131     0.013772000311     1.007825032230
         H            2.205910452883    -2.621458356131     0.280614000311     1.007825032230
         H            2.054132452883    -1.598145356131     1.712135000311     1.007825032230
         H            3.462669452883    -1.411144356131     0.618290000311     1.007825032230

  Basis Set: AUG-CC-PVTZ
    Blend: AUG-CC-PVTZ
  Basis Set: (AUG-CC-PVTZ AUX)
    Blend: AUG-CC-PVTZ-JKFIT
	 Reference Energy          =    -841.4957101406176889 [Eh]
	 Singles Energy            =      -0.0000000000000000 [Eh]
	 Same-Spin Energy          =      -0.4741242849098142 [Eh]
	 Opposite-Spin Energy      =      -1.4494349778951017 [Eh]
	 Correlation Energy        =      -1.9235592628049158 [Eh]
	 Total Energy              =    -843.4192694034226179 [Eh]

	 ================> DF-SCS-MP2 Energies <==================
	-----------------------------------------------------------
	 SCS Same-Spin Scale       =       0.3333333333333333 [-]
	 SCS Opposite-Spin Scale   =       1.2000000000000000 [-]
	 SCS Same-Spin Energy      =      -0.1580414283032714 [Eh]
	 SCS Opposite-Spin Energy  =      -1.7393219734741219 [Eh]
	 SCS Correlation Energy    =      -1.8973634017773933 [Eh]
	 SCS Total Energy          =    -843.3930735423950864 [Eh]
	-----------------------------------------------------------

  Dipole Moment: [D]
     X:    -2.5355      Y:    -4.0116      Z:     1.3169     Total:     4.9250

*** Psi4 exiting successfully. Buy a developer a beer!
