                               Psi4 1.4a3.dev225

  ==> Input File <==

--------------------------------------------------------------------------
#psi4
#
memory 32 gb

molecule  {
0 1
 Cl        0.2076870     2.2487580     0.1866360
  O        2.2653220     0.2846580    -0.8778020
  C        0.1642190    -0.4887810    -0.0665560
  C       -0.5729690     0.7033250     0.0302020
  C       -0.5420740    -1.7002010    -0.1332520
  C        1.6632570    -0.5094160    -0.1597980
  C       -1.9684630     0.6780340     0.0679080
  C       -1.9349490    -1.7304420    -0.1201220
  C       -2.6487990    -0.5355840    -0.0206560
  C        2.3930500    -1.5536810     0.6569590
  H        0.0096830    -2.6331730    -0.2140200
  H       -2.5123770     1.6138940     0.1595600
  H       -2.4587670    -2.6802070    -0.1882350
  H       -3.7356500    -0.5434820    -0.0013820
  H        2.2136759    -2.5533920     0.2486306
  H        2.0546340    -1.5354670     1.6969810
  H        3.4631710    -1.3484660     0.6031360
units angstrom
no_reorient  #important for SAPT in psi4, default
symmetry c1  #important for SAPT in psi4, default
}

set PROPERTIES_ORIGIN ["COM"]
properties('MP2/aug-cc-pvtz', properties = ['dipole'])
--------------------------------------------------------------------------

    Molecular point group: c1
  Charge       = 0
  Multiplicity = 1
  Basis Set: AUG-CC-PVTZ
    Blend: AUG-CC-PVTZ
  Basis Set: (AUG-CC-PVTZ AUX)
    Blend: AUG-CC-PVTZ-JKFIT

    Orbital Energies [Eh]
    ---------------------

    Doubly Occupied:

       1A   -104.841216     2A    -20.553206     3A    -11.346122
       4A    -11.320397     5A    -11.270508     6A    -11.267376
       7A    -11.263918     8A    -11.260071     9A    -11.257984
      10A    -11.243069    11A    -10.564993    12A     -8.031889
      13A     -8.029929    14A     -8.029874    15A     -1.384015
      16A     -1.199453    17A     -1.126740    18A     -1.066446
      19A     -1.013185    20A     -0.999834    21A     -0.876253
      22A     -0.837912    23A     -0.771779    24A     -0.704037
      25A     -0.668958    26A     -0.663586    27A     -0.634085
      28A     -0.621890    29A     -0.604553    30A     -0.594286
      31A     -0.563553    32A     -0.552234    33A     -0.536125
      34A     -0.524435    35A     -0.497907    36A     -0.473591
      37A     -0.457855    38A     -0.419669    39A     -0.361849
      40A     -0.344374

  @DF-RHF Final Energy:  -841.52688022300549

   => Energetics <=

    Nuclear Repulsion Energy =            563.6239411112081825
    One-Electron Energy =               -2272.7433325594279268
    Two-Electron Energy =                 867.5925112252141389
    Total Energy =                       -841.5268802230054916
  Basis Set: (AUG-CC-PVTZ AUX)
    Blend: AUG-CC-PVTZ-RI
    Molecular point group: c1

    Geometry (in Angstrom), charge = 0, multiplicity = 1:

       Center              X                  Y                   Z               Mass
    ------------   -----------------  -----------------  -----------------  -----------------
         CL           0.200140597618     2.172192063022     0.200497944783    34.968852682000
         O            2.257775597618     0.208092063022    -0.863940055217    15.994914619570
         C            0.156672597618    -0.565346936978    -0.052694055217    12.000000000000
         C           -0.580515402382     0.626759063022     0.044063944783    12.000000000000
         C           -0.549620402382    -1.776766936978    -0.119390055217    12.000000000000
         C            1.655710597618    -0.585981936978    -0.145936055217    12.000000000000
         C           -1.976009402382     0.601468063022     0.081769944783    12.000000000000
         C           -1.942495402382    -1.807007936978    -0.106260055217    12.000000000000
         C           -2.656345402382    -0.612149936978    -0.006794055217    12.000000000000
         C            2.385503597618    -1.630246936978     0.670820944783    12.000000000000
         H            0.002136597618    -2.709738936978    -0.200158055217     1.007825032230
         H           -2.519923402382     1.537328063022     0.173421944783     1.007825032230
         H           -2.466313402382    -2.756772936978    -0.174373055217     1.007825032230
         H           -3.743196402382    -0.620047936978     0.012479944783     1.007825032230
         H            2.206129497618    -2.629957936978     0.262492544783     1.007825032230
         H            2.047087597618    -1.612032936978     1.710842944783     1.007825032230
         H            3.455624597618    -1.425031936978     0.616997944783     1.007825032230

  Basis Set: AUG-CC-PVTZ
    Blend: AUG-CC-PVTZ
  Basis Set: (AUG-CC-PVTZ AUX)
    Blend: AUG-CC-PVTZ-JKFIT
	 Reference Energy          =    -841.5268802230054916 [Eh]
	 Singles Energy            =      -0.0000000000000000 [Eh]
	 Same-Spin Energy          =      -0.4742232647055894 [Eh]
	 Opposite-Spin Energy      =      -1.4491294805390100 [Eh]
	 Correlation Energy        =      -1.9233527452445993 [Eh]
	 Total Energy              =    -843.4502329682501340 [Eh]

	 ================> DF-SCS-MP2 Energies <==================
	-----------------------------------------------------------
	 SCS Same-Spin Scale       =       0.3333333333333333 [-]
	 SCS Opposite-Spin Scale   =       1.2000000000000000 [-]
	 SCS Same-Spin Energy      =      -0.1580744215685298 [Eh]
	 SCS Opposite-Spin Energy  =      -1.7389553766468120 [Eh]
	 SCS Correlation Energy    =      -1.8970297982153417 [Eh]
	 SCS Total Energy          =    -843.4239100212208768 [Eh]
	-----------------------------------------------------------

  Dipole Moment: [D]
     X:    -2.2006      Y:    -2.9889      Z:     1.4221     Total:     3.9747

*** Psi4 exiting successfully. Buy a developer a beer!
