                               Psi4 1.4a3.dev225

  ==> Input File <==

--------------------------------------------------------------------------
#psi4
#
memory 32 gb

molecule  {
0 1
 Cl        0.2076870     2.2487580     0.1866360
  O        2.2653220     0.2846580    -0.8778020
  C        0.1642190    -0.4887810    -0.0665560
  C       -0.5729690     0.7033250     0.0302020
  C       -0.5420740    -1.7002010    -0.1332520
  C        1.6632570    -0.5094160    -0.1597980
  C       -1.9684630     0.6780340     0.0679080
  C       -1.9349490    -1.7304420    -0.1201220
  C       -2.6487990    -0.5355840    -0.0206560
  C        2.3930500    -1.5536810     0.6569590
  H        0.0096830    -2.6331730    -0.2140200
  H       -2.5123770     1.6138940     0.1595600
  H       -2.4587670    -2.6802070    -0.1882350
  H       -3.7356500    -0.5434820    -0.0013820
  H        2.2209944    -2.5476994     0.2319256
  H        2.0546340    -1.5354670     1.6969810
  H        3.4631710    -1.3484660     0.6031360
units angstrom
no_reorient  #important for SAPT in psi4, default
symmetry c1  #important for SAPT in psi4, default
}

set PROPERTIES_ORIGIN ["COM"]
properties('MP2/aug-cc-pvtz', properties = ['dipole'])
--------------------------------------------------------------------------

    Molecular point group: c1
  Charge       = 0
  Multiplicity = 1
  Basis Set: AUG-CC-PVTZ
    Blend: AUG-CC-PVTZ
  Basis Set: (AUG-CC-PVTZ AUX)
    Blend: AUG-CC-PVTZ-JKFIT

    Orbital Energies [Eh]
    ---------------------

    Doubly Occupied:

       1A   -104.841208     2A    -20.553082     3A    -11.345976
       4A    -11.320390     5A    -11.270485     6A    -11.267353
       7A    -11.263907     8A    -11.260059     9A    -11.257965
      10A    -11.243068    11A    -10.564984    12A     -8.031881
      13A     -8.029921    14A     -8.029865    15A     -1.383925
      16A     -1.199440    17A     -1.126728    18A     -1.066444
      19A     -1.013200    20A     -0.999867    21A     -0.876220
      22A     -0.837892    23A     -0.771671    24A     -0.703802
      25A     -0.668944    26A     -0.663354    27A     -0.633833
      28A     -0.622089    29A     -0.605209    30A     -0.594756
      31A     -0.562777    32A     -0.552281    33A     -0.536049
      34A     -0.524480    35A     -0.498040    36A     -0.473573
      37A     -0.457774    38A     -0.419491    39A     -0.361834
      40A     -0.344362

  @DF-RHF Final Energy:  -841.52680075267540

   => Energetics <=

    Nuclear Repulsion Energy =            563.6307404729019481
    One-Electron Energy =               -2272.7587268257993856
    Two-Electron Energy =                 867.6011856002221521
    Total Energy =                       -841.5268007526753991
  Basis Set: (AUG-CC-PVTZ AUX)
    Blend: AUG-CC-PVTZ-RI
    Molecular point group: c1

    Geometry (in Angstrom), charge = 0, multiplicity = 1:

       Center              X                  Y                   Z               Mass
    ------------   -----------------  -----------------  -----------------  -----------------
         CL           0.200092708790     2.172154813321     0.200607254460    34.968852682000
         O            2.257727708790     0.208054813321    -0.863830745540    15.994914619570
         C            0.156624708790    -0.565384186679    -0.052584745540    12.000000000000
         C           -0.580563291210     0.626721813321     0.044173254460    12.000000000000
         C           -0.549668291210    -1.776804186679    -0.119280745540    12.000000000000
         C            1.655662708790    -0.586019186679    -0.145826745540    12.000000000000
         C           -1.976057291210     0.601430813321     0.081879254460    12.000000000000
         C           -1.942543291210    -1.807045186679    -0.106150745540    12.000000000000
         C           -2.656393291210    -0.612187186679    -0.006684745540    12.000000000000
         C            2.385455708790    -1.630284186679     0.670930254460    12.000000000000
         H            0.002088708790    -2.709776186679    -0.200048745540     1.007825032230
         H           -2.519971291210     1.537290813321     0.173531254460     1.007825032230
         H           -2.466361291210    -2.756810186679    -0.174263745540     1.007825032230
         H           -3.743244291210    -0.620085186679     0.012589254460     1.007825032230
         H            2.213400108790    -2.624302586679     0.245896854460     1.007825032230
         H            2.047039708790    -1.612070186679     1.710952254460     1.007825032230
         H            3.455576708790    -1.425069186679     0.617107254460     1.007825032230

  Basis Set: AUG-CC-PVTZ
    Blend: AUG-CC-PVTZ
  Basis Set: (AUG-CC-PVTZ AUX)
    Blend: AUG-CC-PVTZ-JKFIT
	 Reference Energy          =    -841.5268007526753991 [Eh]
	 Singles Energy            =      -0.0000000000000000 [Eh]
	 Same-Spin Energy          =      -0.4742224651132385 [Eh]
	 Opposite-Spin Energy      =      -1.4491370999901907 [Eh]
	 Correlation Energy        =      -1.9233595651034292 [Eh]
	 Total Energy              =    -843.4501603177787956 [Eh]

	 ================> DF-SCS-MP2 Energies <==================
	-----------------------------------------------------------
	 SCS Same-Spin Scale       =       0.3333333333333333 [-]
	 SCS Opposite-Spin Scale   =       1.2000000000000000 [-]
	 SCS Same-Spin Energy      =      -0.1580741550377462 [Eh]
	 SCS Opposite-Spin Energy  =      -1.7389645199882289 [Eh]
	 SCS Correlation Energy    =      -1.8970386750259751 [Eh]
	 SCS Total Energy          =    -843.4238394277014095 [Eh]
	-----------------------------------------------------------

  Dipole Moment: [D]
     X:    -2.1966      Y:    -2.9867      Z:     1.4169     Total:     3.9690

*** Psi4 exiting successfully. Buy a developer a beer!
