                               Psi4 1.4a3.dev225

  ==> Input File <==

--------------------------------------------------------------------------
#psi4
#
memory 32 gb

molecule  {
0 1
 Cl        0.2076870     2.2487580     0.1866360
  O        2.2653220     0.2846580    -0.8778020
  C        0.1642190    -0.4887810    -0.0665560
  C       -0.5729690     0.7033250     0.0302020
  C       -0.5420740    -1.7002010    -0.1332520
  C        1.6831224    -0.4720985    -0.1281278
  C       -1.9684630     0.6780340     0.0679080
  C       -1.9349490    -1.7304420    -0.1201220
  C       -2.6487990    -0.5355840    -0.0206560
  C        2.3930500    -1.5536810     0.6569590
  H        0.0096830    -2.6331730    -0.2140200
  H       -2.5123770     1.6138940     0.1595600
  H       -2.4587670    -2.6802070    -0.1882350
  H       -3.7356500    -0.5434820    -0.0013820
  H        2.2064120    -2.5587800     0.2654600
  H        2.0546340    -1.5354670     1.6969810
  H        3.4631710    -1.3484660     0.6031360
units angstrom
no_reorient  #important for SAPT in psi4, default
symmetry c1  #important for SAPT in psi4, default
}

set PROPERTIES_ORIGIN ["COM"]
properties('MP2/aug-cc-pvtz', properties = ['dipole'])
--------------------------------------------------------------------------

    Molecular point group: c1
  Charge       = 0
  Multiplicity = 1
  Basis Set: AUG-CC-PVTZ
    Blend: AUG-CC-PVTZ
  Basis Set: (AUG-CC-PVTZ AUX)
    Blend: AUG-CC-PVTZ-JKFIT

    Orbital Energies [Eh]
    ---------------------

    Doubly Occupied:

       1A   -104.841036     2A    -20.555631     3A    -11.346535
       4A    -11.318481     5A    -11.270319     6A    -11.266492
       7A    -11.262545     8A    -11.259062     9A    -11.257392
      10A    -11.242900    11A    -10.564852    12A     -8.031748
      13A     -8.029794    14A     -8.029742    15A     -1.394821
      16A     -1.198407    17A     -1.126061    18A     -1.063697
      19A     -1.012799    20A     -0.999453    21A     -0.874001
      22A     -0.835655    23A     -0.770852    24A     -0.704946
      25A     -0.668259    26A     -0.664178    27A     -0.635212
      28A     -0.625007    29A     -0.603719    30A     -0.593775
      31A     -0.563749    32A     -0.552184    33A     -0.536249
      34A     -0.524224    35A     -0.502343    36A     -0.473448
      37A     -0.458093    38A     -0.418806    39A     -0.360816
      40A     -0.343584

  @DF-RHF Final Energy:  -841.52692984870941

   => Energetics <=

    Nuclear Repulsion Energy =            563.6667742392452283
    One-Electron Energy =               -2272.8256779743510378
    Two-Electron Energy =                 867.6319738863965085
    Total Energy =                       -841.5269298487094147
  Basis Set: (AUG-CC-PVTZ AUX)
    Blend: AUG-CC-PVTZ-RI
    Molecular point group: c1

    Geometry (in Angstrom), charge = 0, multiplicity = 1:

       Center              X                  Y                   Z               Mass
    ------------   -----------------  -----------------  -----------------  -----------------
         CL           0.198640362283     2.169319812503     0.197920310401    34.968852682000
         O            2.256275362283     0.205219812503    -0.866517689599    15.994914619570
         C            0.155172362283    -0.568219187497    -0.055271689599    12.000000000000
         C           -0.582015637717     0.623886812503     0.041486310401    12.000000000000
         C           -0.551120637717    -1.779639187497    -0.121967689599    12.000000000000
         C            1.674075762283    -0.551536687497    -0.116843489599    12.000000000000
         C           -1.977509637717     0.598595812503     0.079192310401    12.000000000000
         C           -1.943995637717    -1.809880187497    -0.108837689599    12.000000000000
         C           -2.657845637717    -0.615022187497    -0.009371689599    12.000000000000
         C            2.384003362283    -1.633119187497     0.668243310401    12.000000000000
         H            0.000636362283    -2.712611187497    -0.202735689599     1.007825032230
         H           -2.521423637717     1.534455812503     0.170844310401     1.007825032230
         H           -2.467813637717    -2.759645187497    -0.176950689599     1.007825032230
         H           -3.744696637717    -0.622920187497     0.009902310401     1.007825032230
         H            2.197365362283    -2.638218187497     0.276744310401     1.007825032230
         H            2.045587362283    -1.614905187497     1.708265310401     1.007825032230
         H            3.454124362283    -1.427904187497     0.614420310401     1.007825032230

  Basis Set: AUG-CC-PVTZ
    Blend: AUG-CC-PVTZ
  Basis Set: (AUG-CC-PVTZ AUX)
    Blend: AUG-CC-PVTZ-JKFIT
	 Reference Energy          =    -841.5269298487094147 [Eh]
	 Singles Energy            =      -0.0000000000000000 [Eh]
	 Same-Spin Energy          =      -0.4738184858480801 [Eh]
	 Opposite-Spin Energy      =      -1.4483097700633736 [Eh]
	 Correlation Energy        =      -1.9221282559114536 [Eh]
	 Total Energy              =    -843.4490581046209172 [Eh]

	 ================> DF-SCS-MP2 Energies <==================
	-----------------------------------------------------------
	 SCS Same-Spin Scale       =       0.3333333333333333 [-]
	 SCS Opposite-Spin Scale   =       1.2000000000000000 [-]
	 SCS Same-Spin Energy      =      -0.1579394952826934 [Eh]
	 SCS Opposite-Spin Energy  =      -1.7379717240760482 [Eh]
	 SCS Correlation Energy    =      -1.8959112193587415 [Eh]
	 SCS Total Energy          =    -843.4228410680681236 [Eh]
	-----------------------------------------------------------

  Dipole Moment: [D]
     X:    -2.0758      Y:    -2.9611      Z:     1.4187     Total:     3.8845

*** Psi4 exiting successfully. Buy a developer a beer!
