                               Psi4 1.4a3.dev225

  ==> Input File <==

--------------------------------------------------------------------------
#psi4
#
memory 32 gb

molecule  {
0 1
 Cl        0.2076870     2.2487580     0.1866360
  O        2.2653220     0.2846580    -0.8778020
  C        0.1642190    -0.4887810    -0.0665560
  C       -0.5819500     0.6855457     0.0284023
  C       -0.5420740    -1.7002010    -0.1332520
  C        1.6632570    -0.5094160    -0.1597980
  C       -1.9684630     0.6780340     0.0679080
  C       -1.9349490    -1.7304420    -0.1201220
  C       -2.6487990    -0.5355840    -0.0206560
  C        2.3930500    -1.5536810     0.6569590
  H        0.0096830    -2.6331730    -0.2140200
  H       -2.5123770     1.6138940     0.1595600
  H       -2.4587670    -2.6802070    -0.1882350
  H       -3.7356500    -0.5434820    -0.0013820
  H        2.2064120    -2.5587800     0.2654600
  H        2.0546340    -1.5354670     1.6969810
  H        3.4631710    -1.3484660     0.6031360
units angstrom
no_reorient  #important for SAPT in psi4, default
symmetry c1  #important for SAPT in psi4, default
}

set PROPERTIES_ORIGIN ["COM"]
properties('MP2/aug-cc-pvtz', properties = ['dipole'])
--------------------------------------------------------------------------

    Molecular point group: c1
  Charge       = 0
  Multiplicity = 1
  Basis Set: AUG-CC-PVTZ
    Blend: AUG-CC-PVTZ
  Basis Set: (AUG-CC-PVTZ AUX)
    Blend: AUG-CC-PVTZ-JKFIT

    Orbital Energies [Eh]
    ---------------------

    Doubly Occupied:

       1A   -104.838831     2A    -20.553816     3A    -11.347045
       4A    -11.319764     5A    -11.270293     6A    -11.267959
       7A    -11.264501     8A    -11.259887     9A    -11.258466
      10A    -11.243557    11A    -10.562356    12A     -8.029206
      13A     -8.027306    14A     -8.027253    15A     -1.384493
      16A     -1.199978    17A     -1.123047    18A     -1.067849
      19A     -1.014046    20A     -1.001005    21A     -0.877524
      22A     -0.839105    23A     -0.773353    24A     -0.704839
      25A     -0.669923    26A     -0.663908    27A     -0.635632
      28A     -0.622108    29A     -0.603611    30A     -0.592893
      31A     -0.564712    32A     -0.552665    33A     -0.537116
      34A     -0.521559    35A     -0.497830    36A     -0.471923
      37A     -0.456268    38A     -0.420545    39A     -0.362714
      40A     -0.346810

  @DF-RHF Final Energy:  -841.52699121168382

   => Energetics <=

    Nuclear Repulsion Energy =            563.6239490176189975
    One-Electron Energy =               -2272.7504870582333751
    Two-Electron Energy =                 867.5995468289305563
    Total Energy =                       -841.5269912116838213
  Basis Set: (AUG-CC-PVTZ AUX)
    Blend: AUG-CC-PVTZ-RI
    Molecular point group: c1

    Geometry (in Angstrom), charge = 0, multiplicity = 1:

       Center              X                  Y                   Z               Mass
    ------------   -----------------  -----------------  -----------------  -----------------
         CL           0.200887863099     2.173612552774     0.200528040571    34.968852682000
         O            2.258522863099     0.209512552774    -0.863909959429    15.994914619570
         C            0.157419863099    -0.563926447226    -0.052663959429    12.000000000000
         C           -0.588749136901     0.610400252774     0.042294340571    12.000000000000
         C           -0.548873136901    -1.775346447226    -0.119359959429    12.000000000000
         C            1.656457863099    -0.584561447226    -0.145905959429    12.000000000000
         C           -1.975262136901     0.602888552774     0.081800040571    12.000000000000
         C           -1.941748136901    -1.805587447226    -0.106229959429    12.000000000000
         C           -2.655598136901    -0.610729447226    -0.006763959429    12.000000000000
         C            2.386250863099    -1.628826447226     0.670851040571    12.000000000000
         H            0.002883863099    -2.708318447226    -0.200127959429     1.007825032230
         H           -2.519176136901     1.538748552774     0.173452040571     1.007825032230
         H           -2.465566136901    -2.755352447226    -0.174342959429     1.007825032230
         H           -3.742449136901    -0.618627447226     0.012510040571     1.007825032230
         H            2.199612863099    -2.633925447226     0.279352040571     1.007825032230
         H            2.047834863099    -1.610612447226     1.710873040571     1.007825032230
         H            3.456371863099    -1.423611447226     0.617028040571     1.007825032230

  Basis Set: AUG-CC-PVTZ
    Blend: AUG-CC-PVTZ
  Basis Set: (AUG-CC-PVTZ AUX)
    Blend: AUG-CC-PVTZ-JKFIT
	 Reference Energy          =    -841.5269912116838213 [Eh]
	 Singles Energy            =      -0.0000000000000000 [Eh]
	 Same-Spin Energy          =      -0.4740540551964997 [Eh]
	 Opposite-Spin Energy      =      -1.4489389407347040 [Eh]
	 Correlation Energy        =      -1.9229929959312035 [Eh]
	 Total Energy              =    -843.4499842076149889 [Eh]

	 ================> DF-SCS-MP2 Energies <==================
	-----------------------------------------------------------
	 SCS Same-Spin Scale       =       0.3333333333333333 [-]
	 SCS Opposite-Spin Scale   =       1.2000000000000000 [-]
	 SCS Same-Spin Energy      =      -0.1580180183988332 [Eh]
	 SCS Opposite-Spin Energy  =      -1.7387267288816448 [Eh]
	 SCS Correlation Energy    =      -1.8967447472804779 [Eh]
	 SCS Total Energy          =    -843.4237359589642438 [Eh]
	-----------------------------------------------------------

  Dipole Moment: [D]
     X:    -2.2358      Y:    -3.0851      Z:     1.4173     Total:     4.0651

*** Psi4 exiting successfully. Buy a developer a beer!
