                               Psi4 1.4a3.dev225

  ==> Input File <==

--------------------------------------------------------------------------
#psi4
#
memory 32 gb

molecule  {
0 1
 Cl        0.2076870     2.2487580     0.1866360
  O        2.2653220     0.2846580    -0.8778020
  C        0.1642190    -0.4887810    -0.0665560
  C       -0.5729690     0.7033250     0.0302020
  C       -0.5420740    -1.7002010    -0.1332520
  C        1.6632570    -0.5094160    -0.1597980
  C       -1.9684630     0.6780340     0.0679080
  C       -1.9349490    -1.7304420    -0.1201220
  C       -2.6487990    -0.5355840    -0.0206560
  C        2.3930500    -1.5536810     0.6569590
  H        0.0096830    -2.6331730    -0.2140200
  H       -2.5123770     1.6138940     0.1595600
  H       -2.4587670    -2.6802070    -0.1882350
  H       -3.7356500    -0.5434820    -0.0013820
  H        2.1877529    -2.5564508     0.2688417
  H        2.0546340    -1.5354670     1.6969810
  H        3.4631710    -1.3484660     0.6031360
units angstrom
no_reorient  #important for SAPT in psi4, default
symmetry c1  #important for SAPT in psi4, default
}

set PROPERTIES_ORIGIN ["COM"]
properties('MP2/aug-cc-pvtz', properties = ['dipole'])
--------------------------------------------------------------------------

    Molecular point group: c1
  Charge       = 0
  Multiplicity = 1
  Basis Set: AUG-CC-PVTZ
    Blend: AUG-CC-PVTZ
  Basis Set: (AUG-CC-PVTZ AUX)
    Blend: AUG-CC-PVTZ-JKFIT

    Orbital Energies [Eh]
    ---------------------

    Doubly Occupied:

       1A   -104.841232     2A    -20.553207     3A    -11.346157
       4A    -11.320425     5A    -11.270575     6A    -11.267451
       7A    -11.263951     8A    -11.260121     9A    -11.258047
      10A    -11.243176    11A    -10.565008    12A     -8.031904
      13A     -8.029944    14A     -8.029889    15A     -1.384028
      16A     -1.199495    17A     -1.126780    18A     -1.066561
      19A     -1.013236    20A     -0.999878    21A     -0.876269
      22A     -0.837945    23A     -0.771773    24A     -0.704324
      25A     -0.669015    26A     -0.663919    27A     -0.634623
      28A     -0.621014    29A     -0.603936    30A     -0.593720
      31A     -0.565430    32A     -0.552070    33A     -0.536285
      34A     -0.524410    35A     -0.497567    36A     -0.473629
      37A     -0.457864    38A     -0.419726    39A     -0.361905
      40A     -0.344411

  @DF-RHF Final Energy:  -841.52687496096758

   => Energetics <=

    Nuclear Repulsion Energy =            563.6483238731993879
    One-Electron Energy =               -2272.7885986455353304
    Two-Electron Energy =                 867.6133998113683674
    Total Energy =                       -841.5268749609675751
  Basis Set: (AUG-CC-PVTZ AUX)
    Blend: AUG-CC-PVTZ-RI
    Molecular point group: c1

    Geometry (in Angstrom), charge = 0, multiplicity = 1:

       Center              X                  Y                   Z               Mass
    ------------   -----------------  -----------------  -----------------  -----------------
         CL           0.200310225560     2.172212078373     0.200365692833    34.968852682000
         O            2.257945225560     0.208112078373    -0.864072307167    15.994914619570
         C            0.156842225560    -0.565326921627    -0.052826307167    12.000000000000
         C           -0.580345774440     0.626779078373     0.043931692833    12.000000000000
         C           -0.549450774440    -1.776746921627    -0.119522307167    12.000000000000
         C            1.655880225560    -0.585961921627    -0.146068307167    12.000000000000
         C           -1.975839774440     0.601488078373     0.081637692833    12.000000000000
         C           -1.942325774440    -1.806987921627    -0.106392307167    12.000000000000
         C           -2.656175774440    -0.612129921627    -0.006926307167    12.000000000000
         C            2.385673225560    -1.630226921627     0.670688692833    12.000000000000
         H            0.002306225560    -2.709718921627    -0.200290307167     1.007825032230
         H           -2.519753774440     1.537348078373     0.173289692833     1.007825032230
         H           -2.466143774440    -2.756752921627    -0.174505307167     1.007825032230
         H           -3.743026774440    -0.620027921627     0.012347692833     1.007825032230
         H            2.180376125560    -2.632996721627     0.282571392833     1.007825032230
         H            2.047257225560    -1.612012921627     1.710710692833     1.007825032230
         H            3.455794225560    -1.425011921627     0.616865692833     1.007825032230

  Basis Set: AUG-CC-PVTZ
    Blend: AUG-CC-PVTZ
  Basis Set: (AUG-CC-PVTZ AUX)
    Blend: AUG-CC-PVTZ-JKFIT
	 Reference Energy          =    -841.5268749609675751 [Eh]
	 Singles Energy            =      -0.0000000000000000 [Eh]
	 Same-Spin Energy          =      -0.4742420289971497 [Eh]
	 Opposite-Spin Energy      =      -1.4491337946565035 [Eh]
	 Correlation Energy        =      -1.9233758236536533 [Eh]
	 Total Energy              =    -843.4502507846211756 [Eh]

	 ================> DF-SCS-MP2 Energies <==================
	-----------------------------------------------------------
	 SCS Same-Spin Scale       =       0.3333333333333333 [-]
	 SCS Opposite-Spin Scale   =       1.2000000000000000 [-]
	 SCS Same-Spin Energy      =      -0.1580806763323832 [Eh]
	 SCS Opposite-Spin Energy  =      -1.7389605535878041 [Eh]
	 SCS Correlation Energy    =      -1.8970412299201873 [Eh]
	 SCS Total Energy          =    -843.4239161908877804 [Eh]
	-----------------------------------------------------------

  Dipole Moment: [D]
     X:    -2.2120      Y:    -2.9883      Z:     1.4321     Total:     3.9842

*** Psi4 exiting successfully. Buy a developer a beer!
