                               Psi4 1.4a3.dev225

  ==> Input File <==

--------------------------------------------------------------------------
#psi4
#
memory 32 gb

molecule  {
0 1
 Cl        0.2076870     2.2487580     0.1866360
  O        2.2653220     0.2846580    -0.8778020
  C        0.1642190    -0.4887810    -0.0665560
  C       -0.5729690     0.7033250     0.0302020
  C       -0.5420740    -1.7002010    -0.1332520
  C        1.6632570    -0.5094160    -0.1597980
  C       -1.9684630     0.6780340     0.0679080
  C       -1.9349490    -1.7304420    -0.1201220
  C       -2.6487990    -0.5355840    -0.0206560
  C        2.3930500    -1.5536810     0.6569590
  H        0.0096830    -2.6331730    -0.2140200
  H       -2.5123770     1.6138940     0.1595600
  H       -2.4587670    -2.6802070    -0.1882350
  H       -3.7356500    -0.5434820    -0.0013820
  H        2.1992050    -2.5638619     0.2824086
  H        2.0546340    -1.5354670     1.6969810
  H        3.4631710    -1.3484660     0.6031360
units angstrom
no_reorient  #important for SAPT in psi4, default
symmetry c1  #important for SAPT in psi4, default
}

set PROPERTIES_ORIGIN ["COM"]
properties('MP2/aug-cc-pvtz', properties = ['dipole'])
--------------------------------------------------------------------------

    Molecular point group: c1
  Charge       = 0
  Multiplicity = 1
  Basis Set: AUG-CC-PVTZ
    Blend: AUG-CC-PVTZ
  Basis Set: (AUG-CC-PVTZ AUX)
    Blend: AUG-CC-PVTZ-JKFIT

    Orbital Energies [Eh]
    ---------------------

    Doubly Occupied:

       1A   -104.841231     2A    -20.553435     3A    -11.346423
       4A    -11.320409     5A    -11.270553     6A    -11.267419
       7A    -11.263940     8A    -11.260095     9A    -11.258021
      10A    -11.243080    11A    -10.565007    12A     -8.031904
      13A     -8.029944    14A     -8.029888    15A     -1.384188
      16A     -1.199479    17A     -1.126763    18A     -1.066457
      19A     -1.013168    20A     -0.999789    21A     -0.876322
      22A     -0.837953    23A     -0.772002    24A     -0.704522
      25A     -0.668992    26A     -0.664076    27A     -0.634582
      28A     -0.621584    29A     -0.603380    30A     -0.593115
      31A     -0.565108    32A     -0.552115    33A     -0.536256
      34A     -0.524334    35A     -0.497565    36A     -0.473625
      37A     -0.458004    38A     -0.420008    39A     -0.361879
      40A     -0.344397

  @DF-RHF Final Energy:  -841.52684942802409

   => Energetics <=

    Nuclear Repulsion Energy =            563.6112527469729230
    One-Electron Energy =               -2272.7141815363538626
    Two-Electron Energy =                 867.5760793613568467
    Total Energy =                       -841.5268494280240930
  Basis Set: (AUG-CC-PVTZ AUX)
    Blend: AUG-CC-PVTZ-RI
    Molecular point group: c1

    Geometry (in Angstrom), charge = 0, multiplicity = 1:

       Center              X                  Y                   Z               Mass
    ------------   -----------------  -----------------  -----------------  -----------------
         CL           0.200235288394     2.172260573132     0.200276917409    34.968852682000
         O            2.257870288394     0.208160573132    -0.864161082591    15.994914619570
         C            0.156767288394    -0.565278426868    -0.052915082591    12.000000000000
         C           -0.580420711606     0.626827573132     0.043842917409    12.000000000000
         C           -0.549525711606    -1.776698426868    -0.119611082591    12.000000000000
         C            1.655805288394    -0.585913426868    -0.146157082591    12.000000000000
         C           -1.975914711606     0.601536573132     0.081548917409    12.000000000000
         C           -1.942400711606    -1.806939426868    -0.106481082591    12.000000000000
         C           -2.656250711606    -0.612081426868    -0.007015082591    12.000000000000
         C            2.385598288394    -1.630178426868     0.670599917409    12.000000000000
         H            0.002231288394    -2.709670426868    -0.200379082591     1.007825032230
         H           -2.519828711606     1.537396573132     0.173200917409     1.007825032230
         H           -2.466218711606    -2.756704426868    -0.174594082591     1.007825032230
         H           -3.743101711606    -0.619979426868     0.012258917409     1.007825032230
         H            2.191753288394    -2.640359326868     0.296049517409     1.007825032230
         H            2.047182288394    -1.611964426868     1.710621917409     1.007825032230
         H            3.455719288394    -1.424963426868     0.616776917409     1.007825032230

  Basis Set: AUG-CC-PVTZ
    Blend: AUG-CC-PVTZ
  Basis Set: (AUG-CC-PVTZ AUX)
    Blend: AUG-CC-PVTZ-JKFIT
	 Reference Energy          =    -841.5268494280240930 [Eh]
	 Singles Energy            =      -0.0000000000000000 [Eh]
	 Same-Spin Energy          =      -0.4742354309401778 [Eh]
	 Opposite-Spin Energy      =      -1.4491254432195158 [Eh]
	 Correlation Energy        =      -1.9233608741596937 [Eh]
	 Total Energy              =    -843.4502103021837911 [Eh]

	 ================> DF-SCS-MP2 Energies <==================
	-----------------------------------------------------------
	 SCS Same-Spin Scale       =       0.3333333333333333 [-]
	 SCS Opposite-Spin Scale   =       1.2000000000000000 [-]
	 SCS Same-Spin Energy      =      -0.1580784769800593 [Eh]
	 SCS Opposite-Spin Energy  =      -1.7389505318634189 [Eh]
	 SCS Correlation Energy    =      -1.8970290088434780 [Eh]
	 SCS Total Energy          =    -843.4238784368675397 [Eh]
	-----------------------------------------------------------

  Dipole Moment: [D]
     X:    -2.2085      Y:    -2.9932      Z:     1.4330     Total:     3.9862

*** Psi4 exiting successfully. Buy a developer a beer!
