                               Psi4 1.4a3.dev225

  ==> Input File <==

--------------------------------------------------------------------------
#psi4
#
memory 32 gb

molecule  {
0 1
 Cl        0.2076870     2.2487580     0.1866360
  O        2.2653220     0.2846580    -0.8778020
  C        0.1642190    -0.4887810    -0.0665560
  C       -0.5729690     0.7033250     0.0302020
  C       -0.5420740    -1.7002010    -0.1332520
  C        1.6632570    -0.5094160    -0.1597980
  C       -1.9684630     0.6780340     0.0679080
  C       -1.9349490    -1.7304420    -0.1201220
  C       -2.6487990    -0.5355840    -0.0206560
  C        2.3930500    -1.5536810     0.6569590
  H        0.0096830    -2.6331730    -0.2140200
  H       -2.5123770     1.6138940     0.1595600
  H       -2.4684069    -2.6976856    -0.1894885
  H       -3.7356500    -0.5434820    -0.0013820
  H        2.2064120    -2.5587800     0.2654600
  H        2.0546340    -1.5354670     1.6969810
  H        3.4631710    -1.3484660     0.6031360
units angstrom
no_reorient  #important for SAPT in psi4, default
symmetry c1  #important for SAPT in psi4, default
}

set PROPERTIES_ORIGIN ["COM"]
properties('MP2/aug-cc-pvtz', properties = ['dipole'])
--------------------------------------------------------------------------

    Molecular point group: c1
  Charge       = 0
  Multiplicity = 1
  Basis Set: AUG-CC-PVTZ
    Blend: AUG-CC-PVTZ
  Basis Set: (AUG-CC-PVTZ AUX)
    Blend: AUG-CC-PVTZ-JKFIT

    Orbital Energies [Eh]
    ---------------------

    Doubly Occupied:

       1A   -104.841274     2A    -20.553390     3A    -11.346344
       4A    -11.320463     5A    -11.270655     6A    -11.267573
       7A    -11.264132     8A    -11.260331     9A    -11.260125
      10A    -11.243111    11A    -10.565050    12A     -8.031947
      13A     -8.029987    14A     -8.029931    15A     -1.384165
      16A     -1.199521    17A     -1.126648    18A     -1.066508
      19A     -1.012869    20A     -0.999562    21A     -0.876383
      22A     -0.837345    23A     -0.770663    24A     -0.703611
      25A     -0.669069    26A     -0.663791    27A     -0.633816
      28A     -0.621765    29A     -0.602810    30A     -0.593050
      31A     -0.564393    32A     -0.552284    33A     -0.536257
      34A     -0.523541    35A     -0.497681    36A     -0.473693
      37A     -0.457985    38A     -0.419890    39A     -0.361973
      40A     -0.344457

  @DF-RHF Final Energy:  -841.52624450773783

   => Energetics <=

    Nuclear Repulsion Energy =            563.5127970457286892
    One-Electron Energy =               -2272.5219970085649948
    Two-Electron Energy =                 867.4829554550983630
    Total Energy =                       -841.5262445077378288
  Basis Set: (AUG-CC-PVTZ AUX)
    Blend: AUG-CC-PVTZ-RI
    Molecular point group: c1

    Geometry (in Angstrom), charge = 0, multiplicity = 1:

       Center              X                  Y                   Z               Mass
    ------------   -----------------  -----------------  -----------------  -----------------
         CL           0.200251208149     2.172341691317     0.200396023406    34.968852682000
         O            2.257886208149     0.208241691317    -0.864041976594    15.994914619570
         C            0.156783208149    -0.565197308683    -0.052795976594    12.000000000000
         C           -0.580404791851     0.626908691317     0.043962023406    12.000000000000
         C           -0.549509791851    -1.776617308683    -0.119491976594    12.000000000000
         C            1.655821208149    -0.585832308683    -0.146037976594    12.000000000000
         C           -1.975898791851     0.601617691317     0.081668023406    12.000000000000
         C           -1.942384791851    -1.806858308683    -0.106361976594    12.000000000000
         C           -2.656234791851    -0.612000308683    -0.006895976594    12.000000000000
         C            2.385614208149    -1.630097308683     0.670719023406    12.000000000000
         H            0.002247208149    -2.709589308683    -0.200259976594     1.007825032230
         H           -2.519812791851     1.537477691317     0.173320023406     1.007825032230
         H           -2.475842691851    -2.774101908683    -0.175728476594     1.007825032230
         H           -3.743085791851    -0.619898308683     0.012378023406     1.007825032230
         H            2.198976208149    -2.635196308683     0.279220023406     1.007825032230
         H            2.047198208149    -1.611883308683     1.710741023406     1.007825032230
         H            3.455735208149    -1.424882308683     0.616896023406     1.007825032230

  Basis Set: AUG-CC-PVTZ
    Blend: AUG-CC-PVTZ
  Basis Set: (AUG-CC-PVTZ AUX)
    Blend: AUG-CC-PVTZ-JKFIT
	 Reference Energy          =    -841.5262445077378288 [Eh]
	 Singles Energy            =      -0.0000000000000000 [Eh]
	 Same-Spin Energy          =      -0.4742663064206691 [Eh]
	 Opposite-Spin Energy      =      -1.4492791043893072 [Eh]
	 Correlation Energy        =      -1.9235454108099763 [Eh]
	 Total Energy              =    -843.4497899185478218 [Eh]

	 ================> DF-SCS-MP2 Energies <==================
	-----------------------------------------------------------
	 SCS Same-Spin Scale       =       0.3333333333333333 [-]
	 SCS Opposite-Spin Scale   =       1.2000000000000000 [-]
	 SCS Same-Spin Energy      =      -0.1580887688068897 [Eh]
	 SCS Opposite-Spin Energy  =      -1.7391349252671686 [Eh]
	 SCS Correlation Energy    =      -1.8972236940740583 [Eh]
	 SCS Total Energy          =    -843.4234682018119429 [Eh]
	-----------------------------------------------------------

  Dipole Moment: [D]
     X:    -2.2005      Y:    -2.9857      Z:     1.4277     Total:     3.9743

*** Psi4 exiting successfully. Buy a developer a beer!
