                               Psi4 1.4a3.dev225

  ==> Input File <==

--------------------------------------------------------------------------
#psi4
#
memory 32 gb

molecule  {
0 1
 Cl        0.2076870     2.2487580     0.1866360
  O        2.2653220     0.2846580    -0.8778020
  C        0.1642190    -0.4887810    -0.0665560
  C       -0.5729690     0.7033250     0.0302020
  C       -0.5420740    -1.7002010    -0.1332520
  C        1.6730607    -0.4964857    -0.1714896
  C       -1.9684630     0.6780340     0.0679080
  C       -1.9349490    -1.7304420    -0.1201220
  C       -2.6487990    -0.5355840    -0.0206560
  C        2.3930500    -1.5536810     0.6569590
  H        0.0096830    -2.6331730    -0.2140200
  H       -2.5123770     1.6138940     0.1595600
  H       -2.4587670    -2.6802070    -0.1882350
  H       -3.7356500    -0.5434820    -0.0013820
  H        2.2064120    -2.5587800     0.2654600
  H        2.0546340    -1.5354670     1.6969810
  H        3.4631710    -1.3484660     0.6031360
units angstrom
no_reorient  #important for SAPT in psi4, default
symmetry c1  #important for SAPT in psi4, default
}

set PROPERTIES_ORIGIN ["COM"]
properties('MP2/aug-cc-pvtz', properties = ['dipole'])
--------------------------------------------------------------------------

    Molecular point group: c1
  Charge       = 0
  Multiplicity = 1
  Basis Set: AUG-CC-PVTZ
    Blend: AUG-CC-PVTZ
  Basis Set: (AUG-CC-PVTZ AUX)
    Blend: AUG-CC-PVTZ-JKFIT

    Orbital Energies [Eh]
    ---------------------

    Doubly Occupied:

       1A   -104.841197     2A    -20.555014     3A    -11.345225
       4A    -11.319440     5A    -11.269788     6A    -11.266663
       7A    -11.263182     8A    -11.259530     9A    -11.257517
      10A    -11.242198    11A    -10.564993    12A     -8.031890
      13A     -8.029933    14A     -8.029881    15A     -1.397972
      16A     -1.198877    17A     -1.126349    18A     -1.064149
      19A     -1.011922    20A     -0.997883    21A     -0.874685
      22A     -0.836745    23A     -0.770952    24A     -0.704684
      25A     -0.668699    26A     -0.665024    27A     -0.634980
      28A     -0.623718    29A     -0.604170    30A     -0.594172
      31A     -0.564120    32A     -0.551952    33A     -0.536476
      34A     -0.525117    35A     -0.503405    36A     -0.473637
      37A     -0.458039    38A     -0.417877    39A     -0.361391
      40A     -0.343974

  @DF-RHF Final Energy:  -841.52864010696044

   => Energetics <=

    Nuclear Repulsion Energy =            563.6941280726713330
    One-Electron Energy =               -2272.8706916938972427
    Two-Electron Energy =                 867.6479235142653579
    Total Energy =                       -841.5286401069604381
  Basis Set: (AUG-CC-PVTZ AUX)
    Blend: AUG-CC-PVTZ-RI
    Molecular point group: c1

    Geometry (in Angstrom), charge = 0, multiplicity = 1:

       Center              X                  Y                   Z               Mass
    ------------   -----------------  -----------------  -----------------  -----------------
         CL           0.199424296464     2.171219885022     0.201298745176    34.968852682000
         O            2.257059296464     0.207119885022    -0.863139254824    15.994914619570
         C            0.155956296464    -0.566319114978    -0.051893254824    12.000000000000
         C           -0.581231703536     0.625786885022     0.044864745176    12.000000000000
         C           -0.550336703536    -1.777739114978    -0.118589254824    12.000000000000
         C            1.664797996464    -0.574023814978    -0.156826854824    12.000000000000
         C           -1.976725703536     0.600495885022     0.082570745176    12.000000000000
         C           -1.943211703536    -1.807980114978    -0.105459254824    12.000000000000
         C           -2.657061703536    -0.613122114978    -0.005993254824    12.000000000000
         C            2.384787296464    -1.631219114978     0.671621745176    12.000000000000
         H            0.001420296464    -2.710711114978    -0.199357254824     1.007825032230
         H           -2.520639703536     1.536355885022     0.174222745176     1.007825032230
         H           -2.467029703536    -2.757745114978    -0.173572254824     1.007825032230
         H           -3.743912703536    -0.621020114978     0.013280745176     1.007825032230
         H            2.198149296464    -2.636318114978     0.280122745176     1.007825032230
         H            2.046371296464    -1.613005114978     1.711643745176     1.007825032230
         H            3.454908296464    -1.426004114978     0.617798745176     1.007825032230

  Basis Set: AUG-CC-PVTZ
    Blend: AUG-CC-PVTZ
  Basis Set: (AUG-CC-PVTZ AUX)
    Blend: AUG-CC-PVTZ-JKFIT
	 Reference Energy          =    -841.5286401069604381 [Eh]
	 Singles Energy            =      -0.0000000000000000 [Eh]
	 Same-Spin Energy          =      -0.4735978766580862 [Eh]
	 Opposite-Spin Energy      =      -1.4478087870721130 [Eh]
	 Correlation Energy        =      -1.9214066637301992 [Eh]
	 Total Energy              =    -843.4500467706906193 [Eh]

	 ================> DF-SCS-MP2 Energies <==================
	-----------------------------------------------------------
	 SCS Same-Spin Scale       =       0.3333333333333333 [-]
	 SCS Opposite-Spin Scale   =       1.2000000000000000 [-]
	 SCS Same-Spin Energy      =      -0.1578659588860287 [Eh]
	 SCS Opposite-Spin Energy  =      -1.7373705444865355 [Eh]
	 SCS Correlation Energy    =      -1.8952365033725642 [Eh]
	 SCS Total Energy          =    -843.4238766103329681 [Eh]
	-----------------------------------------------------------

  Dipole Moment: [D]
     X:    -2.1480      Y:    -2.9414      Z:     1.3732     Total:     3.8924

*** Psi4 exiting successfully. Buy a developer a beer!
