                               Psi4 1.4a3.dev225

  ==> Input File <==

--------------------------------------------------------------------------
#psi4
#
memory 32 gb

molecule  {
0 1
 Cl        0.2076870     2.2487580     0.1866360
  O        2.2653220     0.2846580    -0.8778020
  C        0.1642190    -0.4887810    -0.0665560
  C       -0.5729690     0.7033250     0.0302020
  C       -0.5420740    -1.7002010    -0.1332520
  C        1.6632570    -0.5094160    -0.1597980
  C       -1.9684630     0.6780340     0.0679080
  C       -1.9349490    -1.7304420    -0.1201220
  C       -2.6487990    -0.5355840    -0.0206560
  C        2.3930500    -1.5536810     0.6569590
  H        0.0096830    -2.6331730    -0.2140200
  H       -2.5123770     1.6138940     0.1595600
  H       -2.4587670    -2.6802070    -0.1882350
  H       -3.7356500    -0.5434820    -0.0013820
  H        2.1779469    -2.5772554     0.3339183
  H        2.0546340    -1.5354670     1.6969810
  H        3.4631710    -1.3484660     0.6031360
units angstrom
no_reorient  #important for SAPT in psi4, default
symmetry c1  #important for SAPT in psi4, default
}

set PROPERTIES_ORIGIN ["COM"]
properties('MP2/aug-cc-pvtz', properties = ['dipole'])
--------------------------------------------------------------------------

    Molecular point group: c1
  Charge       = 0
  Multiplicity = 1
  Basis Set: AUG-CC-PVTZ
    Blend: AUG-CC-PVTZ
  Basis Set: (AUG-CC-PVTZ AUX)
    Blend: AUG-CC-PVTZ-JKFIT

    Orbital Energies [Eh]
    ---------------------

    Doubly Occupied:

       1A   -104.841249     2A    -20.553730     3A    -11.346890
       4A    -11.320426     5A    -11.270620     6A    -11.267476
       7A    -11.263971     8A    -11.260130     9A    -11.258073
      10A    -11.243122    11A    -10.565025    12A     -8.031921
      13A     -8.029961    14A     -8.029906    15A     -1.384422
      16A     -1.199515    17A     -1.126793    18A     -1.066487
      19A     -1.013170    20A     -0.999775    21A     -0.876432
      22A     -0.838018    23A     -0.772355    24A     -0.705290
      25A     -0.669061    26A     -0.664868    27A     -0.635303
      28A     -0.621298    29A     -0.602052    30A     -0.590781
      31A     -0.567428    32A     -0.551881    33A     -0.536403
      34A     -0.524155    35A     -0.496852    36A     -0.473667
      37A     -0.458195    38A     -0.420478    39A     -0.361924
      40A     -0.344428

  @DF-RHF Final Energy:  -841.52632949107010

   => Energetics <=

    Nuclear Repulsion Energy =            563.5944537551328040
    One-Electron Energy =               -2272.6745061948449802
    Two-Electron Energy =                 867.5537229486421893
    Total Energy =                       -841.5263294910701006
  Basis Set: (AUG-CC-PVTZ AUX)
    Blend: AUG-CC-PVTZ-RI
    Molecular point group: c1

    Geometry (in Angstrom), charge = 0, multiplicity = 1:

       Center              X                  Y                   Z               Mass
    ------------   -----------------  -----------------  -----------------  -----------------
         CL           0.200374391420     2.172348213908     0.199939862115    34.968852682000
         O            2.258009391420     0.208248213908    -0.864498137885    15.994914619570
         C            0.156906391420    -0.565190786092    -0.053252137885    12.000000000000
         C           -0.580281608580     0.626915213908     0.043505862115    12.000000000000
         C           -0.549386608580    -1.776610786092    -0.119948137885    12.000000000000
         C            1.655944391420    -0.585825786092    -0.146494137885    12.000000000000
         C           -1.975775608580     0.601624213908     0.081211862115    12.000000000000
         C           -1.942261608580    -1.806851786092    -0.106818137885    12.000000000000
         C           -2.656111608580    -0.611993786092    -0.007352137885    12.000000000000
         C            2.385737391420    -1.630090786092     0.670262862115    12.000000000000
         H            0.002370391420    -2.709582786092    -0.200716137885     1.007825032230
         H           -2.519689608580     1.537484213908     0.172863862115     1.007825032230
         H           -2.466079608580    -2.756616786092    -0.174931137885     1.007825032230
         H           -3.742962608580    -0.619891786092     0.011921862115     1.007825032230
         H            2.170634291420    -2.653665186092     0.347222162115     1.007825032230
         H            2.047321391420    -1.611876786092     1.710284862115     1.007825032230
         H            3.455858391420    -1.424875786092     0.616439862115     1.007825032230

  Basis Set: AUG-CC-PVTZ
    Blend: AUG-CC-PVTZ
  Basis Set: (AUG-CC-PVTZ AUX)
    Blend: AUG-CC-PVTZ-JKFIT
	 Reference Energy          =    -841.5263294910701006 [Eh]
	 Singles Energy            =      -0.0000000000000000 [Eh]
	 Same-Spin Energy          =      -0.4742804171218454 [Eh]
	 Opposite-Spin Energy      =      -1.4491488323983552 [Eh]
	 Correlation Energy        =      -1.9234292495202006 [Eh]
	 Total Energy              =    -843.4497587405902550 [Eh]

	 ================> DF-SCS-MP2 Energies <==================
	-----------------------------------------------------------
	 SCS Same-Spin Scale       =       0.3333333333333333 [-]
	 SCS Opposite-Spin Scale   =       1.2000000000000000 [-]
	 SCS Same-Spin Energy      =      -0.1580934723739485 [Eh]
	 SCS Opposite-Spin Energy  =      -1.7389785988780262 [Eh]
	 SCS Correlation Energy    =      -1.8970720712519746 [Eh]
	 SCS Total Energy          =    -843.4234015623220557 [Eh]
	-----------------------------------------------------------

  Dipole Moment: [D]
     X:    -2.2200      Y:    -2.9998      Z:     1.4514     Total:     4.0042

*** Psi4 exiting successfully. Buy a developer a beer!
