                               Psi4 1.4a3.dev225

  ==> Input File <==

--------------------------------------------------------------------------
#psi4
#
memory 32 gb

molecule  {
0 1
 Cl        0.2076870     2.2487580     0.1866360
  O        2.2653220     0.2846580    -0.8778020
  C        0.1642190    -0.4887810    -0.0665560
  C       -0.5729690     0.7033250     0.0302020
  C       -0.5420740    -1.7002010    -0.1332520
  C        1.6632570    -0.5094160    -0.1597980
  C       -1.9684630     0.6780340     0.0679080
  C       -1.9349490    -1.7304420    -0.1201220
  C       -2.6487990    -0.5355840    -0.0206560
  C        2.3930500    -1.5536810     0.6569590
  H        0.0096830    -2.6331730    -0.2140200
  H       -2.5223909     1.6311240     0.1612474
  H       -2.4587670    -2.6802070    -0.1882350
  H       -3.7356500    -0.5434820    -0.0013820
  H        2.2064120    -2.5587800     0.2654600
  H        2.0546340    -1.5354670     1.6969810
  H        3.4631710    -1.3484660     0.6031360
units angstrom
no_reorient  #important for SAPT in psi4, default
symmetry c1  #important for SAPT in psi4, default
}

set PROPERTIES_ORIGIN ["COM"]
properties('MP2/aug-cc-pvtz', properties = ['dipole'])
--------------------------------------------------------------------------

    Molecular point group: c1
  Charge       = 0
  Multiplicity = 1
  Basis Set: AUG-CC-PVTZ
    Blend: AUG-CC-PVTZ
  Basis Set: (AUG-CC-PVTZ AUX)
    Blend: AUG-CC-PVTZ-JKFIT

    Orbital Energies [Eh]
    ---------------------

    Doubly Occupied:

       1A   -104.841184     2A    -20.553361     3A    -11.346321
       4A    -11.320538     5A    -11.270632     6A    -11.267434
       7A    -11.264161     8A    -11.262166     9A    -11.258103
      10A    -11.243105    11A    -10.564960    12A     -8.031856
      13A     -8.029896    14A     -8.029840    15A     -1.384138
      16A     -1.199404    17A     -1.126773    18A     -1.066233
      19A     -1.012759    20A     -0.999850    21A     -0.876073
      22A     -0.837139    23A     -0.771283    24A     -0.703937
      25A     -0.668914    26A     -0.663574    27A     -0.632580
      28A     -0.621461    29A     -0.603784    30A     -0.593416
      31A     -0.564370    32A     -0.552026    33A     -0.535766
      34A     -0.523877    35A     -0.497693    36A     -0.473620
      37A     -0.457872    38A     -0.419881    39A     -0.361915
      40A     -0.344446

  @DF-RHF Final Energy:  -841.52622111777112

   => Energetics <=

    Nuclear Repulsion Energy =            563.5120347415564765
    One-Electron Energy =               -2272.5238283311769010
    Two-Electron Energy =                 867.4855724718494230
    Total Energy =                       -841.5262211177711151
  Basis Set: (AUG-CC-PVTZ AUX)
    Blend: AUG-CC-PVTZ-RI
    Molecular point group: c1

    Geometry (in Angstrom), charge = 0, multiplicity = 1:

       Center              X                  Y                   Z               Mass
    ------------   -----------------  -----------------  -----------------  -----------------
         CL           0.200253655430     2.172114574534     0.200376779537    34.968852682000
         O            2.257888655430     0.208014574534    -0.864061220463    15.994914619570
         C            0.156785655430    -0.565424425466    -0.052815220463    12.000000000000
         C           -0.580402344570     0.626681574534     0.043942779537    12.000000000000
         C           -0.549507344570    -1.776844425466    -0.119511220463    12.000000000000
         C            1.655823655430    -0.586059425466    -0.146057220463    12.000000000000
         C           -1.975896344570     0.601390574534     0.081648779537    12.000000000000
         C           -1.942382344570    -1.807085425466    -0.106381220463    12.000000000000
         C           -2.656232344570    -0.612227425466    -0.006915220463    12.000000000000
         C            2.385616655430    -1.630324425466     0.670699779537    12.000000000000
         H            0.002249655430    -2.709816425466    -0.200279220463     1.007825032230
         H           -2.529824244570     1.554480574534     0.174988179537     1.007825032230
         H           -2.466200344570    -2.756850425466    -0.174494220463     1.007825032230
         H           -3.743083344570    -0.620125425466     0.012358779537     1.007825032230
         H            2.198978655430    -2.635423425466     0.279200779537     1.007825032230
         H            2.047200655430    -1.612110425466     1.710721779537     1.007825032230
         H            3.455737655430    -1.425109425466     0.616876779537     1.007825032230

  Basis Set: AUG-CC-PVTZ
    Blend: AUG-CC-PVTZ
  Basis Set: (AUG-CC-PVTZ AUX)
    Blend: AUG-CC-PVTZ-JKFIT
	 Reference Energy          =    -841.5262211177711151 [Eh]
	 Singles Energy            =      -0.0000000000000000 [Eh]
	 Same-Spin Energy          =      -0.4742820743397449 [Eh]
	 Opposite-Spin Energy      =      -1.4492799803129581 [Eh]
	 Correlation Energy        =      -1.9235620546527030 [Eh]
	 Total Energy              =    -843.4497831724238495 [Eh]

	 ================> DF-SCS-MP2 Energies <==================
	-----------------------------------------------------------
	 SCS Same-Spin Scale       =       0.3333333333333333 [-]
	 SCS Opposite-Spin Scale   =       1.2000000000000000 [-]
	 SCS Same-Spin Energy      =      -0.1580940247799150 [Eh]
	 SCS Opposite-Spin Energy  =      -1.7391359763755496 [Eh]
	 SCS Correlation Energy    =      -1.8972300011554646 [Eh]
	 SCS Total Energy          =    -843.4234511189265504 [Eh]
	-----------------------------------------------------------

  Dipole Moment: [D]
     X:    -2.2034      Y:    -2.9921      Z:     1.4273     Total:     3.9805

*** Psi4 exiting successfully. Buy a developer a beer!
