                               Psi4 1.4a3.dev225

  ==> Input File <==

--------------------------------------------------------------------------
#psi4
#
memory 32 gb

molecule  {
0 1
 Cl        0.2076870     2.2487580     0.1866360
  O        2.2653220     0.2846580    -0.8778020
  C        0.1642190    -0.4887810    -0.0665560
  C       -0.5729690     0.7033250     0.0302020
  C       -0.5420740    -1.7002010    -0.1332520
  C        1.6632570    -0.5094160    -0.1597980
  C       -1.9684630     0.6780340     0.0679080
  C       -1.9349490    -1.7304420    -0.1201220
  C       -2.6487990    -0.5355840    -0.0206560
  C        2.4412742    -1.6226853     0.7109297
  H        0.0096830    -2.6331730    -0.2140200
  H       -2.5123770     1.6138940     0.1595600
  H       -2.4587670    -2.6802070    -0.1882350
  H       -3.7356500    -0.5434820    -0.0013820
  H        2.2064120    -2.5587800     0.2654600
  H        2.0546340    -1.5354670     1.6969810
  H        3.4631710    -1.3484660     0.6031360
units angstrom
no_reorient  #important for SAPT in psi4, default
symmetry c1  #important for SAPT in psi4, default
}

set PROPERTIES_ORIGIN ["COM"]
properties('MP2/aug-cc-pvtz', properties = ['dipole'])
--------------------------------------------------------------------------

    Molecular point group: c1
  Charge       = 0
  Multiplicity = 1
  Basis Set: AUG-CC-PVTZ
    Blend: AUG-CC-PVTZ
  Basis Set: (AUG-CC-PVTZ AUX)
    Blend: AUG-CC-PVTZ-JKFIT

    Orbital Energies [Eh]
    ---------------------

    Doubly Occupied:

       1A   -104.841532     2A    -20.555170     3A    -11.349805
       4A    -11.320821     5A    -11.271253     6A    -11.267907
       7A    -11.264306     8A    -11.260429     9A    -11.258350
      10A    -11.240967    11A    -10.565312    12A     -8.032208
      13A     -8.030247    14A     -8.030192    15A     -1.383151
      16A     -1.199709    17A     -1.126943    18A     -1.062759
      19A     -1.011035    20A     -0.995356    21A     -0.877271
      22A     -0.838567    23A     -0.770832    24A     -0.701140
      25A     -0.668441    26A     -0.661132    27A     -0.634540
      28A     -0.617374    29A     -0.603570    30A     -0.594304
      31A     -0.578558    32A     -0.552029    33A     -0.539166
      34A     -0.525269    35A     -0.502832    36A     -0.474006
      37A     -0.456736    38A     -0.410657    39A     -0.362138
      40A     -0.344683

  @DF-RHF Final Energy:  -841.51941448871901

   => Energetics <=

    Nuclear Repulsion Energy =            561.7896496989773141
    One-Electron Energy =               -2269.0567330244562072
    Two-Electron Energy =                 865.7476688367597717
    Total Energy =                       -841.5194144887190077
  Basis Set: (AUG-CC-PVTZ AUX)
    Blend: AUG-CC-PVTZ-RI
    Molecular point group: c1

    Geometry (in Angstrom), charge = 0, multiplicity = 1:

       Center              X                  Y                   Z               Mass
    ------------   -----------------  -----------------  -----------------  -----------------
         CL           0.196430851698     2.177603630666     0.196182818307    34.968852682000
         O            2.254065851698     0.213503630666    -0.868255181693    15.994914619570
         C            0.152962851698    -0.559935369334    -0.057009181693    12.000000000000
         C           -0.584225148302     0.632170630666     0.039748818307    12.000000000000
         C           -0.553330148302    -1.771355369334    -0.123705181693    12.000000000000
         C            1.652000851698    -0.580570369334    -0.150251181693    12.000000000000
         C           -1.979719148302     0.606879630666     0.077454818307    12.000000000000
         C           -1.946205148302    -1.801596369334    -0.110575181693    12.000000000000
         C           -2.660055148302    -0.606738369334    -0.011109181693    12.000000000000
         C            2.430018051698    -1.693839669334     0.720476518307    12.000000000000
         H           -0.001573148302    -2.704327369334    -0.204473181693     1.007825032230
         H           -2.523633148302     1.542739630666     0.169106818307     1.007825032230
         H           -2.470023148302    -2.751361369334    -0.178688181693     1.007825032230
         H           -3.746906148302    -0.614636369334     0.008164818307     1.007825032230
         H            2.195155851698    -2.629934369334     0.275006818307     1.007825032230
         H            2.043377851698    -1.606621369334     1.706527818307     1.007825032230
         H            3.451914851698    -1.419620369334     0.612682818307     1.007825032230

  Basis Set: AUG-CC-PVTZ
    Blend: AUG-CC-PVTZ
  Basis Set: (AUG-CC-PVTZ AUX)
    Blend: AUG-CC-PVTZ-JKFIT
	 Reference Energy          =    -841.5194144887190077 [Eh]
	 Singles Energy            =      -0.0000000000000000 [Eh]
	 Same-Spin Energy          =      -0.4739935015041659 [Eh]
	 Opposite-Spin Energy      =      -1.4494330411158340 [Eh]
	 Correlation Energy        =      -1.9234265426199999 [Eh]
	 Total Energy              =    -843.4428410313389577 [Eh]

	 ================> DF-SCS-MP2 Energies <==================
	-----------------------------------------------------------
	 SCS Same-Spin Scale       =       0.3333333333333333 [-]
	 SCS Opposite-Spin Scale   =       1.2000000000000000 [-]
	 SCS Same-Spin Energy      =      -0.1579978338347219 [Eh]
	 SCS Opposite-Spin Energy  =      -1.7393196493390009 [Eh]
	 SCS Correlation Energy    =      -1.8973174831737227 [Eh]
	 SCS Total Energy          =    -843.4167319718927729 [Eh]
	-----------------------------------------------------------

  Dipole Moment: [D]
     X:    -2.3087      Y:    -2.8541      Z:     1.3312     Total:     3.9049

*** Psi4 exiting successfully. Buy a developer a beer!
