                               Psi4 1.4a3.dev225

  ==> Input File <==

--------------------------------------------------------------------------
#psi4
#
memory 32 gb

molecule  {
0 1
 Cl        0.2076870     2.2487580     0.1866360
  O        2.2653220     0.2846580    -0.8778020
  C        0.1642190    -0.4887810    -0.0665560
  C       -0.5729690     0.7033250     0.0302020
  C       -0.5420740    -1.7002010    -0.1332520
  C        1.6442807    -0.5480058    -0.1904731
  C       -1.9684630     0.6780340     0.0679080
  C       -1.9349490    -1.7304420    -0.1201220
  C       -2.6487990    -0.5355840    -0.0206560
  C        2.3930500    -1.5536810     0.6569590
  H        0.0096830    -2.6331730    -0.2140200
  H       -2.5123770     1.6138940     0.1595600
  H       -2.4587670    -2.6802070    -0.1882350
  H       -3.7356500    -0.5434820    -0.0013820
  H        2.2064120    -2.5587800     0.2654600
  H        2.0546340    -1.5354670     1.6969810
  H        3.4631710    -1.3484660     0.6031360
units angstrom
no_reorient  #important for SAPT in psi4, default
symmetry c1  #important for SAPT in psi4, default
}

set PROPERTIES_ORIGIN ["COM"]
properties('MP2/aug-cc-pvtz', properties = ['dipole'])
--------------------------------------------------------------------------

    Molecular point group: c1
  Charge       = 0
  Multiplicity = 1
  Basis Set: AUG-CC-PVTZ
    Blend: AUG-CC-PVTZ
  Basis Set: (AUG-CC-PVTZ AUX)
    Blend: AUG-CC-PVTZ-JKFIT

    Orbital Energies [Eh]
    ---------------------

    Doubly Occupied:

       1A   -104.841356     2A    -20.551470     3A    -11.346727
       4A    -11.322236     5A    -11.270872     6A    -11.268223
       7A    -11.265244     8A    -11.261070     9A    -11.258558
      10A    -11.243610    11A    -10.565095    12A     -8.031991
      13A     -8.030027    14A     -8.029967    15A     -1.372136
      16A     -1.200407    17A     -1.127409    18A     -1.069091
      19A     -1.013595    20A     -1.000174    21A     -0.878306
      22A     -0.840168    23A     -0.772844    24A     -0.703744
      25A     -0.669685    26A     -0.663083    27A     -0.633866
      28A     -0.617645    29A     -0.604296    30A     -0.593739
      31A     -0.564697    32A     -0.552061    33A     -0.536093
      34A     -0.524460    35A     -0.492306    36A     -0.473532
      37A     -0.457409    38A     -0.420455    39A     -0.362716
      40A     -0.345090

  @DF-RHF Final Energy:  -841.52309232532502

   => Energetics <=

    Nuclear Repulsion Energy =            563.4883143332109512
    One-Electron Energy =               -2272.4719066723864671
    Two-Electron Energy =                 867.4605000138506057
    Total Energy =                       -841.5230923253250239
  Basis Set: (AUG-CC-PVTZ AUX)
    Blend: AUG-CC-PVTZ-RI
    Molecular point group: c1

    Geometry (in Angstrom), charge = 0, multiplicity = 1:

       Center              X                  Y                   Z               Mass
    ------------   -----------------  -----------------  -----------------  -----------------
         CL           0.201666623877     2.175233954950     0.202777800855    34.968852682000
         O            2.259301623877     0.211133954950    -0.861660199145    15.994914619570
         C            0.158198623877    -0.562305045050    -0.050414199145    12.000000000000
         C           -0.578989376123     0.629800954950     0.046343800855    12.000000000000
         C           -0.548094376123    -1.773725045050    -0.117110199145    12.000000000000
         C            1.638260323877    -0.621529845050    -0.174331299145    12.000000000000
         C           -1.974483376123     0.604509954950     0.084049800855    12.000000000000
         C           -1.940969376123    -1.803966045050    -0.103980199145    12.000000000000
         C           -2.654819376123    -0.609108045050    -0.004514199145    12.000000000000
         C            2.387029623877    -1.627205045050     0.673100800855    12.000000000000
         H            0.003662623877    -2.706697045050    -0.197878199145     1.007825032230
         H           -2.518397376123     1.540369954950     0.175701800855     1.007825032230
         H           -2.464787376123    -2.753731045050    -0.172093199145     1.007825032230
         H           -3.741670376123    -0.617006045050     0.014759800855     1.007825032230
         H            2.200391623877    -2.632304045050     0.281601800855     1.007825032230
         H            2.048613623877    -1.608991045050     1.713122800855     1.007825032230
         H            3.457150623877    -1.421990045050     0.619277800855     1.007825032230

  Basis Set: AUG-CC-PVTZ
    Blend: AUG-CC-PVTZ
  Basis Set: (AUG-CC-PVTZ AUX)
    Blend: AUG-CC-PVTZ-JKFIT
	 Reference Energy          =    -841.5230923253250239 [Eh]
	 Singles Energy            =      -0.0000000000000000 [Eh]
	 Same-Spin Energy          =      -0.4748577095162494 [Eh]
	 Opposite-Spin Energy      =      -1.4505066132885633 [Eh]
	 Correlation Energy        =      -1.9253643228048127 [Eh]
	 Total Energy              =    -843.4484566481298771 [Eh]

	 ================> DF-SCS-MP2 Energies <==================
	-----------------------------------------------------------
	 SCS Same-Spin Scale       =       0.3333333333333333 [-]
	 SCS Opposite-Spin Scale   =       1.2000000000000000 [-]
	 SCS Same-Spin Energy      =      -0.1582859031720831 [Eh]
	 SCS Opposite-Spin Energy  =      -1.7406079359462761 [Eh]
	 SCS Correlation Energy    =      -1.8988938391183592 [Eh]
	 SCS Total Energy          =    -843.4219861644434104 [Eh]
	-----------------------------------------------------------

  Dipole Moment: [D]
     X:    -2.3212      Y:    -3.0179      Z:     1.4381     Total:     4.0699

*** Psi4 exiting successfully. Buy a developer a beer!
