                               Psi4 1.4a3.dev225

  ==> Input File <==

--------------------------------------------------------------------------
#psi4
#
memory 32 gb

molecule  {
0 1
 Cl        0.2076870     2.2487580     0.1866360
  O        2.2653220     0.2846580    -0.8778020
  C        0.1642190    -0.4887810    -0.0665560
  C       -0.5729690     0.7033250     0.0302020
  C       -0.5420740    -1.7002010    -0.1332520
  C        1.7612943    -0.3801129    -0.2767142
  C       -1.9684630     0.6780340     0.0679080
  C       -1.9349490    -1.7304420    -0.1201220
  C       -2.6487990    -0.5355840    -0.0206560
  C        2.3930500    -1.5536810     0.6569590
  H        0.0096830    -2.6331730    -0.2140200
  H       -2.5123770     1.6138940     0.1595600
  H       -2.4587670    -2.6802070    -0.1882350
  H       -3.7356500    -0.5434820    -0.0013820
  H        2.2064120    -2.5587800     0.2654600
  H        2.0546340    -1.5354670     1.6969810
  H        3.4631710    -1.3484660     0.6031360
units angstrom
no_reorient  #important for SAPT in psi4, default
symmetry c1  #important for SAPT in psi4, default
}

set PROPERTIES_ORIGIN ["COM"]
properties('MP2/aug-cc-pvtz', properties = ['dipole'])
--------------------------------------------------------------------------

    Molecular point group: c1
  Charge       = 0
  Multiplicity = 1
  Basis Set: AUG-CC-PVTZ
    Blend: AUG-CC-PVTZ
  Basis Set: (AUG-CC-PVTZ AUX)
    Blend: AUG-CC-PVTZ-JKFIT

    Orbital Energies [Eh]
    ---------------------

    Doubly Occupied:

       1A   -104.840966     2A    -20.573531     3A    -11.336851
       4A    -11.310112     5A    -11.259688     6A    -11.258528
       7A    -11.255889     8A    -11.253886     9A    -11.252273
      10A    -11.231429    11A    -10.564957    12A     -8.031857
      13A     -8.029936    14A     -8.029907    15A     -1.547303
      16A     -1.192605    17A     -1.122481    18A     -1.044298
      19A     -1.002614    20A     -0.976415    21A     -0.861505
      22A     -0.825592    23A     -0.766709    24A     -0.726844
      25A     -0.687161    26A     -0.671711    27A     -0.665179
      28A     -0.635118    29A     -0.625095    30A     -0.594562
      31A     -0.562011    32A     -0.557442    33A     -0.540519
      34A     -0.539027    35A     -0.514082    36A     -0.471986
      37A     -0.457061    38A     -0.381668    39A     -0.353316
      40A     -0.338925

  @DF-RHF Final Energy:  -841.45817210983148

   => Energetics <=

    Nuclear Repulsion Energy =            564.9381500134167027
    One-Electron Energy =               -2275.0105738896745606
    Two-Electron Energy =                 868.6142517664262641
    Total Energy =                       -841.4581721098314802
  Basis Set: (AUG-CC-PVTZ AUX)
    Blend: AUG-CC-PVTZ-RI
    Molecular point group: c1

    Geometry (in Angstrom), charge = 0, multiplicity = 1:

       Center              X                  Y                   Z               Mass
    ------------   -----------------  -----------------  -----------------  -----------------
         CL           0.192549778743     2.162152966344     0.209497077528    34.968852682000
         O            2.250184778743     0.198052966344    -0.854940922472    15.994914619570
         C            0.149081778743    -0.575386033656    -0.043694922472    12.000000000000
         C           -0.588106221257     0.616719966344     0.053063077528    12.000000000000
         C           -0.557211221257    -1.786806033656    -0.110390922472    12.000000000000
         C            1.746157078743    -0.466717933656    -0.253853122472    12.000000000000
         C           -1.983600221257     0.591428966344     0.090769077528    12.000000000000
         C           -1.950086221257    -1.817047033656    -0.097260922472    12.000000000000
         C           -2.663936221257    -0.622189033656     0.002205077528    12.000000000000
         C            2.377912778743    -1.640286033656     0.679820077528    12.000000000000
         H           -0.005454221257    -2.719778033656    -0.191158922472     1.007825032230
         H           -2.527514221257     1.527288966344     0.182421077528     1.007825032230
         H           -2.473904221257    -2.766812033656    -0.165373922472     1.007825032230
         H           -3.750787221257    -0.630087033656     0.021479077528     1.007825032230
         H            2.191274778743    -2.645385033656     0.288321077528     1.007825032230
         H            2.039496778743    -1.622072033656     1.719842077528     1.007825032230
         H            3.448033778743    -1.435071033656     0.625997077528     1.007825032230

  Basis Set: AUG-CC-PVTZ
    Blend: AUG-CC-PVTZ
  Basis Set: (AUG-CC-PVTZ AUX)
    Blend: AUG-CC-PVTZ-JKFIT
	 Reference Energy          =    -841.4581721098314802 [Eh]
	 Singles Energy            =      -0.0000000000000000 [Eh]
	 Same-Spin Energy          =      -0.4697768101223375 [Eh]
	 Opposite-Spin Energy      =      -1.4390503218144297 [Eh]
	 Correlation Energy        =      -1.9088271319367671 [Eh]
	 Total Energy              =    -843.3669992417682124 [Eh]

	 ================> DF-SCS-MP2 Energies <==================
	-----------------------------------------------------------
	 SCS Same-Spin Scale       =       0.3333333333333333 [-]
	 SCS Opposite-Spin Scale   =       1.2000000000000000 [-]
	 SCS Same-Spin Energy      =      -0.1565922700407791 [Eh]
	 SCS Opposite-Spin Energy  =      -1.7268603861773155 [Eh]
	 SCS Correlation Energy    =      -1.8834526562180947 [Eh]
	 SCS Total Energy          =    -843.3416247660495628 [Eh]
	-----------------------------------------------------------

  Dipole Moment: [D]
     X:    -1.4651      Y:    -2.3165      Z:     0.7089     Total:     2.8311

*** Psi4 exiting successfully. Buy a developer a beer!
