                               Psi4 1.4a3.dev225

  ==> Input File <==

--------------------------------------------------------------------------
#psi4
#
memory 32 gb

molecule  {
0 1
 Cl        0.2076870     2.2487580     0.1866360
  O        2.2653220     0.2846580    -0.8778020
  C        0.1642190    -0.4887810    -0.0665560
  C       -0.5729690     0.7033250     0.0302020
  C       -0.5420740    -1.7002010    -0.1332520
  C        1.6632570    -0.5094160    -0.1597980
  C       -1.9684630     0.6780340     0.0679080
  C       -1.9349490    -1.7304420    -0.1201220
  C       -2.6487990    -0.5355840    -0.0206560
  C        2.3930500    -1.5536810     0.6569590
  H        0.0096830    -2.6331730    -0.2140200
  H       -2.5123770     1.6138940     0.1595600
  H       -2.4587670    -2.6802070    -0.1882350
  H       -3.7356500    -0.5434820    -0.0013820
  H        2.2098219    -2.5404167     0.2726127
  H        2.0546340    -1.5354670     1.6969810
  H        3.4631710    -1.3484660     0.6031360
units angstrom
no_reorient  #important for SAPT in psi4, default
symmetry c1  #important for SAPT in psi4, default
}

set PROPERTIES_ORIGIN ["COM"]
properties('MP2/aug-cc-pvtz', properties = ['dipole'])
--------------------------------------------------------------------------

    Molecular point group: c1
  Charge       = 0
  Multiplicity = 1
  Basis Set: AUG-CC-PVTZ
    Blend: AUG-CC-PVTZ
  Basis Set: (AUG-CC-PVTZ AUX)
    Blend: AUG-CC-PVTZ-JKFIT

    Orbital Energies [Eh]
    ---------------------

    Doubly Occupied:

       1A   -104.841209     2A    -20.553222     3A    -11.346115
       4A    -11.320398     5A    -11.270533     6A    -11.267457
       7A    -11.263939     8A    -11.260100     9A    -11.258043
      10A    -11.240687    11A    -10.564985    12A     -8.031882
      13A     -8.029922    14A     -8.029866    15A     -1.384006
      16A     -1.199473    17A     -1.126764    18A     -1.066724
      19A     -1.013664    20A     -1.000680    21A     -0.876482
      22A     -0.838015    23A     -0.772170    24A     -0.704558
      25A     -0.668971    26A     -0.663983    27A     -0.634824
      28A     -0.622509    29A     -0.604488    30A     -0.594376
      31A     -0.564935    32A     -0.552287    33A     -0.536154
      34A     -0.524404    35A     -0.498215    36A     -0.473631
      37A     -0.457972    38A     -0.419764    39A     -0.361880
      40A     -0.344393

  @DF-RHF Final Energy:  -841.52694493364811

   => Energetics <=

    Nuclear Repulsion Energy =            563.7056805424825825
    One-Electron Energy =               -2272.8978929410823184
    Two-Electron Energy =                 867.6652674649515120
    Total Energy =                       -841.5269449336481102
  Basis Set: (AUG-CC-PVTZ AUX)
    Blend: AUG-CC-PVTZ-RI
    Molecular point group: c1

    Geometry (in Angstrom), charge = 0, multiplicity = 1:

       Center              X                  Y                   Z               Mass
    ------------   -----------------  -----------------  -----------------  -----------------
         CL           0.200165816385     2.172107158751     0.200341017180    34.968852682000
         O            2.257800816385     0.208007158751    -0.864096982820    15.994914619570
         C            0.156697816385    -0.565431841249    -0.052850982820    12.000000000000
         C           -0.580490183615     0.626674158751     0.043907017180    12.000000000000
         C           -0.549595183615    -1.776851841249    -0.119546982820    12.000000000000
         C            1.655735816385    -0.586066841249    -0.146092982820    12.000000000000
         C           -1.975984183615     0.601383158751     0.081613017180    12.000000000000
         C           -1.942470183615    -1.807092841249    -0.106416982820    12.000000000000
         C           -2.656320183615    -0.612234841249    -0.006950982820    12.000000000000
         C            2.385528816385    -1.630331841249     0.670664017180    12.000000000000
         H            0.002161816385    -2.709823841249    -0.200314982820     1.007825032230
         H           -2.519898183615     1.537243158751     0.173265017180     1.007825032230
         H           -2.466288183615    -2.756857841249    -0.174529982820     1.007825032230
         H           -3.743171183615    -0.620132841249     0.012323017180     1.007825032230
         H            2.202300716385    -2.617067541249     0.286317717180     1.007825032230
         H            2.047112816385    -1.612117841249     1.710686017180     1.007825032230
         H            3.455649816385    -1.425116841249     0.616841017180     1.007825032230

  Basis Set: AUG-CC-PVTZ
    Blend: AUG-CC-PVTZ
  Basis Set: (AUG-CC-PVTZ AUX)
    Blend: AUG-CC-PVTZ-JKFIT
	 Reference Energy          =    -841.5269449336481102 [Eh]
	 Singles Energy            =      -0.0000000000000000 [Eh]
	 Same-Spin Energy          =      -0.4742170703026410 [Eh]
	 Opposite-Spin Energy      =      -1.4490035426110066 [Eh]
	 Correlation Energy        =      -1.9232206129136475 [Eh]
	 Total Energy              =    -843.4501655465617205 [Eh]

	 ================> DF-SCS-MP2 Energies <==================
	-----------------------------------------------------------
	 SCS Same-Spin Scale       =       0.3333333333333333 [-]
	 SCS Opposite-Spin Scale   =       1.2000000000000000 [-]
	 SCS Same-Spin Energy      =      -0.1580723567675470 [Eh]
	 SCS Opposite-Spin Energy  =      -1.7388042511332078 [Eh]
	 SCS Correlation Energy    =      -1.8968766079007549 [Eh]
	 SCS Total Energy          =    -843.4238215415488185 [Eh]
	-----------------------------------------------------------

  Dipole Moment: [D]
     X:    -2.2062      Y:    -2.9947      Z:     1.4262     Total:     3.9837

*** Psi4 exiting successfully. Buy a developer a beer!
