                               Psi4 1.4a3.dev225

  ==> Input File <==

--------------------------------------------------------------------------
#psi4
#
memory 32 gb

molecule  {
0 1
 Cl        0.2076870     2.2487580     0.1866360
  O        2.2653220     0.2846580    -0.8778020
  C        0.1642190    -0.4887810    -0.0665560
  C       -0.5729690     0.7033250     0.0302020
  C       -0.4917634    -1.6139092    -0.1285011
  C        1.6632570    -0.5094160    -0.1597980
  C       -1.9684630     0.6780340     0.0679080
  C       -1.9349490    -1.7304420    -0.1201220
  C       -2.6487990    -0.5355840    -0.0206560
  C        2.3930500    -1.5536810     0.6569590
  H        0.0096830    -2.6331730    -0.2140200
  H       -2.5123770     1.6138940     0.1595600
  H       -2.4587670    -2.6802070    -0.1882350
  H       -3.7356500    -0.5434820    -0.0013820
  H        2.2064120    -2.5587800     0.2654600
  H        2.0546340    -1.5354670     1.6969810
  H        3.4631710    -1.3484660     0.6031360
units angstrom
no_reorient  #important for SAPT in psi4, default
symmetry c1  #important for SAPT in psi4, default
}

set PROPERTIES_ORIGIN ["COM"]
properties('MP2/aug-cc-pvtz', properties = ['dipole'])
--------------------------------------------------------------------------

    Molecular point group: c1
  Charge       = 0
  Multiplicity = 1
  Basis Set: AUG-CC-PVTZ
    Blend: AUG-CC-PVTZ
  Basis Set: (AUG-CC-PVTZ AUX)
    Blend: AUG-CC-PVTZ-JKFIT

    Orbital Energies [Eh]
    ---------------------

    Doubly Occupied:

       1A   -104.840959     2A    -20.554098     3A    -11.346628
       4A    -11.319800     5A    -11.266114     6A    -11.263120
       7A    -11.261913     8A    -11.260257     9A    -11.258685
      10A    -11.242858    11A    -10.564733    12A     -8.031629
      13A     -8.029676    14A     -8.029620    15A     -1.384942
      16A     -1.205179    17A     -1.127336    18A     -1.076113
      19A     -1.009233    20A     -0.998482    21A     -0.869637
      22A     -0.842398    23A     -0.777063    24A     -0.701467
      25A     -0.672953    26A     -0.659287    27A     -0.636974
      28A     -0.624184    29A     -0.603192    30A     -0.588691
      31A     -0.564338    32A     -0.552110    33A     -0.533883
      34A     -0.520815    35A     -0.499243    36A     -0.473063
      37A     -0.458029    38A     -0.418531    39A     -0.375172
      40A     -0.337063

  @DF-RHF Final Energy:  -841.51389188819280

   => Energetics <=

    Nuclear Repulsion Energy =            565.2653536692831722
    One-Electron Energy =               -2275.9995545268020578
    Two-Electron Energy =                 869.2203089693259699
    Total Energy =                       -841.5138918881928021
  Basis Set: (AUG-CC-PVTZ AUX)
    Blend: AUG-CC-PVTZ-RI
    Molecular point group: c1

    Geometry (in Angstrom), charge = 0, multiplicity = 1:

       Center              X                  Y                   Z               Mass
    ------------   -----------------  -----------------  -----------------  -----------------
         CL           0.196268294648     2.165504092718     0.200017665659    34.968852682000
         O            2.253903294648     0.201404092718    -0.864420334341    15.994914619570
         C            0.152800294648    -0.572034907282    -0.053174334341    12.000000000000
         C           -0.584387705352     0.620071092718     0.043583665659    12.000000000000
         C           -0.503182105352    -1.697163107282    -0.115119434341    12.000000000000
         C            1.651838294648    -0.592669907282    -0.146416334341    12.000000000000
         C           -1.979881705352     0.594780092718     0.081289665659    12.000000000000
         C           -1.946367705352    -1.813695907282    -0.106740334341    12.000000000000
         C           -2.660217705352    -0.618837907282    -0.007274334341    12.000000000000
         C            2.381631294648    -1.636934907282     0.670340665659    12.000000000000
         H           -0.001735705352    -2.716426907282    -0.200638334341     1.007825032230
         H           -2.523795705352     1.530640092718     0.172941665659     1.007825032230
         H           -2.470185705352    -2.763460907282    -0.174853334341     1.007825032230
         H           -3.747068705352    -0.626735907282     0.011999665659     1.007825032230
         H            2.194993294648    -2.642033907282     0.278841665659     1.007825032230
         H            2.043215294648    -1.618720907282     1.710362665659     1.007825032230
         H            3.451752294648    -1.431719907282     0.616517665659     1.007825032230

  Basis Set: AUG-CC-PVTZ
    Blend: AUG-CC-PVTZ
  Basis Set: (AUG-CC-PVTZ AUX)
    Blend: AUG-CC-PVTZ-JKFIT
	 Reference Energy          =    -841.5138918881928021 [Eh]
	 Singles Energy            =      -0.0000000000000000 [Eh]
	 Same-Spin Energy          =      -0.4740567256870034 [Eh]
	 Opposite-Spin Energy      =      -1.4495575571211390 [Eh]
	 Correlation Energy        =      -1.9236142828081424 [Eh]
	 Total Energy              =    -843.4375061710009049 [Eh]

	 ================> DF-SCS-MP2 Energies <==================
	-----------------------------------------------------------
	 SCS Same-Spin Scale       =       0.3333333333333333 [-]
	 SCS Opposite-Spin Scale   =       1.2000000000000000 [-]
	 SCS Same-Spin Energy      =      -0.1580189085623345 [Eh]
	 SCS Opposite-Spin Energy  =      -1.7394690685453666 [Eh]
	 SCS Correlation Energy    =      -1.8974879771077011 [Eh]
	 SCS Total Energy          =    -843.4113798653005460 [Eh]
	-----------------------------------------------------------

  Dipole Moment: [D]
     X:    -2.1735      Y:    -2.9902      Z:     1.4251     Total:     3.9619

*** Psi4 exiting successfully. Buy a developer a beer!
