                               Psi4 1.4a3.dev225

  ==> Input File <==

--------------------------------------------------------------------------
#psi4
#
memory 32 gb

molecule  {
0 1
 Cl        0.2076870     2.2487580     0.1866360
  O        2.2653220     0.2846580    -0.8778020
  C        0.1642190    -0.4887810    -0.0665560
  C       -0.5729690     0.7033250     0.0302020
  C       -0.5420740    -1.7002010    -0.1332520
  C        1.6632570    -0.5094160    -0.1597980
  C       -1.9684630     0.6780340     0.0679080
  C       -1.9349490    -1.7304420    -0.1201220
  C       -2.7702086    -0.6166258    -0.0256982
  C        2.3930500    -1.5536810     0.6569590
  H        0.0096830    -2.6331730    -0.2140200
  H       -2.5123770     1.6138940     0.1595600
  H       -2.4587670    -2.6802070    -0.1882350
  H       -3.7356500    -0.5434820    -0.0013820
  H        2.2064120    -2.5587800     0.2654600
  H        2.0546340    -1.5354670     1.6969810
  H        3.4631710    -1.3484660     0.6031360
units angstrom
no_reorient  #important for SAPT in psi4, default
symmetry c1  #important for SAPT in psi4, default
}

set PROPERTIES_ORIGIN ["COM"]
properties('MP2/aug-cc-pvtz', properties = ['dipole'])
--------------------------------------------------------------------------

    Molecular point group: c1
  Charge       = 0
  Multiplicity = 1
  Basis Set: AUG-CC-PVTZ
    Blend: AUG-CC-PVTZ
  Basis Set: (AUG-CC-PVTZ AUX)
    Blend: AUG-CC-PVTZ-JKFIT

    Orbital Energies [Eh]
    ---------------------

    Doubly Occupied:

       1A   -104.840253     2A    -20.554585     3A    -11.347288
       4A    -11.318511     5A    -11.274069     6A    -11.272536
       7A    -11.269026     8A    -11.268898     9A    -11.261474
      10A    -11.243698    11A    -10.564016    12A     -8.030921
      13A     -8.028942    14A     -8.028893    15A     -1.385218
      16A     -1.193142    17A     -1.123891    18A     -1.061321
      19A     -1.005375    20A     -1.002350    21A     -0.889119
      22A     -0.832407    23A     -0.775294    24A     -0.712719
      25A     -0.678569    26A     -0.662936    27A     -0.630063
      28A     -0.619901    29A     -0.598742    30A     -0.590218
      31A     -0.580179    32A     -0.557149    33A     -0.540379
      34A     -0.507119    35A     -0.494076    36A     -0.471054
      37A     -0.456896    38A     -0.420819    39A     -0.352695
      40A     -0.345519

  @DF-RHF Final Energy:  -841.49756764719825

   => Energetics <=

    Nuclear Repulsion Energy =            560.9937468852454003
    One-Electron Energy =               -2267.4021125547938027
    Two-Electron Energy =                 864.9107980223501499
    Total Energy =                       -841.4975676471982524
  Basis Set: (AUG-CC-PVTZ AUX)
    Blend: AUG-CC-PVTZ-RI
    Molecular point group: c1

    Geometry (in Angstrom), charge = 0, multiplicity = 1:

       Center              X                  Y                   Z               Mass
    ------------   -----------------  -----------------  -----------------  -----------------
         CL           0.209647478519     2.178541504753     0.200780672490    34.968852682000
         O            2.267282478519     0.214441504753    -0.863657327510    15.994914619570
         C            0.166179478519    -0.558997495247    -0.052411327510    12.000000000000
         C           -0.571008521481     0.633108504753     0.044346672490    12.000000000000
         C           -0.540113521481    -1.770417495247    -0.119107327510    12.000000000000
         C            1.665217478519    -0.579632495247    -0.145653327510    12.000000000000
         C           -1.966502521481     0.607817504753     0.082052672490    12.000000000000
         C           -1.932988521481    -1.800658495247    -0.105977327510    12.000000000000
         C           -2.768248121481    -0.686842295247    -0.011553527510    12.000000000000
         C            2.395010478519    -1.623897495247     0.671103672490    12.000000000000
         H            0.011643478519    -2.703389495247    -0.199875327510     1.007825032230
         H           -2.510416521481     1.543677504753     0.173704672490     1.007825032230
         H           -2.456806521481    -2.750423495247    -0.174090327510     1.007825032230
         H           -3.733689521481    -0.613698495247     0.012762672490     1.007825032230
         H            2.208372478519    -2.628996495247     0.279604672490     1.007825032230
         H            2.056594478519    -1.605683495247     1.711125672490     1.007825032230
         H            3.465131478519    -1.418682495247     0.617280672490     1.007825032230

  Basis Set: AUG-CC-PVTZ
    Blend: AUG-CC-PVTZ
  Basis Set: (AUG-CC-PVTZ AUX)
    Blend: AUG-CC-PVTZ-JKFIT
	 Reference Energy          =    -841.4975676471982524 [Eh]
	 Singles Energy            =      -0.0000000000000000 [Eh]
	 Same-Spin Energy          =      -0.4744063458578772 [Eh]
	 Opposite-Spin Energy      =      -1.4514867623069512 [Eh]
	 Correlation Energy        =      -1.9258931081648285 [Eh]
	 Total Energy              =    -843.4234607553630667 [Eh]

	 ================> DF-SCS-MP2 Energies <==================
	-----------------------------------------------------------
	 SCS Same-Spin Scale       =       0.3333333333333333 [-]
	 SCS Opposite-Spin Scale   =       1.2000000000000000 [-]
	 SCS Same-Spin Energy      =      -0.1581354486192924 [Eh]
	 SCS Opposite-Spin Energy  =      -1.7417841147683413 [Eh]
	 SCS Correlation Energy    =      -1.8999195633876336 [Eh]
	 SCS Total Energy          =    -843.3974872105858367 [Eh]
	-----------------------------------------------------------

  Dipole Moment: [D]
     X:    -2.2076      Y:    -2.9971      Z:     1.4283     Total:     3.9870

*** Psi4 exiting successfully. Buy a developer a beer!
