                               Psi4 1.4a3.dev225

  ==> Input File <==

--------------------------------------------------------------------------
#psi4
#
memory 32 gb

molecule  {
0 1
 Cl        0.2076870     2.2487580     0.1866360
  O        2.2653220     0.2846580    -0.8778020
  C        0.1642190    -0.4887810    -0.0665560
  C       -0.5729690     0.7033250     0.0302020
  C       -0.5420740    -1.7002010    -0.1332520
  C        1.6632570    -0.5094160    -0.1597980
  C       -1.9684630     0.6780340     0.0679080
  C       -1.9349490    -1.7304420    -0.1201220
  C       -2.6487990    -0.5355840    -0.0206560
  C        2.3930500    -1.5536810     0.6569590
  H        0.0096830    -2.6331730    -0.2140200
  H       -2.5123770     1.6138940     0.1595600
  H       -2.4587670    -2.6802070    -0.1882350
  H       -3.6856592    -0.5431187    -0.0022685
  H        2.2064120    -2.5587800     0.2654600
  H        2.0546340    -1.5354670     1.6969810
  H        3.4631710    -1.3484660     0.6031360
units angstrom
no_reorient  #important for SAPT in psi4, default
symmetry c1  #important for SAPT in psi4, default
}

set PROPERTIES_ORIGIN ["COM"]
properties('MP2/aug-cc-pvtz', properties = ['dipole'])
--------------------------------------------------------------------------

    Molecular point group: c1
  Charge       = 0
  Multiplicity = 1
  Basis Set: AUG-CC-PVTZ
    Blend: AUG-CC-PVTZ
  Basis Set: (AUG-CC-PVTZ AUX)
    Blend: AUG-CC-PVTZ-JKFIT

    Orbital Energies [Eh]
    ---------------------

    Doubly Occupied:

       1A   -104.841042     2A    -20.553241     3A    -11.346183
       4A    -11.320141     5A    -11.270416     6A    -11.267123
       7A    -11.260024     8A    -11.258318     9A    -11.257152
      10A    -11.242996    11A    -10.564822    12A     -8.031718
      13A     -8.029760    14A     -8.029704    15A     -1.384019
      16A     -1.199390    17A     -1.126870    18A     -1.067360
      19A     -1.013058    20A     -1.000195    21A     -0.879288
      22A     -0.838118    23A     -0.772401    24A     -0.707822
      25A     -0.669846    26A     -0.666630    27A     -0.634406
      28A     -0.621644    29A     -0.604069    30A     -0.593605
      31A     -0.565436    32A     -0.553242    33A     -0.538090
      34A     -0.524261    35A     -0.497648    36A     -0.473420
      37A     -0.457810    38A     -0.419791    39A     -0.361701
      40A     -0.344179

  @DF-RHF Final Energy:  -841.52611435643655

   => Energetics <=

    Nuclear Repulsion Energy =            563.8906148954022228
    One-Electron Energy =               -2273.2595786199494796
    Two-Electron Energy =                 867.8428493681107057
    Total Energy =                       -841.5261143564365511
  Basis Set: (AUG-CC-PVTZ AUX)
    Blend: AUG-CC-PVTZ-RI
    Molecular point group: c1

    Geometry (in Angstrom), charge = 0, multiplicity = 1:

       Center              X                  Y                   Z               Mass
    ------------   -----------------  -----------------  -----------------  -----------------
         CL           0.199861012845     2.172224942300     0.200393621930    34.968852682000
         O            2.257496012845     0.208124942300    -0.864044378070    15.994914619570
         C            0.156393012845    -0.565314057700    -0.052798378070    12.000000000000
         C           -0.580794987155     0.626791942300     0.043959621930    12.000000000000
         C           -0.549899987155    -1.776734057700    -0.119494378070    12.000000000000
         C            1.655431012845    -0.585949057700    -0.146040378070    12.000000000000
         C           -1.976288987155     0.601500942300     0.081665621930    12.000000000000
         C           -1.942774987155    -1.806975057700    -0.106364378070    12.000000000000
         C           -2.656624987155    -0.612117057700    -0.006898378070    12.000000000000
         C            2.385224012845    -1.630214057700     0.670716621930    12.000000000000
         H            0.001857012845    -2.709706057700    -0.200262378070     1.007825032230
         H           -2.520202987155     1.537360942300     0.173317621930     1.007825032230
         H           -2.466592987155    -2.756740057700    -0.174477378070     1.007825032230
         H           -3.693485187155    -0.619651757700     0.011489121930     1.007825032230
         H            2.198586012845    -2.635313057700     0.279217621930     1.007825032230
         H            2.046808012845    -1.612000057700     1.710738621930     1.007825032230
         H            3.455345012845    -1.424999057700     0.616893621930     1.007825032230

  Basis Set: AUG-CC-PVTZ
    Blend: AUG-CC-PVTZ
  Basis Set: (AUG-CC-PVTZ AUX)
    Blend: AUG-CC-PVTZ-JKFIT
	 Reference Energy          =    -841.5261143564365511 [Eh]
	 Singles Energy            =      -0.0000000000000000 [Eh]
	 Same-Spin Energy          =      -0.4741456478805044 [Eh]
	 Opposite-Spin Energy      =      -1.4488143314618886 [Eh]
	 Correlation Energy        =      -1.9229599793423930 [Eh]
	 Total Energy              =    -843.4490743357789597 [Eh]

	 ================> DF-SCS-MP2 Energies <==================
	-----------------------------------------------------------
	 SCS Same-Spin Scale       =       0.3333333333333333 [-]
	 SCS Opposite-Spin Scale   =       1.2000000000000000 [-]
	 SCS Same-Spin Energy      =      -0.1580485492935015 [Eh]
	 SCS Opposite-Spin Energy  =      -1.7385771977542663 [Eh]
	 SCS Correlation Energy    =      -1.8966257470477679 [Eh]
	 SCS Total Energy          =    -843.4227401034843297 [Eh]
	-----------------------------------------------------------

  Dipole Moment: [D]
     X:    -2.2170      Y:    -2.9930      Z:     1.4273     Total:     3.9888

*** Psi4 exiting successfully. Buy a developer a beer!
