                               Psi4 1.4a3.dev225

  ==> Input File <==

--------------------------------------------------------------------------
#psi4
#
memory 32 gb

molecule  {
0 1
 Cl        0.2076870     2.2487580     0.1866360
  O        2.2653220     0.2846580    -0.8778020
  C        0.1642190    -0.4887810    -0.0665560
  C       -0.5729690     0.7033250     0.0302020
  C       -0.5420740    -1.7002010    -0.1332520
  C        1.6632570    -0.5094160    -0.1597980
  C       -1.9684630     0.6780340     0.0679080
  C       -2.1348930    -1.7347830    -0.1182372
  C       -2.6487990    -0.5355840    -0.0206560
  C        2.3930500    -1.5536810     0.6569590
  H        0.0096830    -2.6331730    -0.2140200
  H       -2.5123770     1.6138940     0.1595600
  H       -2.4587670    -2.6802070    -0.1882350
  H       -3.7356500    -0.5434820    -0.0013820
  H        2.2064120    -2.5587800     0.2654600
  H        2.0546340    -1.5354670     1.6969810
  H        3.4631710    -1.3484660     0.6031360
units angstrom
no_reorient  #important for SAPT in psi4, default
symmetry c1  #important for SAPT in psi4, default
}

set PROPERTIES_ORIGIN ["COM"]
properties('MP2/aug-cc-pvtz', properties = ['dipole'])
--------------------------------------------------------------------------

    Molecular point group: c1
  Charge       = 0
  Multiplicity = 1
  Basis Set: AUG-CC-PVTZ
    Blend: AUG-CC-PVTZ
  Basis Set: (AUG-CC-PVTZ AUX)
    Blend: AUG-CC-PVTZ-JKFIT

    Orbital Energies [Eh]
    ---------------------

    Doubly Occupied:

       1A   -104.841612     2A    -20.553495     3A    -11.346827
       4A    -11.321585     5A    -11.284940     6A    -11.271525
       7A    -11.261464     8A    -11.259694     9A    -11.254100
      10A    -11.242885    11A    -10.565371    12A     -8.032265
      13A     -8.030309    14A     -8.030251    15A     -1.384454
      16A     -1.195946    17A     -1.123656    18A     -1.071963
      19A     -1.006399    20A     -1.000254    21A     -0.869809
      22A     -0.845142    23A     -0.778977    24A     -0.705482
      25A     -0.673313    26A     -0.661016    27A     -0.646247
      28A     -0.621712    29A     -0.609016    30A     -0.590220
      31A     -0.560843    32A     -0.547710    33A     -0.541116
      34A     -0.500840    35A     -0.499831    36A     -0.471216
      37A     -0.458385    38A     -0.416967    39A     -0.372586
      40A     -0.333763

  @DF-RHF Final Energy:  -841.48550037470079

   => Energetics <=

    Nuclear Repulsion Energy =            561.2932464971459012
    One-Electron Energy =               -2267.9911258147499211
    Two-Electron Energy =                 865.2123789429032286
    Total Energy =                       -841.4855003747007913
  Basis Set: (AUG-CC-PVTZ AUX)
    Blend: AUG-CC-PVTZ-RI
    Molecular point group: c1

    Geometry (in Angstrom), charge = 0, multiplicity = 1:

       Center              X                  Y                   Z               Mass
    ------------   -----------------  -----------------  -----------------  -----------------
         CL           0.215766305411     2.172565538581     0.200240971239    34.968852682000
         O            2.273401305411     0.208465538581    -0.864197028761    15.994914619570
         C            0.172298305411    -0.564973461419    -0.052951028761    12.000000000000
         C           -0.564889694589     0.627132538581     0.043806971239    12.000000000000
         C           -0.533994694589    -1.776393461419    -0.119647028761    12.000000000000
         C            1.671336305411    -0.585608461419    -0.146193028761    12.000000000000
         C           -1.960383694589     0.601841538581     0.081512971239    12.000000000000
         C           -2.126813694589    -1.810975461419    -0.104632228761    12.000000000000
         C           -2.640719694589    -0.611776461419    -0.007051028761    12.000000000000
         C            2.401129305411    -1.629873461419     0.670563971239    12.000000000000
         H            0.017762305411    -2.709365461419    -0.200415028761     1.007825032230
         H           -2.504297694589     1.537701538581     0.173164971239     1.007825032230
         H           -2.450687694589    -2.756399461419    -0.174630028761     1.007825032230
         H           -3.727570694589    -0.619674461419     0.012222971239     1.007825032230
         H            2.214491305411    -2.634972461419     0.279064971239     1.007825032230
         H            2.062713305411    -1.611659461419     1.710585971239     1.007825032230
         H            3.471250305411    -1.424658461419     0.616740971239     1.007825032230

  Basis Set: AUG-CC-PVTZ
    Blend: AUG-CC-PVTZ
  Basis Set: (AUG-CC-PVTZ AUX)
    Blend: AUG-CC-PVTZ-JKFIT
	 Reference Energy          =    -841.4855003747007913 [Eh]
	 Singles Energy            =      -0.0000000000000000 [Eh]
	 Same-Spin Energy          =      -0.4736772443255456 [Eh]
	 Opposite-Spin Energy      =      -1.4515715290132727 [Eh]
	 Correlation Energy        =      -1.9252487733388184 [Eh]
	 Total Energy              =    -843.4107491480395993 [Eh]

	 ================> DF-SCS-MP2 Energies <==================
	-----------------------------------------------------------
	 SCS Same-Spin Scale       =       0.3333333333333333 [-]
	 SCS Opposite-Spin Scale   =       1.2000000000000000 [-]
	 SCS Same-Spin Energy      =      -0.1578924147751819 [Eh]
	 SCS Opposite-Spin Energy  =      -1.7418858348159272 [Eh]
	 SCS Correlation Energy    =      -1.8997782495911091 [Eh]
	 SCS Total Energy          =    -843.3852786242919137 [Eh]
	-----------------------------------------------------------

  Dipole Moment: [D]
     X:    -2.1321      Y:    -3.0489      Z:     1.4204     Total:     3.9824

*** Psi4 exiting successfully. Buy a developer a beer!
