                               Psi4 1.4a3.dev225

  ==> Input File <==

--------------------------------------------------------------------------
#psi4
#
memory 32 gb

molecule  {
0 1
 Cl        0.2076870     2.2487580     0.1866360
  O        2.2653220     0.2846580    -0.8778020
  C        0.1642190    -0.4887810    -0.0665560
  C       -0.5729690     0.7033250     0.0302020
  C       -0.5420740    -1.7002010    -0.1332520
  C        1.6262167    -0.5878208    -0.2201157
  C       -1.9684630     0.6780340     0.0679080
  C       -1.9349490    -1.7304420    -0.1201220
  C       -2.6487990    -0.5355840    -0.0206560
  C        2.3930500    -1.5536810     0.6569590
  H        0.0096830    -2.6331730    -0.2140200
  H       -2.5123770     1.6138940     0.1595600
  H       -2.4587670    -2.6802070    -0.1882350
  H       -3.7356500    -0.5434820    -0.0013820
  H        2.2064120    -2.5587800     0.2654600
  H        2.0546340    -1.5354670     1.6969810
  H        3.4631710    -1.3484660     0.6031360
units angstrom
no_reorient  #important for SAPT in psi4, default
symmetry c1  #important for SAPT in psi4, default
}

set PROPERTIES_ORIGIN ["COM"]
properties('MP2/aug-cc-pvtz', properties = ['dipole'])
--------------------------------------------------------------------------

    Molecular point group: c1
  Charge       = 0
  Multiplicity = 1
  Basis Set: AUG-CC-PVTZ
    Blend: AUG-CC-PVTZ
  Basis Set: (AUG-CC-PVTZ AUX)
    Blend: AUG-CC-PVTZ-JKFIT

    Orbital Energies [Eh]
    ---------------------

    Doubly Occupied:

       1A   -104.841437     2A    -20.550090     3A    -11.347860
       4A    -11.323951     5A    -11.271357     6A    -11.268964
       7A    -11.266466     8A    -11.262019     9A    -11.259056
      10A    -11.244475    11A    -10.565140    12A     -8.032036
      13A     -8.030068    14A     -8.030004    15A     -1.359230
      16A     -1.201207    17A     -1.128032    18A     -1.071556
      19A     -1.014029    20A     -1.000582    21A     -0.880027
      22A     -0.842334    23A     -0.773671    24A     -0.703377
      25A     -0.670315    26A     -0.662145    27A     -0.633456
      28A     -0.613288    29A     -0.604771    30A     -0.593848
      31A     -0.564706    32A     -0.551712    33A     -0.535935
      34A     -0.524325    35A     -0.486630    36A     -0.472984
      37A     -0.456433    38A     -0.420717    39A     -0.363336
      40A     -0.345692

  @DF-RHF Final Energy:  -841.51540272037471

   => Energetics <=

    Nuclear Repulsion Energy =            563.2840473984753089
    One-Electron Energy =               -2272.0643817537356881
    Two-Electron Energy =                 867.2649316348857838
    Total Energy =                       -841.5154027203747091
  Basis Set: (AUG-CC-PVTZ AUX)
    Blend: AUG-CC-PVTZ-RI
    Molecular point group: c1

    Geometry (in Angstrom), charge = 0, multiplicity = 1:

       Center              X                  Y                   Z               Mass
    ------------   -----------------  -----------------  -----------------  -----------------
         CL           0.203074038832     2.178336048972     0.205087335760    34.968852682000
         O            2.260709038832     0.214236048972    -0.859350664240    15.994914619570
         C            0.159606038832    -0.559202951028    -0.048104664240    12.000000000000
         C           -0.577581961168     0.632903048972     0.048653335760    12.000000000000
         C           -0.546686961168    -1.770622951028    -0.114800664240    12.000000000000
         C            1.621603738832    -0.658242751028    -0.201664364240    12.000000000000
         C           -1.973075961168     0.607612048972     0.086359335760    12.000000000000
         C           -1.939561961168    -1.800863951028    -0.101670664240    12.000000000000
         C           -2.653411961168    -0.606005951028    -0.002204664240    12.000000000000
         C            2.388437038832    -1.624102951028     0.675410335760    12.000000000000
         H            0.005070038832    -2.703594951028    -0.195568664240     1.007825032230
         H           -2.516989961168     1.543472048972     0.178011335760     1.007825032230
         H           -2.463379961168    -2.750628951028    -0.169783664240     1.007825032230
         H           -3.740262961168    -0.613903951028     0.017069335760     1.007825032230
         H            2.201799038832    -2.629201951028     0.283911335760     1.007825032230
         H            2.050021038832    -1.605888951028     1.715432335760     1.007825032230
         H            3.458558038832    -1.418887951028     0.621587335760     1.007825032230

  Basis Set: AUG-CC-PVTZ
    Blend: AUG-CC-PVTZ
  Basis Set: (AUG-CC-PVTZ AUX)
    Blend: AUG-CC-PVTZ-JKFIT
	 Reference Energy          =    -841.5154027203747091 [Eh]
	 Singles Energy            =      -0.0000000000000000 [Eh]
	 Same-Spin Energy          =      -0.4757090781785267 [Eh]
	 Opposite-Spin Energy      =      -1.4524464916956166 [Eh]
	 Correlation Energy        =      -1.9281555698741433 [Eh]
	 Total Energy              =    -843.4435582902488022 [Eh]

	 ================> DF-SCS-MP2 Energies <==================
	-----------------------------------------------------------
	 SCS Same-Spin Scale       =       0.3333333333333333 [-]
	 SCS Opposite-Spin Scale   =       1.2000000000000000 [-]
	 SCS Same-Spin Energy      =      -0.1585696927261755 [Eh]
	 SCS Opposite-Spin Energy  =      -1.7429357900347398 [Eh]
	 SCS Correlation Energy    =      -1.9015054827609152 [Eh]
	 SCS Total Energy          =    -843.4169082031356766 [Eh]
	-----------------------------------------------------------

  Dipole Moment: [D]
     X:    -2.4239      Y:    -3.0400      Z:     1.4498     Total:     4.1495

*** Psi4 exiting successfully. Buy a developer a beer!
