                               Psi4 1.4a3.dev225

  ==> Input File <==

--------------------------------------------------------------------------
#psi4
#
memory 32 gb

molecule  {
0 1
 Cl        0.2076870     2.2487580     0.1866360
  O        2.2653220     0.2846580    -0.8778020
  C        0.1642190    -0.4887810    -0.0665560
  C       -0.5729690     0.7033250     0.0302020
  C       -0.6426952    -1.8727846    -0.1427538
  C        1.6632570    -0.5094160    -0.1597980
  C       -1.9684630     0.6780340     0.0679080
  C       -1.9349490    -1.7304420    -0.1201220
  C       -2.6487990    -0.5355840    -0.0206560
  C        2.3930500    -1.5536810     0.6569590
  H        0.0096830    -2.6331730    -0.2140200
  H       -2.5123770     1.6138940     0.1595600
  H       -2.4587670    -2.6802070    -0.1882350
  H       -3.7356500    -0.5434820    -0.0013820
  H        2.2064120    -2.5587800     0.2654600
  H        2.0546340    -1.5354670     1.6969810
  H        3.4631710    -1.3484660     0.6031360
units angstrom
no_reorient  #important for SAPT in psi4, default
symmetry c1  #important for SAPT in psi4, default
}

set PROPERTIES_ORIGIN ["COM"]
properties('MP2/aug-cc-pvtz', properties = ['dipole'])
--------------------------------------------------------------------------

    Molecular point group: c1
  Charge       = 0
  Multiplicity = 1
  Basis Set: AUG-CC-PVTZ
    Blend: AUG-CC-PVTZ
  Basis Set: (AUG-CC-PVTZ AUX)
    Blend: AUG-CC-PVTZ-JKFIT

    Orbital Energies [Eh]
    ---------------------

    Doubly Occupied:

       1A   -104.841349     2A    -20.551763     3A    -11.345337
       4A    -11.320911     5A    -11.281273     6A    -11.268387
       7A    -11.266181     8A    -11.263795     9A    -11.250487
      10A    -11.243348    11A    -10.565138    12A     -8.032029
      13A     -8.030064    14A     -8.030009    15A     -1.382467
      16A     -1.193911    17A     -1.130390    18A     -1.053126
      19A     -1.028798    20A     -0.993202    21A     -0.887269
      22A     -0.834659    23A     -0.764622    24A     -0.713113
      25A     -0.682558    26A     -0.663781    27A     -0.627755
      28A     -0.614027    29A     -0.605280    30A     -0.596446
      31A     -0.569672    32A     -0.555758    33A     -0.541037
      34A     -0.510342    35A     -0.481772    36A     -0.477476
      37A     -0.455453    38A     -0.418358    39A     -0.364703
      40A     -0.340082

  @DF-RHF Final Energy:  -841.48600588733541

   => Energetics <=

    Nuclear Repulsion Energy =            560.7365279957688244
    One-Electron Energy =               -2266.8928100364523743
    Two-Electron Energy =                 864.6702761533480270
    Total Energy =                       -841.4860058873354092
  Basis Set: (AUG-CC-PVTZ AUX)
    Blend: AUG-CC-PVTZ-RI
    Molecular point group: c1

    Geometry (in Angstrom), charge = 0, multiplicity = 1:

       Center              X                  Y                   Z               Mass
    ------------   -----------------  -----------------  -----------------  -----------------
         CL           0.208027798213     2.185673773258     0.201128131952    34.968852682000
         O            2.265662798213     0.221573773258    -0.863309868048    15.994914619570
         C            0.164559798213    -0.551865226742    -0.052063868048    12.000000000000
         C           -0.572628201787     0.640240773258     0.044694131952    12.000000000000
         C           -0.642354401787    -1.935868826742    -0.128261668048    12.000000000000
         C            1.663597798213    -0.572500226742    -0.145305868048    12.000000000000
         C           -1.968122201787     0.614949773258     0.082400131952    12.000000000000
         C           -1.934608201787    -1.793526226742    -0.105629868048    12.000000000000
         C           -2.648458201787    -0.598668226742    -0.006163868048    12.000000000000
         C            2.393390798213    -1.616765226742     0.671451131952    12.000000000000
         H            0.010023798213    -2.696257226742    -0.199527868048     1.007825032230
         H           -2.512036201787     1.550809773258     0.174052131952     1.007825032230
         H           -2.458426201787    -2.743291226742    -0.173742868048     1.007825032230
         H           -3.735309201787    -0.606566226742     0.013110131952     1.007825032230
         H            2.206752798213    -2.621864226742     0.279952131952     1.007825032230
         H            2.054974798213    -1.598551226742     1.711473131952     1.007825032230
         H            3.463511798213    -1.411550226742     0.617628131952     1.007825032230

  Basis Set: AUG-CC-PVTZ
    Blend: AUG-CC-PVTZ
  Basis Set: (AUG-CC-PVTZ AUX)
    Blend: AUG-CC-PVTZ-JKFIT
	 Reference Energy          =    -841.4860058873354092 [Eh]
	 Singles Energy            =      -0.0000000000000000 [Eh]
	 Same-Spin Energy          =      -0.4739663449685022 [Eh]
	 Opposite-Spin Energy      =      -1.4515028101381076 [Eh]
	 Correlation Energy        =      -1.9254691551066099 [Eh]
	 Total Energy              =    -843.4114750424420208 [Eh]

	 ================> DF-SCS-MP2 Energies <==================
	-----------------------------------------------------------
	 SCS Same-Spin Scale       =       0.3333333333333333 [-]
	 SCS Opposite-Spin Scale   =       1.2000000000000000 [-]
	 SCS Same-Spin Energy      =      -0.1579887816561674 [Eh]
	 SCS Opposite-Spin Energy  =      -1.7418033721657291 [Eh]
	 SCS Correlation Energy    =      -1.8997921538218965 [Eh]
	 SCS Total Energy          =    -843.3857980411572726 [Eh]
	-----------------------------------------------------------

  Dipole Moment: [D]
     X:    -2.2738      Y:    -2.9971      Z:     1.4315     Total:     4.0252

*** Psi4 exiting successfully. Buy a developer a beer!
