                               Psi4 1.4a3.dev225

  ==> Input File <==

--------------------------------------------------------------------------
#psi4
#
memory 32 gb

molecule  {
0 1
 Cl        0.2076870     2.2487580     0.1866360
  O        2.2653220     0.2846580    -0.8778020
  C        0.1642190    -0.4887810    -0.0665560
  C       -0.5729690     0.7033250     0.0302020
  C       -0.5420740    -1.7002010    -0.1332520
  C        1.6632570    -0.5094160    -0.1597980
  C       -1.9684630     0.6780340     0.0679080
  C       -1.9349490    -1.7304420    -0.1201220
  C       -2.6065228    -0.5114394    -0.0192151
  C        2.3930500    -1.5536810     0.6569590
  H        0.0096830    -2.6331730    -0.2140200
  H       -2.5123770     1.6138940     0.1595600
  H       -2.4587670    -2.6802070    -0.1882350
  H       -3.7356500    -0.5434820    -0.0013820
  H        2.2064120    -2.5587800     0.2654600
  H        2.0546340    -1.5354670     1.6969810
  H        3.4631710    -1.3484660     0.6031360
units angstrom
no_reorient  #important for SAPT in psi4, default
symmetry c1  #important for SAPT in psi4, default
}

set PROPERTIES_ORIGIN ["COM"]
properties('MP2/aug-cc-pvtz', properties = ['dipole'])
--------------------------------------------------------------------------

    Molecular point group: c1
  Charge       = 0
  Multiplicity = 1
  Basis Set: AUG-CC-PVTZ
    Blend: AUG-CC-PVTZ
  Basis Set: (AUG-CC-PVTZ AUX)
    Blend: AUG-CC-PVTZ-JKFIT

    Orbital Energies [Eh]
    ---------------------

    Doubly Occupied:

       1A   -104.841623     2A    -20.553038     3A    -11.346076
       4A    -11.321189     5A    -11.269582     6A    -11.267071
       7A    -11.262449     8A    -11.257567     9A    -11.255510
      10A    -11.242965    11A    -10.565408    12A     -8.032300
      13A     -8.030349    14A     -8.030289    15A     -1.383862
      16A     -1.202592    17A     -1.128063    18A     -1.069268
      19A     -1.016150    20A     -0.998985    21A     -0.872498
      22A     -0.840639    23A     -0.772142    24A     -0.702884
      25A     -0.671442    26A     -0.658489    27A     -0.636106
      28A     -0.622376    29A     -0.606918    30A     -0.593987
      31A     -0.563209    32A     -0.551209    33A     -0.529423
      34A     -0.527277    35A     -0.497747    36A     -0.474842
      37A     -0.458177    38A     -0.419486    39A     -0.366575
      40A     -0.343297

  @DF-RHF Final Energy:  -841.52411887097878

   => Energetics <=

    Nuclear Repulsion Energy =            564.5705025769487975
    One-Electron Energy =               -2274.6231216723240323
    Two-Electron Energy =                 868.5285002243963390
    Total Energy =                       -841.5241188709787821
  Basis Set: (AUG-CC-PVTZ AUX)
    Blend: AUG-CC-PVTZ-RI
    Molecular point group: c1

    Geometry (in Angstrom), charge = 0, multiplicity = 1:

       Center              X                  Y                   Z               Mass
    ------------   -----------------  -----------------  -----------------  -----------------
         CL           0.196894276419     2.170346148666     0.200275556685    34.968852682000
         O            2.254529276419     0.206246148666    -0.864162443315    15.994914619570
         C            0.153426276419    -0.567192851334    -0.052916443315    12.000000000000
         C           -0.583761723581     0.624913148666     0.043841556685    12.000000000000
         C           -0.552866723581    -1.778612851334    -0.119612443315    12.000000000000
         C            1.652464276419    -0.587827851334    -0.146158443315    12.000000000000
         C           -1.979255723581     0.599622148666     0.081547556685    12.000000000000
         C           -1.945741723581    -1.808853851334    -0.106482443315    12.000000000000
         C           -2.617315523581    -0.589851251334    -0.005575543315    12.000000000000
         C            2.382257276419    -1.632092851334     0.670598556685    12.000000000000
         H           -0.001109723581    -2.711584851334    -0.200380443315     1.007825032230
         H           -2.523169723581     1.535482148666     0.173199556685     1.007825032230
         H           -2.469559723581    -2.758618851334    -0.174595443315     1.007825032230
         H           -3.746442723581    -0.621893851334     0.012257556685     1.007825032230
         H            2.195619276419    -2.637191851334     0.279099556685     1.007825032230
         H            2.043841276419    -1.613878851334     1.710620556685     1.007825032230
         H            3.452378276419    -1.426877851334     0.616775556685     1.007825032230

  Basis Set: AUG-CC-PVTZ
    Blend: AUG-CC-PVTZ
  Basis Set: (AUG-CC-PVTZ AUX)
    Blend: AUG-CC-PVTZ-JKFIT
	 Reference Energy          =    -841.5241188709787821 [Eh]
	 Singles Energy            =      -0.0000000000000000 [Eh]
	 Same-Spin Energy          =      -0.4742965678781710 [Eh]
	 Opposite-Spin Energy      =      -1.4490518300621762 [Eh]
	 Correlation Energy        =      -1.9233483979403472 [Eh]
	 Total Energy              =    -843.4474672689191266 [Eh]

	 ================> DF-SCS-MP2 Energies <==================
	-----------------------------------------------------------
	 SCS Same-Spin Scale       =       0.3333333333333333 [-]
	 SCS Opposite-Spin Scale   =       1.2000000000000000 [-]
	 SCS Same-Spin Energy      =      -0.1580988559593903 [Eh]
	 SCS Opposite-Spin Energy  =      -1.7388621960746113 [Eh]
	 SCS Correlation Energy    =      -1.8969610520340017 [Eh]
	 SCS Total Energy          =    -843.4210799230128259 [Eh]
	-----------------------------------------------------------

  Dipole Moment: [D]
     X:    -2.1822      Y:    -2.9919      Z:     1.4266     Total:     3.9685

*** Psi4 exiting successfully. Buy a developer a beer!
