                               Psi4 1.4a3.dev225

  ==> Input File <==

--------------------------------------------------------------------------
#psi4
#
memory 32 gb

molecule  {
0 1
 Cl        0.2076870     2.2487580     0.1866360
  O        2.2653220     0.2846580    -0.8778020
  C        0.1642190    -0.4887810    -0.0665560
  C       -0.4831592     0.8811179     0.0481988
  C       -0.5420740    -1.7002010    -0.1332520
  C        1.6632570    -0.5094160    -0.1597980
  C       -1.9684630     0.6780340     0.0679080
  C       -1.9349490    -1.7304420    -0.1201220
  C       -2.6487990    -0.5355840    -0.0206560
  C        2.3930500    -1.5536810     0.6569590
  H        0.0096830    -2.6331730    -0.2140200
  H       -2.5123770     1.6138940     0.1595600
  H       -2.4587670    -2.6802070    -0.1882350
  H       -3.7356500    -0.5434820    -0.0013820
  H        2.2064120    -2.5587800     0.2654600
  H        2.0546340    -1.5354670     1.6969810
  H        3.4631710    -1.3484660     0.6031360
units angstrom
no_reorient  #important for SAPT in psi4, default
symmetry c1  #important for SAPT in psi4, default
}

set PROPERTIES_ORIGIN ["COM"]
properties('MP2/aug-cc-pvtz', properties = ['dipole'])
--------------------------------------------------------------------------

    Molecular point group: c1
  Charge       = 0
  Multiplicity = 1
  Basis Set: AUG-CC-PVTZ
    Blend: AUG-CC-PVTZ
  Basis Set: (AUG-CC-PVTZ AUX)
    Blend: AUG-CC-PVTZ-JKFIT

    Orbital Energies [Eh]
    ---------------------

    Doubly Occupied:

       1A   -104.862378     2A    -20.548399     3A    -11.339082
       4A    -11.331641     5A    -11.273495     6A    -11.263339
       7A    -11.262712     8A    -11.259050     9A    -11.251958
      10A    -11.238454    11A    -10.590829    12A     -8.058383
      13A     -8.055464    14A     -8.055320    15A     -1.380257
      16A     -1.237487    17A     -1.142824    18A     -1.055124
      19A     -1.003383    20A     -0.984186    21A     -0.863614
      22A     -0.827218    23A     -0.758042    24A     -0.704512
      25A     -0.674603    26A     -0.662433    27A     -0.629929
      28A     -0.619568    29A     -0.607784    30A     -0.592184
      31A     -0.566393    32A     -0.559306    33A     -0.541133
      34A     -0.531970    35A     -0.495568    36A     -0.479245
      37A     -0.463748    38A     -0.407806    39A     -0.354834
      40A     -0.316531

  @DF-RHF Final Energy:  -841.47540467477529

   => Energetics <=

    Nuclear Repulsion Energy =            564.0617098994157459
    One-Electron Energy =               -2273.3738600578485602
    Two-Electron Energy =                 867.8367454836575234
    Total Energy =                       -841.4754046747752909
  Basis Set: (AUG-CC-PVTZ AUX)
    Blend: AUG-CC-PVTZ-RI
    Molecular point group: c1

    Geometry (in Angstrom), charge = 0, multiplicity = 1:

       Center              X                  Y                   Z               Mass
    ------------   -----------------  -----------------  -----------------  -----------------
         CL           0.193190805456     2.158374995260     0.198985641869    34.968852682000
         O            2.250825805456     0.194274995260    -0.865452358131    15.994914619570
         C            0.149722805456    -0.579164004740    -0.054206358131    12.000000000000
         C           -0.497655394544     0.790734895260     0.060548441869    12.000000000000
         C           -0.556570194544    -1.790584004740    -0.120902358131    12.000000000000
         C            1.648760805456    -0.599799004740    -0.147448358131    12.000000000000
         C           -1.982959194544     0.587650995260     0.080257641869    12.000000000000
         C           -1.949445194544    -1.820825004740    -0.107772358131    12.000000000000
         C           -2.663295194544    -0.625967004740    -0.008306358131    12.000000000000
         C            2.378553805456    -1.644064004740     0.669308641869    12.000000000000
         H           -0.004813194544    -2.723556004740    -0.201670358131     1.007825032230
         H           -2.526873194544     1.523510995260     0.171909641869     1.007825032230
         H           -2.473263194544    -2.770590004740    -0.175885358131     1.007825032230
         H           -3.750146194544    -0.633865004740     0.010967641869     1.007825032230
         H            2.191915805456    -2.649163004740     0.277809641869     1.007825032230
         H            2.040137805456    -1.625850004740     1.709330641869     1.007825032230
         H            3.448674805456    -1.438849004740     0.615485641869     1.007825032230

  Basis Set: AUG-CC-PVTZ
    Blend: AUG-CC-PVTZ
  Basis Set: (AUG-CC-PVTZ AUX)
    Blend: AUG-CC-PVTZ-JKFIT
	 Reference Energy          =    -841.4754046747752909 [Eh]
	 Singles Energy            =      -0.0000000000000000 [Eh]
	 Same-Spin Energy          =      -0.4783267946841694 [Eh]
	 Opposite-Spin Energy      =      -1.4545524231390310 [Eh]
	 Correlation Energy        =      -1.9328792178232004 [Eh]
	 Total Energy              =    -843.4082838925985470 [Eh]

	 ================> DF-SCS-MP2 Energies <==================
	-----------------------------------------------------------
	 SCS Same-Spin Scale       =       0.3333333333333333 [-]
	 SCS Opposite-Spin Scale   =       1.2000000000000000 [-]
	 SCS Same-Spin Energy      =      -0.1594422648947231 [Eh]
	 SCS Opposite-Spin Energy  =      -1.7454629077668371 [Eh]
	 SCS Correlation Energy    =      -1.9049051726615602 [Eh]
	 SCS Total Energy          =    -843.3803098474368198 [Eh]
	-----------------------------------------------------------

  Dipole Moment: [D]
     X:    -1.8737      Y:    -2.0380      Z:     1.5315     Total:     3.1637

*** Psi4 exiting successfully. Buy a developer a beer!
