                               Psi4 1.4a3.dev225

  ==> Input File <==

--------------------------------------------------------------------------
#psi4
#
memory 32 gb

molecule  {
0 1
 Cl        0.2076870     2.2487580     0.1866360
  O        2.2653220     0.2846580    -0.8778020
  C        0.1642190    -0.4887810    -0.0665560
  C       -0.5729690     0.7033250     0.0302020
  C       -0.5420740    -1.7002010    -0.1332520
  C        1.6632570    -0.5094160    -0.1597980
  C       -1.9684630     0.6780340     0.0679080
  C       -1.9349490    -1.7304420    -0.1201220
  C       -2.6487990    -0.5355840    -0.0206560
  C        2.3930500    -1.5536810     0.6569590
  H        0.0096830    -2.6331730    -0.2140200
  H       -2.4623073     1.5277439     0.1511230
  H       -2.4587670    -2.6802070    -0.1882350
  H       -3.7356500    -0.5434820    -0.0013820
  H        2.2064120    -2.5587800     0.2654600
  H        2.0546340    -1.5354670     1.6969810
  H        3.4631710    -1.3484660     0.6031360
units angstrom
no_reorient  #important for SAPT in psi4, default
symmetry c1  #important for SAPT in psi4, default
}

set PROPERTIES_ORIGIN ["COM"]
properties('MP2/aug-cc-pvtz', properties = ['dipole'])
--------------------------------------------------------------------------

    Molecular point group: c1
  Charge       = 0
  Multiplicity = 1
  Basis Set: AUG-CC-PVTZ
    Blend: AUG-CC-PVTZ
  Basis Set: (AUG-CC-PVTZ AUX)
    Blend: AUG-CC-PVTZ-JKFIT

    Orbital Energies [Eh]
    ---------------------

    Doubly Occupied:

       1A   -104.841452     2A    -20.553175     3A    -11.346070
       4A    -11.319876     5A    -11.270097     6A    -11.267300
       7A    -11.263380     8A    -11.257583     9A    -11.248787
      10A    -11.242949    11A    -10.565226    12A     -8.032124
      13A     -8.030167    14A     -8.030111    15A     -1.383966
      16A     -1.200021    17A     -1.126692    18A     -1.068067
      19A     -1.015861    20A     -0.999653    21A     -0.878075
      22A     -0.842838    23A     -0.775472    24A     -0.706553
      25A     -0.670217    26A     -0.665424    27A     -0.643426
      28A     -0.622347    29A     -0.604532    30A     -0.594823
      31A     -0.564173    32A     -0.553035    33A     -0.538275
      34A     -0.525941    35A     -0.497942    36A     -0.473592
      37A     -0.458197    38A     -0.419674    39A     -0.361717
      40A     -0.344160

  @DF-RHF Final Energy:  -841.52110948707173

   => Energetics <=

    Nuclear Repulsion Energy =            564.1816130763698993
    One-Electron Energy =               -2273.7995078769495194
    Two-Electron Energy =                 868.0967853135077803
    Total Energy =                       -841.5211094870717261
  Basis Set: (AUG-CC-PVTZ AUX)
    Blend: AUG-CC-PVTZ-RI
    Molecular point group: c1

    Geometry (in Angstrom), charge = 0, multiplicity = 1:

       Center              X                  Y                   Z               Mass
    ------------   -----------------  -----------------  -----------------  -----------------
         CL           0.199860496560     2.172791045373     0.200443028857    34.968852682000
         O            2.257495496560     0.208691045373    -0.863994971143    15.994914619570
         C            0.156392496560    -0.564747954627    -0.052748971143    12.000000000000
         C           -0.580795503440     0.627358045373     0.044009028857    12.000000000000
         C           -0.549900503440    -1.776167954627    -0.119444971143    12.000000000000
         C            1.655430496560    -0.585382954627    -0.145990971143    12.000000000000
         C           -1.976289503440     0.602067045373     0.081715028857    12.000000000000
         C           -1.942775503440    -1.806408954627    -0.106314971143    12.000000000000
         C           -2.656625503440    -0.611550954627    -0.006848971143    12.000000000000
         C            2.385223496560    -1.629647954627     0.670766028857    12.000000000000
         H            0.001856496560    -2.709139954627    -0.200212971143     1.007825032230
         H           -2.470133803440     1.451776945373     0.164930028857     1.007825032230
         H           -2.466593503440    -2.756173954627    -0.174427971143     1.007825032230
         H           -3.743476503440    -0.619448954627     0.012425028857     1.007825032230
         H            2.198585496560    -2.634746954627     0.279267028857     1.007825032230
         H            2.046807496560    -1.611433954627     1.710788028857     1.007825032230
         H            3.455344496560    -1.424432954627     0.616943028857     1.007825032230

  Basis Set: AUG-CC-PVTZ
    Blend: AUG-CC-PVTZ
  Basis Set: (AUG-CC-PVTZ AUX)
    Blend: AUG-CC-PVTZ-JKFIT
	 Reference Energy          =    -841.5211094870717261 [Eh]
	 Singles Energy            =      -0.0000000000000000 [Eh]
	 Same-Spin Energy          =      -0.4740121306465124 [Eh]
	 Opposite-Spin Energy      =      -1.4486313508991893 [Eh]
	 Correlation Energy        =      -1.9226434815457016 [Eh]
	 Total Energy              =    -843.4437529686174457 [Eh]

	 ================> DF-SCS-MP2 Energies <==================
	-----------------------------------------------------------
	 SCS Same-Spin Scale       =       0.3333333333333333 [-]
	 SCS Opposite-Spin Scale   =       1.2000000000000000 [-]
	 SCS Same-Spin Energy      =      -0.1580040435488375 [Eh]
	 SCS Opposite-Spin Energy  =      -1.7383576210790270 [Eh]
	 SCS Correlation Energy    =      -1.8963616646278645 [Eh]
	 SCS Total Energy          =    -843.4174711516996013 [Eh]
	-----------------------------------------------------------

  Dipole Moment: [D]
     X:    -2.2056      Y:    -2.9912      Z:     1.4275     Total:     3.9811

*** Psi4 exiting successfully. Buy a developer a beer!
