                               Psi4 1.4a3.dev225

  ==> Input File <==

--------------------------------------------------------------------------
#psi4
#
memory 32 gb

molecule  {
0 1
 Cl        0.2076870     2.2487580     0.1866360
  O        2.2653220     0.2846580    -0.8778020
  C        0.1642190    -0.4887810    -0.0665560
  C       -0.5729690     0.7033250     0.0302020
  C       -0.5420740    -1.7002010    -0.1332520
  C        1.6632570    -0.5094160    -0.1597980
  C       -1.9684630     0.6780340     0.0679080
  C       -1.9349490    -1.7304420    -0.1201220
  C       -2.6487990    -0.5355840    -0.0206560
  C        2.4026948    -1.5674819     0.6677531
  H        0.0096830    -2.6331730    -0.2140200
  H       -2.5123770     1.6138940     0.1595600
  H       -2.4587670    -2.6802070    -0.1882350
  H       -3.7356500    -0.5434820    -0.0013820
  H        2.2064120    -2.5587800     0.2654600
  H        2.0546340    -1.5354670     1.6969810
  H        3.4631710    -1.3484660     0.6031360
units angstrom
no_reorient  #important for SAPT in psi4, default
symmetry c1  #important for SAPT in psi4, default
}

set PROPERTIES_ORIGIN ["COM"]
properties('MP2/aug-cc-pvtz', properties = ['dipole'])
--------------------------------------------------------------------------

    Molecular point group: c1
  Charge       = 0
  Multiplicity = 1
  Basis Set: AUG-CC-PVTZ
    Blend: AUG-CC-PVTZ
  Basis Set: (AUG-CC-PVTZ AUX)
    Blend: AUG-CC-PVTZ-JKFIT

    Orbital Energies [Eh]
    ---------------------

    Doubly Occupied:

       1A   -104.841295     2A    -20.553716     3A    -11.347120
       4A    -11.320500     5A    -11.270684     6A    -11.267514
       7A    -11.264017     8A    -11.260162     9A    -11.258082
      10A    -11.242421    11A    -10.565073    12A     -8.031969
      13A     -8.030009    14A     -8.029953    15A     -1.383880
      16A     -1.199523    17A     -1.126794    18A     -1.065533
      19A     -1.012549    20A     -0.998939    21A     -0.876515
      22A     -0.838080    23A     -0.771659    24A     -0.703496
      25A     -0.668825    26A     -0.663212    27A     -0.634259
      28A     -0.620153    29A     -0.604262    30A     -0.594035
      31A     -0.567227    32A     -0.552248    33A     -0.537041
      34A     -0.524622    35A     -0.498993    36A     -0.473705
      37A     -0.457714    38A     -0.418311    39A     -0.361945
      40A     -0.344458

  @DF-RHF Final Energy:  -841.52668247793895

   => Energetics <=

    Nuclear Repulsion Energy =            563.2438416016918836
    One-Electron Energy =               -2271.9800646815110667
    Two-Electron Energy =                 867.2095406018802350
    Total Energy =                       -841.5266824779389481
  Basis Set: (AUG-CC-PVTZ AUX)
    Blend: AUG-CC-PVTZ-RI
    Molecular point group: c1

    Geometry (in Angstrom), charge = 0, multiplicity = 1:

       Center              X                  Y                   Z               Mass
    ------------   -----------------  -----------------  -----------------  -----------------
         CL           0.199436676792     2.173302584902     0.199546823650    34.968852682000
         O            2.257071676792     0.209202584902    -0.864891176350    15.994914619570
         C            0.155968676792    -0.564236415098    -0.053645176350    12.000000000000
         C           -0.581219323208     0.627869584902     0.043112823650    12.000000000000
         C           -0.550324323208    -1.775656415098    -0.120341176350    12.000000000000
         C            1.655006676792    -0.584871415098    -0.146887176350    12.000000000000
         C           -1.976713323208     0.602578584902     0.080818823650    12.000000000000
         C           -1.943199323208    -1.805897415098    -0.107211176350    12.000000000000
         C           -2.657049323208    -0.611039415098    -0.007745176350    12.000000000000
         C            2.394444476792    -1.642937315098     0.680663923650    12.000000000000
         H            0.001432676792    -2.708628415098    -0.201109176350     1.007825032230
         H           -2.520627323208     1.538438584902     0.172470823650     1.007825032230
         H           -2.467017323208    -2.755662415098    -0.175324176350     1.007825032230
         H           -3.743900323208    -0.618937415098     0.011528823650     1.007825032230
         H            2.198161676792    -2.634235415098     0.278370823650     1.007825032230
         H            2.046383676792    -1.610922415098     1.709891823650     1.007825032230
         H            3.454920676792    -1.423921415098     0.616046823650     1.007825032230

  Basis Set: AUG-CC-PVTZ
    Blend: AUG-CC-PVTZ
  Basis Set: (AUG-CC-PVTZ AUX)
    Blend: AUG-CC-PVTZ-JKFIT
	 Reference Energy          =    -841.5266824779389481 [Eh]
	 Singles Energy            =      -0.0000000000000000 [Eh]
	 Same-Spin Energy          =      -0.4741145395697073 [Eh]
	 Opposite-Spin Energy      =      -1.4490768392369366 [Eh]
	 Correlation Energy        =      -1.9231913788066439 [Eh]
	 Total Energy              =    -843.4498738567456257 [Eh]

	 ================> DF-SCS-MP2 Energies <==================
	-----------------------------------------------------------
	 SCS Same-Spin Scale       =       0.3333333333333333 [-]
	 SCS Opposite-Spin Scale   =       1.2000000000000000 [-]
	 SCS Same-Spin Energy      =      -0.1580381798565691 [Eh]
	 SCS Opposite-Spin Energy  =      -1.7388922070843240 [Eh]
	 SCS Correlation Energy    =      -1.8969303869408931 [Eh]
	 SCS Total Energy          =    -843.4236128648798285 [Eh]
	-----------------------------------------------------------

  Dipole Moment: [D]
     X:    -2.2253      Y:    -2.9637      Z:     1.4083     Total:     3.9647

*** Psi4 exiting successfully. Buy a developer a beer!
