                               Psi4 1.4a3.dev225

  ==> Input File <==

--------------------------------------------------------------------------
#psi4
#
memory 32 gb

molecule  {
0 1
 Cl        0.2076870     2.2487580     0.1866360
  O        2.2653220     0.2846580    -0.8778020
  C        0.1642190    -0.4887810    -0.0665560
  C       -0.5729690     0.7033250     0.0302020
  C       -0.5420740    -1.7002010    -0.1332520
  C        1.6632570    -0.5094160    -0.1597980
  C       -1.9684630     0.6780340     0.0679080
  C       -1.9149546    -1.7300079    -0.1203105
  C       -2.6487990    -0.5355840    -0.0206560
  C        2.3930500    -1.5536810     0.6569590
  H        0.0096830    -2.6331730    -0.2140200
  H       -2.5123770     1.6138940     0.1595600
  H       -2.4587670    -2.6802070    -0.1882350
  H       -3.7356500    -0.5434820    -0.0013820
  H        2.2064120    -2.5587800     0.2654600
  H        2.0546340    -1.5354670     1.6969810
  H        3.4631710    -1.3484660     0.6031360
units angstrom
no_reorient  #important for SAPT in psi4, default
symmetry c1  #important for SAPT in psi4, default
}

set PROPERTIES_ORIGIN ["COM"]
properties('MP2/aug-cc-pvtz', properties = ['dipole'])
--------------------------------------------------------------------------

    Molecular point group: c1
  Charge       = 0
  Multiplicity = 1
  Basis Set: AUG-CC-PVTZ
    Blend: AUG-CC-PVTZ
  Basis Set: (AUG-CC-PVTZ AUX)
    Blend: AUG-CC-PVTZ-JKFIT

    Orbital Energies [Eh]
    ---------------------

    Doubly Occupied:

       1A   -104.841258     2A    -20.553237     3A    -11.346151
       4A    -11.320408     5A    -11.270277     6A    -11.265031
       7A    -11.264915     8A    -11.260147     9A    -11.257596
      10A    -11.243052    11A    -10.565034    12A     -8.031930
      13A     -8.029970    14A     -8.029914    15A     -1.384008
      16A     -1.200049    17A     -1.127597    18A     -1.065882
      19A     -1.015010    20A     -0.999144    21A     -0.877016
      22A     -0.836890    23A     -0.771401    24A     -0.704294
      25A     -0.669724    26A     -0.663947    27A     -0.633303
      28A     -0.621689    29A     -0.603103    30A     -0.594173
      31A     -0.564735    32A     -0.553009    33A     -0.537590
      34A     -0.521910    35A     -0.497127    36A     -0.474229
      37A     -0.457914    38A     -0.419930    39A     -0.362174
      40A     -0.344736

  @DF-RHF Final Energy:  -841.52645816667064

   => Energetics <=

    Nuclear Repulsion Energy =            563.8737867485639299
    One-Electron Energy =               -2273.2414832815065893
    Two-Electron Energy =                 867.8412383662721368
    Total Energy =                       -841.5264581666706363
  Basis Set: (AUG-CC-PVTZ AUX)
    Blend: AUG-CC-PVTZ-RI
    Molecular point group: c1

    Geometry (in Angstrom), charge = 0, multiplicity = 1:

       Center              X                  Y                   Z               Mass
    ------------   -----------------  -----------------  -----------------  -----------------
         CL           0.198630311545     2.172193497663     0.200402507634    34.968852682000
         O            2.256265311545     0.208093497663    -0.864035492366    15.994914619570
         C            0.155162311545    -0.565345502337    -0.052789492366    12.000000000000
         C           -0.582025688455     0.626760497663     0.043968507634    12.000000000000
         C           -0.551130688455    -1.776765502337    -0.119485492366    12.000000000000
         C            1.654200311545    -0.585980502337    -0.146031492366    12.000000000000
         C           -1.977519688455     0.601469497663     0.081674507634    12.000000000000
         C           -1.924011288455    -1.806572402337    -0.106543992366    12.000000000000
         C           -2.657855688455    -0.612148502337    -0.006889492366    12.000000000000
         C            2.383993311545    -1.630245502337     0.670725507634    12.000000000000
         H            0.000626311545    -2.709737502337    -0.200253492366     1.007825032230
         H           -2.521433688455     1.537329497663     0.173326507634     1.007825032230
         H           -2.467823688455    -2.756771502337    -0.174468492366     1.007825032230
         H           -3.744706688455    -0.620046502337     0.012384507634     1.007825032230
         H            2.197355311545    -2.635344502337     0.279226507634     1.007825032230
         H            2.045577311545    -1.612031502337     1.710747507634     1.007825032230
         H            3.454114311545    -1.425030502337     0.616902507634     1.007825032230

  Basis Set: AUG-CC-PVTZ
    Blend: AUG-CC-PVTZ
  Basis Set: (AUG-CC-PVTZ AUX)
    Blend: AUG-CC-PVTZ-JKFIT
	 Reference Energy          =    -841.5264581666706363 [Eh]
	 Singles Energy            =      -0.0000000000000000 [Eh]
	 Same-Spin Energy          =      -0.4742402202326138 [Eh]
	 Opposite-Spin Energy      =      -1.4491017379642825 [Eh]
	 Correlation Energy        =      -1.9233419581968962 [Eh]
	 Total Energy              =    -843.4498001248675791 [Eh]

	 ================> DF-SCS-MP2 Energies <==================
	-----------------------------------------------------------
	 SCS Same-Spin Scale       =       0.3333333333333333 [-]
	 SCS Opposite-Spin Scale   =       1.2000000000000000 [-]
	 SCS Same-Spin Energy      =      -0.1580800734108713 [Eh]
	 SCS Opposite-Spin Energy  =      -1.7389220855571390 [Eh]
	 SCS Correlation Energy    =      -1.8970021589680102 [Eh]
	 SCS Total Energy          =    -843.4234603256386436 [Eh]
	-----------------------------------------------------------

  Dipole Moment: [D]
     X:    -2.2124      Y:    -2.9822      Z:     1.4285     Total:     3.9785

*** Psi4 exiting successfully. Buy a developer a beer!
