                               Psi4 1.4a3.dev225

  ==> Input File <==

--------------------------------------------------------------------------
#psi4
#
memory 32 gb

molecule  {
0 1
 Cl        0.2076870     2.2487580     0.1866360
  O        2.2653220     0.2846580    -0.8778020
  C        0.1642190    -0.4887810    -0.0665560
  C       -0.5729690     0.7033250     0.0302020
  C       -0.5420740    -1.7002010    -0.1332520
  C        1.6632570    -0.5094160    -0.1597980
  C       -1.9684630     0.6780340     0.0679080
  C       -1.9349490    -1.7304420    -0.1201220
  C       -2.6487990    -0.5355840    -0.0206560
  C        2.3930500    -1.5536810     0.6569590
  H        0.0096830    -2.6331730    -0.2140200
  H       -2.5123770     1.6138940     0.1595600
  H       -2.4587670    -2.6802070    -0.1882350
  H       -3.7356500    -0.5434820    -0.0013820
  H        2.1640989    -2.5846278     0.3687588
  H        2.0546340    -1.5354670     1.6969810
  H        3.4631710    -1.3484660     0.6031360
units angstrom
no_reorient  #important for SAPT in psi4, default
symmetry c1  #important for SAPT in psi4, default
}

set PROPERTIES_ORIGIN ["COM"]
properties('MP2/aug-cc-pvtz', properties = ['dipole'])
--------------------------------------------------------------------------

    Molecular point group: c1
  Charge       = 0
  Multiplicity = 1
  Basis Set: AUG-CC-PVTZ
    Blend: AUG-CC-PVTZ
  Basis Set: (AUG-CC-PVTZ AUX)
    Blend: AUG-CC-PVTZ-JKFIT

    Orbital Energies [Eh]
    ---------------------

    Doubly Occupied:

       1A   -104.841257     2A    -20.553892     3A    -11.347210
       4A    -11.320436     5A    -11.270663     6A    -11.267509
       7A    -11.263991     8A    -11.260152     9A    -11.258105
      10A    -11.243167    11A    -10.565033    12A     -8.031929
      13A     -8.029969    14A     -8.029914    15A     -1.384560
      16A     -1.199537    17A     -1.126810    18A     -1.066516
      19A     -1.013190    20A     -0.999804    21A     -0.876510
      22A     -0.838064    23A     -0.772605    24A     -0.705831
      25A     -0.669124    26A     -0.665422    27A     -0.635765
      28A     -0.621188    29A     -0.601438    30A     -0.588915
      31A     -0.568951    32A     -0.551687    33A     -0.536470
      34A     -0.524015    35A     -0.496232    36A     -0.473688
      37A     -0.458300    38A     -0.420765    39A     -0.361954
      40A     -0.344447

  @DF-RHF Final Energy:  -841.52566754355860

   => Energetics <=

    Nuclear Repulsion Energy =            563.5847133654020809
    One-Electron Energy =               -2272.6507272227831891
    Two-Electron Energy =                 867.5403463138226243
    Total Energy =                       -841.5256675435585976
  Basis Set: (AUG-CC-PVTZ AUX)
    Blend: AUG-CC-PVTZ-RI
    Molecular point group: c1

    Geometry (in Angstrom), charge = 0, multiplicity = 1:

       Center              X                  Y                   Z               Mass
    ------------   -----------------  -----------------  -----------------  -----------------
         CL           0.200465006230     2.172396455433     0.199711882241    34.968852682000
         O            2.258100006230     0.208296455433    -0.864726117759    15.994914619570
         C            0.156997006230    -0.565142544567    -0.053480117759    12.000000000000
         C           -0.580190993770     0.626963455433     0.043277882241    12.000000000000
         C           -0.549295993770    -1.776562544567    -0.120176117759    12.000000000000
         C            1.656035006230    -0.585777544567    -0.146722117759    12.000000000000
         C           -1.975684993770     0.601672455433     0.080983882241    12.000000000000
         C           -1.942170993770    -1.806803544567    -0.107046117759    12.000000000000
         C           -2.656020993770    -0.611945544567    -0.007580117759    12.000000000000
         C            2.385828006230    -1.630042544567     0.670034882241    12.000000000000
         H            0.002461006230    -2.709534544567    -0.200944117759     1.007825032230
         H           -2.519598993770     1.537532455433     0.172635882241     1.007825032230
         H           -2.465988993770    -2.756568544567    -0.175159117759     1.007825032230
         H           -3.742871993770    -0.619843544567     0.011693882241     1.007825032230
         H            2.156876906230    -2.660989344567     0.381834682241     1.007825032230
         H            2.047412006230    -1.611828544567     1.710056882241     1.007825032230
         H            3.455949006230    -1.424827544567     0.616211882241     1.007825032230

  Basis Set: AUG-CC-PVTZ
    Blend: AUG-CC-PVTZ
  Basis Set: (AUG-CC-PVTZ AUX)
    Blend: AUG-CC-PVTZ-JKFIT
	 Reference Energy          =    -841.5256675435585976 [Eh]
	 Singles Energy            =      -0.0000000000000000 [Eh]
	 Same-Spin Energy          =      -0.4743285088734582 [Eh]
	 Opposite-Spin Energy      =      -1.4491852293272851 [Eh]
	 Correlation Energy        =      -1.9235137382007435 [Eh]
	 Total Energy              =    -843.4491812817593654 [Eh]

	 ================> DF-SCS-MP2 Energies <==================
	-----------------------------------------------------------
	 SCS Same-Spin Scale       =       0.3333333333333333 [-]
	 SCS Opposite-Spin Scale   =       1.2000000000000000 [-]
	 SCS Same-Spin Energy      =      -0.1581095029578194 [Eh]
	 SCS Opposite-Spin Energy  =      -1.7390222751927420 [Eh]
	 SCS Correlation Energy    =      -1.8971317781505614 [Eh]
	 SCS Total Energy          =    -843.4227993217091353 [Eh]
	-----------------------------------------------------------

  Dipole Moment: [D]
     X:    -2.2275      Y:    -3.0043      Z:     1.4651     Total:     4.0167

*** Psi4 exiting successfully. Buy a developer a beer!
