                               Psi4 1.4a3.dev225

  ==> Input File <==

--------------------------------------------------------------------------
#psi4
#
memory 32 gb

molecule  {
0 1
 Cl        0.2076870     2.2487580     0.1866360
  O        2.2653220     0.2846580    -0.8778020
  C        0.1642190    -0.4887810    -0.0665560
  C       -0.5729690     0.7033250     0.0302020
  C       -0.5420740    -1.7002010    -0.1332520
  C        1.7122756    -0.4447645    -0.2182561
  C       -1.9684630     0.6780340     0.0679080
  C       -1.9349490    -1.7304420    -0.1201220
  C       -2.6487990    -0.5355840    -0.0206560
  C        2.3930500    -1.5536810     0.6569590
  H        0.0096830    -2.6331730    -0.2140200
  H       -2.5123770     1.6138940     0.1595600
  H       -2.4587670    -2.6802070    -0.1882350
  H       -3.7356500    -0.5434820    -0.0013820
  H        2.2064120    -2.5587800     0.2654600
  H        2.0546340    -1.5354670     1.6969810
  H        3.4631710    -1.3484660     0.6031360
units angstrom
no_reorient  #important for SAPT in psi4, default
symmetry c1  #important for SAPT in psi4, default
}

set PROPERTIES_ORIGIN ["COM"]
properties('MP2/aug-cc-pvtz', properties = ['dipole'])
--------------------------------------------------------------------------

    Molecular point group: c1
  Charge       = 0
  Multiplicity = 1
  Basis Set: AUG-CC-PVTZ
    Blend: AUG-CC-PVTZ
  Basis Set: (AUG-CC-PVTZ AUX)
    Blend: AUG-CC-PVTZ-JKFIT

    Orbital Energies [Eh]
    ---------------------

    Doubly Occupied:

       1A   -104.841097     2A    -20.562141     3A    -11.341107
       4A    -11.315469     5A    -11.266072     6A    -11.263495
       7A    -11.260094     8A    -11.257197     9A    -11.255411
      10A    -11.238098    11A    -10.564976    12A     -8.031875
      13A     -8.029932    14A     -8.029890    15A     -1.459174
      16A     -1.196285    17A     -1.124716    18A     -1.055080
      19A     -1.007561    20A     -0.989051    21A     -0.868490
      22A     -0.831880    23A     -0.767433    24A     -0.709538
      25A     -0.671917    26A     -0.668220    27A     -0.644969
      28A     -0.627480    29A     -0.608870    30A     -0.595486
      31A     -0.562644    32A     -0.552107    33A     -0.538031
      34A     -0.536297    35A     -0.515027    36A     -0.473181
      37A     -0.457617    38A     -0.405311    39A     -0.358718
      40A     -0.342068

  @DF-RHF Final Energy:  -841.51984459605831

   => Energetics <=

    Nuclear Repulsion Energy =            564.1099356057959540
    One-Electron Energy =               -2273.6115525994050586
    Two-Electron Energy =                 867.9817723975507988
    Total Energy =                       -841.5198445960583058
  Basis Set: (AUG-CC-PVTZ AUX)
    Blend: AUG-CC-PVTZ-RI
    Molecular point group: c1

    Geometry (in Angstrom), charge = 0, multiplicity = 1:

       Center              X                  Y                   Z               Mass
    ------------   -----------------  -----------------  -----------------  -----------------
         CL           0.196368957852     2.167190146850     0.204942449309    34.968852682000
         O            2.254003957852     0.203090146850    -0.859495550691    15.994914619570
         C            0.152900957852    -0.570348853150    -0.048249550691    12.000000000000
         C           -0.584287042148     0.621757146850     0.048508449309    12.000000000000
         C           -0.553392042148    -1.781768853150    -0.114945550691    12.000000000000
         C            1.700957557852    -0.526332353150    -0.199949650691    12.000000000000
         C           -1.979781042148     0.596466146850     0.086214449309    12.000000000000
         C           -1.946267042148    -1.812009853150    -0.101815550691    12.000000000000
         C           -2.660117042148    -0.617151853150    -0.002349550691    12.000000000000
         C            2.381731957852    -1.635248853150     0.675265449309    12.000000000000
         H           -0.001635042148    -2.714740853150    -0.195713550691     1.007825032230
         H           -2.523695042148     1.532326146850     0.177866449309     1.007825032230
         H           -2.470085042148    -2.761774853150    -0.169928550691     1.007825032230
         H           -3.746968042148    -0.625049853150     0.016924449309     1.007825032230
         H            2.195093957852    -2.640347853150     0.283766449309     1.007825032230
         H            2.043315957852    -1.617034853150     1.715287449309     1.007825032230
         H            3.451852957852    -1.430033853150     0.621442449309     1.007825032230

  Basis Set: AUG-CC-PVTZ
    Blend: AUG-CC-PVTZ
  Basis Set: (AUG-CC-PVTZ AUX)
    Blend: AUG-CC-PVTZ-JKFIT
	 Reference Energy          =    -841.5198445960583058 [Eh]
	 Singles Energy            =      -0.0000000000000000 [Eh]
	 Same-Spin Energy          =      -0.4715153367703881 [Eh]
	 Opposite-Spin Energy      =      -1.4432702154434414 [Eh]
	 Correlation Energy        =      -1.9147855522138295 [Eh]
	 Total Energy              =    -843.4346301482721628 [Eh]

	 ================> DF-SCS-MP2 Energies <==================
	-----------------------------------------------------------
	 SCS Same-Spin Scale       =       0.3333333333333333 [-]
	 SCS Opposite-Spin Scale   =       1.2000000000000000 [-]
	 SCS Same-Spin Energy      =      -0.1571717789234627 [Eh]
	 SCS Opposite-Spin Energy  =      -1.7319242585321295 [Eh]
	 SCS Correlation Energy    =      -1.8890960374555923 [Eh]
	 SCS Total Energy          =    -843.4089406335139074 [Eh]
	-----------------------------------------------------------

  Dipole Moment: [D]
     X:    -1.8818      Y:    -2.7027      Z:     1.1163     Total:     3.4773

*** Psi4 exiting successfully. Buy a developer a beer!
