                               Psi4 1.4a3.dev225

  ==> Input File <==

--------------------------------------------------------------------------
#psi4
#
memory 32 gb

molecule  {
0 1
 Cl        0.2076870     2.2487580     0.1866360
  O        2.2653220     0.2846580    -0.8778020
  C        0.1642190    -0.4887810    -0.0665560
  C       -0.5729690     0.7033250     0.0302020
  C       -0.5420740    -1.7002010    -0.1332520
  C        1.7572081    -0.4667116    -0.1823157
  C       -1.9684630     0.6780340     0.0679080
  C       -1.9349490    -1.7304420    -0.1201220
  C       -2.6487990    -0.5355840    -0.0206560
  C        2.3930500    -1.5536810     0.6569590
  H        0.0096830    -2.6331730    -0.2140200
  H       -2.5123770     1.6138940     0.1595600
  H       -2.4587670    -2.6802070    -0.1882350
  H       -3.7356500    -0.5434820    -0.0013820
  H        2.2064120    -2.5587800     0.2654600
  H        2.0546340    -1.5354670     1.6969810
  H        3.4631710    -1.3484660     0.6031360
units angstrom
no_reorient  #important for SAPT in psi4, default
symmetry c1  #important for SAPT in psi4, default
}

set PROPERTIES_ORIGIN ["COM"]
properties('MP2/aug-cc-pvtz', properties = ['dipole'])
--------------------------------------------------------------------------

    Molecular point group: c1
  Charge       = 0
  Multiplicity = 1
  Basis Set: AUG-CC-PVTZ
    Blend: AUG-CC-PVTZ
  Basis Set: (AUG-CC-PVTZ AUX)
    Blend: AUG-CC-PVTZ-JKFIT

    Orbital Energies [Eh]
    ---------------------

    Doubly Occupied:

       1A   -104.838835     2A    -20.563311     3A    -11.344951
       4A    -11.312769     5A    -11.264939     6A    -11.260440
       7A    -11.257375     8A    -11.255324     9A    -11.253394
      10A    -11.243107    11A    -10.562724    12A     -8.029625
      13A     -8.027688    14A     -8.027646    15A     -1.449518
      16A     -1.193082    17A     -1.122339    18A     -1.054377
      19A     -1.011075    20A     -0.996827    21A     -0.861876
      22A     -0.829211    23A     -0.765678    24A     -0.709213
      25A     -0.669565    26A     -0.665307    27A     -0.646473
      28A     -0.627473    29A     -0.612952    30A     -0.593761
      31A     -0.564806    32A     -0.551122    33A     -0.536528
      34A     -0.533832    35A     -0.512843    36A     -0.470994
      37A     -0.455556    38A     -0.408299    39A     -0.356277
      40A     -0.339740

  @DF-RHF Final Energy:  -841.52073997271964

   => Energetics <=

    Nuclear Repulsion Energy =            563.4655407420295887
    One-Electron Energy =               -2272.4108504208825252
    Two-Electron Energy =                 867.4245697061332976
    Total Energy =                       -841.5207399727196389
  Basis Set: (AUG-CC-PVTZ AUX)
    Blend: AUG-CC-PVTZ-RI
    Molecular point group: c1

    Geometry (in Angstrom), charge = 0, multiplicity = 1:

       Center              X                  Y                   Z               Mass
    ------------   -----------------  -----------------  -----------------  -----------------
         CL           0.192868145605     2.168900104597     0.202142235822    34.968852682000
         O            2.250503145605     0.204800104597    -0.862295764178    15.994914619570
         C            0.149400145605    -0.568638895403    -0.051049764178    12.000000000000
         C           -0.587787854395     0.623467104597     0.045708235822    12.000000000000
         C           -0.556892854395    -1.780058895403    -0.117745764178    12.000000000000
         C            1.742389245605    -0.546569495403    -0.166809464178    12.000000000000
         C           -1.983281854395     0.598176104597     0.083414235822    12.000000000000
         C           -1.949767854395    -1.810299895403    -0.104615764178    12.000000000000
         C           -2.663617854395    -0.615441895403    -0.005149764178    12.000000000000
         C            2.378231145605    -1.633538895403     0.672465235822    12.000000000000
         H           -0.005135854395    -2.713030895403    -0.198513764178     1.007825032230
         H           -2.527195854395     1.534036104597     0.175066235822     1.007825032230
         H           -2.473585854395    -2.760064895403    -0.172728764178     1.007825032230
         H           -3.750468854395    -0.623339895403     0.014124235822     1.007825032230
         H            2.191593145605    -2.638637895403     0.280966235822     1.007825032230
         H            2.039815145605    -1.615324895403     1.712487235822     1.007825032230
         H            3.448352145605    -1.428323895403     0.618642235822     1.007825032230

  Basis Set: AUG-CC-PVTZ
    Blend: AUG-CC-PVTZ
  Basis Set: (AUG-CC-PVTZ AUX)
    Blend: AUG-CC-PVTZ-JKFIT
	 Reference Energy          =    -841.5207399727196389 [Eh]
	 Singles Energy            =      -0.0000000000000000 [Eh]
	 Same-Spin Energy          =      -0.4720140007056881 [Eh]
	 Opposite-Spin Energy      =      -1.4441188968026584 [Eh]
	 Correlation Energy        =      -1.9161328975083465 [Eh]
	 Total Energy              =    -843.4368728702279441 [Eh]

	 ================> DF-SCS-MP2 Energies <==================
	-----------------------------------------------------------
	 SCS Same-Spin Scale       =       0.3333333333333333 [-]
	 SCS Opposite-Spin Scale   =       1.2000000000000000 [-]
	 SCS Same-Spin Energy      =      -0.1573380002352294 [Eh]
	 SCS Opposite-Spin Energy  =      -1.7329426761631901 [Eh]
	 SCS Correlation Energy    =      -1.8902806763984195 [Eh]
	 SCS Total Energy          =    -843.4110206491180861 [Eh]
	-----------------------------------------------------------

  Dipole Moment: [D]
     X:    -1.5280      Y:    -2.9033      Z:     1.2650     Total:     3.5162

*** Psi4 exiting successfully. Buy a developer a beer!
