                               Psi4 1.4a3.dev225

  ==> Input File <==

--------------------------------------------------------------------------
#psi4
#
memory 32 gb

molecule  {
0 1
 Cl        0.2076870     2.2487580     0.1866360
  O        2.2653220     0.2846580    -0.8778020
  C        0.1642190    -0.4887810    -0.0665560
  C       -0.5729690     0.7033250     0.0302020
  C       -0.5420740    -1.7002010    -0.1332520
  C        1.6632570    -0.5094160    -0.1597980
  C       -1.9684630     0.6780340     0.0679080
  C       -1.9349490    -1.7304420    -0.1201220
  C       -2.6743776    -0.4927700    -0.0170920
  C        2.3930500    -1.5536810     0.6569590
  H        0.0096830    -2.6331730    -0.2140200
  H       -2.5123770     1.6138940     0.1595600
  H       -2.4587670    -2.6802070    -0.1882350
  H       -3.7356500    -0.5434820    -0.0013820
  H        2.2064120    -2.5587800     0.2654600
  H        2.0546340    -1.5354670     1.6969810
  H        3.4631710    -1.3484660     0.6031360
units angstrom
no_reorient  #important for SAPT in psi4, default
symmetry c1  #important for SAPT in psi4, default
}

set PROPERTIES_ORIGIN ["COM"]
properties('MP2/aug-cc-pvtz', properties = ['dipole'])
--------------------------------------------------------------------------

    Molecular point group: c1
  Charge       = 0
  Multiplicity = 1
  Basis Set: AUG-CC-PVTZ
    Blend: AUG-CC-PVTZ
  Basis Set: (AUG-CC-PVTZ AUX)
    Blend: AUG-CC-PVTZ-JKFIT

    Orbital Energies [Eh]
    ---------------------

    Doubly Occupied:

       1A   -104.841832     2A    -20.553472     3A    -11.346294
       4A    -11.321036     5A    -11.270625     6A    -11.266508
       7A    -11.264565     8A    -11.262723     9A    -11.257975
      10A    -11.243166    11A    -10.565571    12A     -8.032467
      13A     -8.030506    14A     -8.030450    15A     -1.384186
      16A     -1.198712    17A     -1.124250    18A     -1.067786
      19A     -1.013894    20A     -0.997322    21A     -0.876328
      22A     -0.837801    23A     -0.772208    24A     -0.704856
      25A     -0.671396    26A     -0.663656    27A     -0.634062
      28A     -0.621808    29A     -0.604587    30A     -0.593215
      31A     -0.565364    32A     -0.551611    33A     -0.538358
      34A     -0.521432    35A     -0.496882    36A     -0.471691
      37A     -0.458376    38A     -0.420173    39A     -0.365655
      40A     -0.340100

  @DF-RHF Final Energy:  -841.52362931416712

   => Energetics <=

    Nuclear Repulsion Energy =            563.1995463162219266
    One-Electron Energy =               -2271.8805594863852093
    Two-Electron Energy =                 867.1573838559960450
    Total Energy =                       -841.5236293141671240
  Basis Set: (AUG-CC-PVTZ AUX)
    Blend: AUG-CC-PVTZ-RI
    Molecular point group: c1

    Geometry (in Angstrom), charge = 0, multiplicity = 1:

       Center              X                  Y                   Z               Mass
    ------------   -----------------  -----------------  -----------------  -----------------
         CL           0.202181026875     2.168891565365     0.200110140239    34.968852682000
         O            2.259816026875     0.204791565365    -0.864327859761    15.994914619570
         C            0.158713026875    -0.568647434635    -0.053081859761    12.000000000000
         C           -0.578474973125     0.623458565365     0.043676140239    12.000000000000
         C           -0.547579973125    -1.780067434635    -0.119777859761    12.000000000000
         C            1.657751026875    -0.589282434635    -0.146323859761    12.000000000000
         C           -1.973968973125     0.598167565365     0.081382140239    12.000000000000
         C           -1.940454973125    -1.810308434635    -0.106647859761    12.000000000000
         C           -2.679883573125    -0.572636434635    -0.003617859761    12.000000000000
         C            2.387544026875    -1.633547434635     0.670433140239    12.000000000000
         H            0.004177026875    -2.713039434635    -0.200545859761     1.007825032230
         H           -2.517882973125     1.534027565365     0.173034140239     1.007825032230
         H           -2.464272973125    -2.760073434635    -0.174760859761     1.007825032230
         H           -3.741155973125    -0.623348434635     0.012092140239     1.007825032230
         H            2.200906026875    -2.638646434635     0.278934140239     1.007825032230
         H            2.049128026875    -1.615333434635     1.710455140239     1.007825032230
         H            3.457665026875    -1.428332434635     0.616610140239     1.007825032230

  Basis Set: AUG-CC-PVTZ
    Blend: AUG-CC-PVTZ
  Basis Set: (AUG-CC-PVTZ AUX)
    Blend: AUG-CC-PVTZ-JKFIT
	 Reference Energy          =    -841.5236293141671240 [Eh]
	 Singles Energy            =      -0.0000000000000000 [Eh]
	 Same-Spin Energy          =      -0.4741717192639382 [Eh]
	 Opposite-Spin Energy      =      -1.4494429510442821 [Eh]
	 Correlation Energy        =      -1.9236146703082202 [Eh]
	 Total Energy              =    -843.4472439844753353 [Eh]

	 ================> DF-SCS-MP2 Energies <==================
	-----------------------------------------------------------
	 SCS Same-Spin Scale       =       0.3333333333333333 [-]
	 SCS Opposite-Spin Scale   =       1.2000000000000000 [-]
	 SCS Same-Spin Energy      =      -0.1580572397546461 [Eh]
	 SCS Opposite-Spin Energy  =      -1.7393315412531385 [Eh]
	 SCS Correlation Energy    =      -1.8973887810077845 [Eh]
	 SCS Total Energy          =    -843.4210180951748725 [Eh]
	-----------------------------------------------------------

  Dipole Moment: [D]
     X:    -2.2111      Y:    -2.9770      Z:     1.4293     Total:     3.9742

*** Psi4 exiting successfully. Buy a developer a beer!
