                               Psi4 1.4a3.dev225

  ==> Input File <==

--------------------------------------------------------------------------
#psi4
#
memory 32 gb

molecule  {
0 1
 Cl        0.2076870     2.2487580     0.1866360
  O        2.2653220     0.2846580    -0.8778020
  C        0.1642190    -0.4887810    -0.0665560
  C       -0.5729690     0.7033250     0.0302020
  C       -0.5420740    -1.7002010    -0.1332520
  C        1.6632570    -0.5094160    -0.1597980
  C       -1.9684630     0.6780340     0.0679080
  C       -1.9349490    -1.7304420    -0.1201220
  C       -2.6487990    -0.5355840    -0.0206560
  C        2.3930500    -1.5536810     0.6569590
  H        0.0096830    -2.6331730    -0.2140200
  H       -2.5123770     1.6138940     0.1595600
  H       -2.4491271    -2.6627284    -0.1869815
  H       -3.7356500    -0.5434820    -0.0013820
  H        2.2064120    -2.5587800     0.2654600
  H        2.0546340    -1.5354670     1.6969810
  H        3.4631710    -1.3484660     0.6031360
units angstrom
no_reorient  #important for SAPT in psi4, default
symmetry c1  #important for SAPT in psi4, default
}

set PROPERTIES_ORIGIN ["COM"]
properties('MP2/aug-cc-pvtz', properties = ['dipole'])
--------------------------------------------------------------------------

    Molecular point group: c1
  Charge       = 0
  Multiplicity = 1
  Basis Set: AUG-CC-PVTZ
    Blend: AUG-CC-PVTZ
  Basis Set: (AUG-CC-PVTZ AUX)
    Blend: AUG-CC-PVTZ-JKFIT

    Orbital Energies [Eh]
    ---------------------

    Doubly Occupied:

       1A   -104.841179     2A    -20.553261     3A    -11.346203
       4A    -11.320350     5A    -11.270413     6A    -11.267238
       7A    -11.263753     8A    -11.259958     9A    -11.255712
      10A    -11.243037    11A    -10.564955    12A     -8.031852
      13A     -8.029892    14A     -8.029836    15A     -1.384044
      16A     -1.199423    17A     -1.126878    18A     -1.066403
      19A     -1.013534    20A     -1.000062    21A     -0.876198
      22A     -0.838596    23A     -0.773196    24A     -0.704969
      25A     -0.668887    26A     -0.663875    27A     -0.634919
      28A     -0.621687    29A     -0.605166    30A     -0.594254
      31A     -0.564271    32A     -0.552080    33A     -0.536141
      34A     -0.525166    35A     -0.497804    36A     -0.473532
      37A     -0.457883    38A     -0.419795    39A     -0.361760
      40A     -0.344323

  @DF-RHF Final Energy:  -841.52702936024366

   => Energetics <=

    Nuclear Repulsion Energy =            563.7245578357128579
    One-Electron Energy =               -2272.9382047972490000
    Two-Electron Energy =                 867.6866176012924825
    Total Energy =                       -841.5270293602436595
  Basis Set: (AUG-CC-PVTZ AUX)
    Blend: AUG-CC-PVTZ-RI
    Molecular point group: c1

    Geometry (in Angstrom), charge = 0, multiplicity = 1:

       Center              X                  Y                   Z               Mass
    ------------   -----------------  -----------------  -----------------  -----------------
         CL           0.200125050190     2.172112947812     0.200379618775    34.968852682000
         O            2.257760050190     0.208012947812    -0.864058381225    15.994914619570
         C            0.156657050190    -0.565426052188    -0.052812381225    12.000000000000
         C           -0.580530949810     0.626679947812     0.043945618775    12.000000000000
         C           -0.549635949810    -1.776846052188    -0.119508381225    12.000000000000
         C            1.655695050190    -0.586061052188    -0.146054381225    12.000000000000
         C           -1.976024949810     0.601388947812     0.081651618775    12.000000000000
         C           -1.942510949810    -1.807087052188    -0.106378381225    12.000000000000
         C           -2.656360949810    -0.612229052188    -0.006912381225    12.000000000000
         C            2.385488050190    -1.630326052188     0.670702618775    12.000000000000
         H            0.002121050190    -2.709818052188    -0.200276381225     1.007825032230
         H           -2.519938949810     1.537248947812     0.173303618775     1.007825032230
         H           -2.456689049810    -2.739373452188    -0.173237881225     1.007825032230
         H           -3.743211949810    -0.620127052188     0.012361618775     1.007825032230
         H            2.198850050190    -2.635425052188     0.279203618775     1.007825032230
         H            2.047072050190    -1.612112052188     1.710724618775     1.007825032230
         H            3.455609050190    -1.425111052188     0.616879618775     1.007825032230

  Basis Set: AUG-CC-PVTZ
    Blend: AUG-CC-PVTZ
  Basis Set: (AUG-CC-PVTZ AUX)
    Blend: AUG-CC-PVTZ-JKFIT
	 Reference Energy          =    -841.5270293602436595 [Eh]
	 Singles Energy            =      -0.0000000000000000 [Eh]
	 Same-Spin Energy          =      -0.4741919736428694 [Eh]
	 Opposite-Spin Energy      =      -1.4489910406063304 [Eh]
	 Correlation Energy        =      -1.9231830142491999 [Eh]
	 Total Energy              =    -843.4502123744928213 [Eh]

	 ================> DF-SCS-MP2 Energies <==================
	-----------------------------------------------------------
	 SCS Same-Spin Scale       =       0.3333333333333333 [-]
	 SCS Opposite-Spin Scale   =       1.2000000000000000 [-]
	 SCS Same-Spin Energy      =      -0.1580639912142898 [Eh]
	 SCS Opposite-Spin Energy  =      -1.7387892487275964 [Eh]
	 SCS Correlation Energy    =      -1.8968532399418863 [Eh]
	 SCS Total Energy          =    -843.4238826001854932 [Eh]
	-----------------------------------------------------------

  Dipole Moment: [D]
     X:    -2.2082      Y:    -2.9957      Z:     1.4272     Total:     3.9859

*** Psi4 exiting successfully. Buy a developer a beer!
