                               Psi4 1.4a3.dev225

  ==> Input File <==

--------------------------------------------------------------------------
#psi4
#
memory 32 gb

molecule  {
0 1
 Cl        0.2076870     2.2487580     0.1866360
  O        2.2653220     0.2846580    -0.8778020
  C        0.1642190    -0.4887810    -0.0665560
  C       -0.5729690     0.7033250     0.0302020
  C       -0.5420740    -1.7002010    -0.1332520
  C        1.6632570    -0.5094160    -0.1597980
  C       -1.9684630     0.6780340     0.0679080
  C       -1.9849350    -1.7315273    -0.1196508
  C       -2.6487990    -0.5355840    -0.0206560
  C        2.3930500    -1.5536810     0.6569590
  H        0.0096830    -2.6331730    -0.2140200
  H       -2.5123770     1.6138940     0.1595600
  H       -2.4587670    -2.6802070    -0.1882350
  H       -3.7356500    -0.5434820    -0.0013820
  H        2.2064120    -2.5587800     0.2654600
  H        2.0546340    -1.5354670     1.6969810
  H        3.4631710    -1.3484660     0.6031360
units angstrom
no_reorient  #important for SAPT in psi4, default
symmetry c1  #important for SAPT in psi4, default
}

set PROPERTIES_ORIGIN ["COM"]
properties('MP2/aug-cc-pvtz', properties = ['dipole'])
--------------------------------------------------------------------------

    Molecular point group: c1
  Charge       = 0
  Multiplicity = 1
  Basis Set: AUG-CC-PVTZ
    Blend: AUG-CC-PVTZ
  Basis Set: (AUG-CC-PVTZ AUX)
    Blend: AUG-CC-PVTZ-JKFIT

    Orbital Energies [Eh]
    ---------------------

    Doubly Occupied:

       1A   -104.841196     2A    -20.553500     3A    -11.346538
       4A    -11.320482     5A    -11.273354     6A    -11.270751
       7A    -11.261471     8A    -11.259849     9A    -11.258692
      10A    -11.243106    11A    -10.564973    12A     -8.031869
      13A     -8.029910    14A     -8.029854    15A     -1.384307
      16A     -1.198242    17A     -1.125126    18A     -1.067887
      19A     -1.009026    20A     -1.001480    21A     -0.874451
      22A     -0.840263    23A     -0.773260    24A     -0.704327
      25A     -0.667772    26A     -0.663352    27A     -0.637551
      28A     -0.621782    29A     -0.605909    30A     -0.592753
      31A     -0.563280    32A     -0.550271    33A     -0.533246
      34A     -0.527761    35A     -0.498801    36A     -0.472403
      37A     -0.458001    38A     -0.419514    39A     -0.362897
      40A     -0.342304

  @DF-RHF Final Energy:  -841.52374888415488

   => Energetics <=

    Nuclear Repulsion Energy =            562.9998450875308436
    One-Electron Energy =               -2271.4841652443155908
    Two-Electron Energy =                 866.9605712726297497
    Total Energy =                       -841.5237488841548839
  Basis Set: (AUG-CC-PVTZ AUX)
    Blend: AUG-CC-PVTZ-RI
    Molecular point group: c1

    Geometry (in Angstrom), charge = 0, multiplicity = 1:

       Center              X                  Y                   Z               Mass
    ------------   -----------------  -----------------  -----------------  -----------------
         CL           0.204082673230     2.172311878215     0.200351108627    34.968852682000
         O            2.261717673230     0.208211878215    -0.864086891373    15.994914619570
         C            0.160614673230    -0.565227121785    -0.052840891373    12.000000000000
         C           -0.576573326770     0.626878878215     0.043917108627    12.000000000000
         C           -0.545678326770    -1.776647121785    -0.119536891373    12.000000000000
         C            1.659652673230    -0.585862121785    -0.146082891373    12.000000000000
         C           -1.972067326770     0.601587878215     0.081623108627    12.000000000000
         C           -1.988539326770    -1.807973421785    -0.105935691373    12.000000000000
         C           -2.652403326770    -0.612030121785    -0.006940891373    12.000000000000
         C            2.389445673230    -1.630127121785     0.670674108627    12.000000000000
         H            0.006078673230    -2.709619121785    -0.200304891373     1.007825032230
         H           -2.515981326770     1.537447878215     0.173275108627     1.007825032230
         H           -2.462371326770    -2.756653121785    -0.174519891373     1.007825032230
         H           -3.739254326770    -0.619928121785     0.012333108627     1.007825032230
         H            2.202807673230    -2.635226121785     0.279175108627     1.007825032230
         H            2.051029673230    -1.611913121785     1.710696108627     1.007825032230
         H            3.459566673230    -1.424912121785     0.616851108627     1.007825032230

  Basis Set: AUG-CC-PVTZ
    Blend: AUG-CC-PVTZ
  Basis Set: (AUG-CC-PVTZ AUX)
    Blend: AUG-CC-PVTZ-JKFIT
	 Reference Energy          =    -841.5237488841548839 [Eh]
	 Singles Energy            =      -0.0000000000000000 [Eh]
	 Same-Spin Energy          =      -0.4741384375517437 [Eh]
	 Opposite-Spin Energy      =      -1.4493776419482454 [Eh]
	 Correlation Energy        =      -1.9235160794999890 [Eh]
	 Total Energy              =    -843.4472649636549022 [Eh]

	 ================> DF-SCS-MP2 Energies <==================
	-----------------------------------------------------------
	 SCS Same-Spin Scale       =       0.3333333333333333 [-]
	 SCS Opposite-Spin Scale   =       1.2000000000000000 [-]
	 SCS Same-Spin Energy      =      -0.1580461458505812 [Eh]
	 SCS Opposite-Spin Energy  =      -1.7392531703378944 [Eh]
	 SCS Correlation Energy    =      -1.8972993161884757 [Eh]
	 SCS Total Energy          =    -843.4210482003433071 [Eh]
	-----------------------------------------------------------

  Dipole Moment: [D]
     X:    -2.1841      Y:    -3.0104      Z:     1.4251     Total:     3.9829

*** Psi4 exiting successfully. Buy a developer a beer!
