                               Psi4 1.4a3.dev225

  ==> Input File <==

--------------------------------------------------------------------------
#psi4
#
memory 32 gb

molecule  {
0 1
 Cl        0.2076870     2.2487580     0.1866360
  O        2.2653220     0.2846580    -0.8778020
  C        0.1642190    -0.4887810    -0.0665560
  C       -0.5729690     0.7033250     0.0302020
  C       -0.5420740    -1.7002010    -0.1332520
  C        1.6632570    -0.5094160    -0.1597980
  C       -1.9684630     0.6780340     0.0679080
  C       -1.9349490    -1.7304420    -0.1201220
  C       -2.6487990    -0.5355840    -0.0206560
  C        2.3930500    -1.5536810     0.6569590
  H        0.0096830    -2.6331730    -0.2140200
  H       -2.5123770     1.6138940     0.1595600
  H       -2.4587670    -2.6802070    -0.1882350
  H       -3.7356500    -0.5434820    -0.0013820
  H        2.2064120    -2.5587800     0.2654600
  H        2.0546340    -1.5354670     1.6969810
  H        3.4631710    -1.3484660     0.6031360
units angstrom
no_reorient  #important for SAPT in psi4, default
symmetry c1  #important for SAPT in psi4, default
}

set PROPERTIES_ORIGIN ["COM"]
properties('MP2/aug-cc-pvtz', properties = ['dipole'])
--------------------------------------------------------------------------

    Molecular point group: c1
  Charge       = 0
  Multiplicity = 1
  Basis Set: AUG-CC-PVTZ
    Blend: AUG-CC-PVTZ
  Basis Set: (AUG-CC-PVTZ AUX)
    Blend: AUG-CC-PVTZ-JKFIT

    Orbital Energies [Eh]
    ---------------------

    Doubly Occupied:

       1A   -104.841224     2A    -20.553324     3A    -11.346272
       4A    -11.320403     5A    -11.270531     6A    -11.267398
       7A    -11.263929     8A    -11.260083     9A    -11.258003
      10A    -11.243073    11A    -10.565000    12A     -8.031897
      13A     -8.029937    14A     -8.029881    15A     -1.384103
      16A     -1.199466    17A     -1.126752    18A     -1.066451
      19A     -1.013175    20A     -0.999808    21A     -0.876287
      22A     -0.837932    23A     -0.771889    24A     -0.704277
      25A     -0.668974    26A     -0.663827    27A     -0.634335
      28A     -0.621723    29A     -0.603940    30A     -0.593740
      31A     -0.564330    32A     -0.552179    33A     -0.536194
      34A     -0.524386    35A     -0.497748    36A     -0.473609
      37A     -0.457932    38A     -0.419841    39A     -0.361864
      40A     -0.344385

  @DF-RHF Final Energy:  -841.52689644410611

   => Energetics <=

    Nuclear Repulsion Energy =            563.6174464403553657
    One-Electron Energy =               -2272.7284856268533986
    Two-Electron Energy =                 867.5841427423920322
    Total Energy =                       -841.5268964441061144
  Basis Set: (AUG-CC-PVTZ AUX)
    Blend: AUG-CC-PVTZ-RI
    Molecular point group: c1

    Geometry (in Angstrom), charge = 0, multiplicity = 1:

       Center              X                  Y                   Z               Mass
    ------------   -----------------  -----------------  -----------------  -----------------
         CL           0.200188129170     2.172227319565     0.200387821090    34.968852682000
         O            2.257823129170     0.208127319565    -0.864050178910    15.994914619570
         C            0.156720129170    -0.565311680435    -0.052804178910    12.000000000000
         C           -0.580467870830     0.626794319565     0.043953821090    12.000000000000
         C           -0.549572870830    -1.776731680435    -0.119500178910    12.000000000000
         C            1.655758129170    -0.585946680435    -0.146046178910    12.000000000000
         C           -1.975961870830     0.601503319565     0.081659821090    12.000000000000
         C           -1.942447870830    -1.806972680435    -0.106370178910    12.000000000000
         C           -2.656297870830    -0.612114680435    -0.006904178910    12.000000000000
         C            2.385551129170    -1.630211680435     0.670710821090    12.000000000000
         H            0.002184129170    -2.709703680435    -0.200268178910     1.007825032230
         H           -2.519875870830     1.537363319565     0.173311821090     1.007825032230
         H           -2.466265870830    -2.756737680435    -0.174483178910     1.007825032230
         H           -3.743148870830    -0.620012680435     0.012369821090     1.007825032230
         H            2.198913129170    -2.635310680435     0.279211821090     1.007825032230
         H            2.047135129170    -1.611997680435     1.710732821090     1.007825032230
         H            3.455672129170    -1.424996680435     0.616887821090     1.007825032230

  Basis Set: AUG-CC-PVTZ
    Blend: AUG-CC-PVTZ
  Basis Set: (AUG-CC-PVTZ AUX)
    Blend: AUG-CC-PVTZ-JKFIT
	 Reference Energy          =    -841.5268964441061144 [Eh]
	 Singles Energy            =      -0.0000000000000000 [Eh]
	 Same-Spin Energy          =      -0.4742275800375252 [Eh]
	 Opposite-Spin Energy      =      -1.4491255639482388 [Eh]
	 Correlation Energy        =      -1.9233531439857638 [Eh]
	 Total Energy              =    -843.4502495880918786 [Eh]

	 ================> DF-SCS-MP2 Energies <==================
	-----------------------------------------------------------
	 SCS Same-Spin Scale       =       0.3333333333333333 [-]
	 SCS Opposite-Spin Scale   =       1.2000000000000000 [-]
	 SCS Same-Spin Energy      =      -0.1580758600125084 [Eh]
	 SCS Opposite-Spin Energy  =      -1.7389506767378864 [Eh]
	 SCS Correlation Energy    =      -1.8970265367503947 [Eh]
	 SCS Total Energy          =    -843.4239229808565597 [Eh]
	-----------------------------------------------------------

  Dipole Moment: [D]
     X:    -2.2046      Y:    -2.9910      Z:     1.4274     Total:     3.9804

*** Psi4 exiting successfully. Buy a developer a beer!
