                               Psi4 1.4a3.dev225

  ==> Input File <==

--------------------------------------------------------------------------
#psi4
#
memory 32 gb

molecule  {
0 1
  O       -3.2271830    -0.3786580    -0.1569640
  O       -1.8275510     1.3993140    -0.2614160
  C        2.8225670    -0.4310850    -0.3953020
  C        1.4009980    -0.8942070    -0.2419560
  C       -0.9807690    -0.7586230     0.4926230
  C        0.4329349    -0.2198143     0.3703752
  C        3.1298050     0.9339520     0.2103920
  C       -2.0113430     0.2195500    -0.0192140
  H        3.4859920    -1.1868430     0.0468460
  H        3.0699840    -0.4203720    -1.4654230
  H        1.1737130    -1.8673930    -0.6818980
  H       -1.0998220    -1.7054460    -0.0447970
  H       -1.2414610    -0.9681590     1.5400430
  H        0.5929560     0.7502750     0.8121930
  H        4.1791340     1.1958370     0.0500290
  H        2.5131630     1.7137800    -0.2445400
  H        2.9424530     0.9385920     1.2876810
  H       -3.8316340     0.3284440    -0.4642740
units angstrom
no_reorient  #important for SAPT in psi4, default
symmetry c1  #important for SAPT in psi4, default
}

set PROPERTIES_ORIGIN ["COM"]
properties('MP2/aug-cc-pvtz', properties = ['dipole'])
--------------------------------------------------------------------------

    Molecular point group: c1
  Charge       = 0
  Multiplicity = 1
  Basis Set: AUG-CC-PVTZ
    Blend: AUG-CC-PVTZ
  Basis Set: (AUG-CC-PVTZ AUX)
    Blend: AUG-CC-PVTZ-JKFIT

    Orbital Energies [Eh]
    ---------------------

    Doubly Occupied:

       1A    -20.616234     2A    -20.551977     3A    -11.390962
       4A    -11.255190     5A    -11.233759     6A    -11.231021
       7A    -11.229270     8A    -11.214320     9A     -1.459804
      10A     -1.357092    11A     -1.103083    12A     -1.043747
      13A     -0.962205    14A     -0.870302    15A     -0.806940
      16A     -0.741248    17A     -0.703104    18A     -0.681352
      19A     -0.654780    20A     -0.624182    21A     -0.612690
      22A     -0.601809    23A     -0.581207    24A     -0.553506
      25A     -0.527729    26A     -0.498688    27A     -0.492580
      28A     -0.484362    29A     -0.478162    30A     -0.455231
      31A     -0.357579

  @DF-RHF Final Energy:  -382.90406332265746

   => Energetics <=

    Nuclear Repulsion Energy =            354.9437264804647612
    One-Electron Energy =               -1224.9473467431771496
    Two-Electron Energy =                 487.0995569400549243
    Total Energy =                       -382.9040633226574641
  Basis Set: (AUG-CC-PVTZ AUX)
    Blend: AUG-CC-PVTZ-RI
    Molecular point group: c1

    Geometry (in Angstrom), charge = 0, multiplicity = 1:

       Center              X                  Y                   Z               Mass
    ------------   -----------------  -----------------  -----------------  -----------------
         O           -3.126865434574    -0.389982258166    -0.149542700804    15.994914619570
         O           -1.727233434574     1.387989741834    -0.253994700804    15.994914619570
         C            2.922884565426    -0.442409258166    -0.387880700804    12.000000000000
         C            1.501315565426    -0.905531258166    -0.234534700804    12.000000000000
         C           -0.880451434574    -0.769947258166     0.500044299196    12.000000000000
         C            0.533252465426    -0.231138558166     0.377796499196    12.000000000000
         C            3.230122565426     0.922627741834     0.217813299196    12.000000000000
         C           -1.911025434574     0.208225741834    -0.011792700804    12.000000000000
         H            3.586309565426    -1.198167258166     0.054267299196     1.007825032230
         H            3.170301565426    -0.431696258166    -1.458001700804     1.007825032230
         H            1.274030565426    -1.878717258166    -0.674476700804     1.007825032230
         H           -0.999504434574    -1.716770258166    -0.037375700804     1.007825032230
         H           -1.141143434574    -0.979483258166     1.547464299196     1.007825032230
         H            0.693273565426     0.738950741834     0.819614299196     1.007825032230
         H            4.279451565426     1.184512741834     0.057450299196     1.007825032230
         H            2.613480565426     1.702455741834    -0.237118700804     1.007825032230
         H            3.042770565426     0.927267741834     1.295102299196     1.007825032230
         H           -3.731316434574     0.317119741834    -0.456852700804     1.007825032230

  Basis Set: AUG-CC-PVTZ
    Blend: AUG-CC-PVTZ
  Basis Set: (AUG-CC-PVTZ AUX)
    Blend: AUG-CC-PVTZ-JKFIT
	 Reference Energy          =    -382.9040633226574641 [Eh]
	 Singles Energy            =      -0.0000000000000000 [Eh]
	 Same-Spin Energy          =      -0.3827654443020165 [Eh]
	 Opposite-Spin Energy      =      -1.2538298985855036 [Eh]
	 Correlation Energy        =      -1.6365953428875202 [Eh]
	 Total Energy              =    -384.5406586655449814 [Eh]

	 ================> DF-SCS-MP2 Energies <==================
	-----------------------------------------------------------
	 SCS Same-Spin Scale       =       0.3333333333333333 [-]
	 SCS Opposite-Spin Scale   =       1.2000000000000000 [-]
	 SCS Same-Spin Energy      =      -0.1275884814340055 [Eh]
	 SCS Opposite-Spin Energy  =      -1.5045958783026043 [Eh]
	 SCS Correlation Energy    =      -1.6321843597366099 [Eh]
	 SCS Total Energy          =    -384.5362476823940483 [Eh]
	-----------------------------------------------------------

  Dipole Moment: [D]
     X:     0.1759      Y:    -1.4201      Z:     0.2394     Total:     1.4508

*** Psi4 exiting successfully. Buy a developer a beer!
