                               Psi4 1.3.2 release

  ==> Input File <==

--------------------------------------------------------------------------
#psi4
#
memory 32 gb

molecule  {
0 1
  O        3.1501630     0.3869830     0.0122970
  O        1.7226580    -1.3643080    -0.2059640
  C       -2.9163610     0.3476720    -0.5022120
  C       -1.4960630     0.8252950    -0.4074400
  C        0.8585340     0.8235180     0.4136200
  C       -0.5245990     0.2621860     0.3264500
  C       -3.2476580    -0.8824200     0.3361610
  C        1.8817690    -0.2339679     0.0825186
  H       -3.5825680     1.1749950    -0.2170990
  H       -3.1475630     0.1432210    -1.5599470
  H       -1.2553160     1.7190160    -0.9933200
  H        0.9341787     1.7371333    -0.1936356
  H        1.0972480     1.1531100     1.4329360
  H       -0.7130820    -0.6444280     0.9033180
  H       -4.2956480    -1.1625270     0.2123440
  H       -2.6314050    -1.7369230     0.0388270
  H       -3.0739380    -0.6897760     1.4001060
  H        3.7686820    -0.3352680    -0.2293440
units angstrom
no_reorient  #important for SAPT in psi4, default
symmetry c1  #important for SAPT in psi4, default
}

set PROPERTIES_ORIGIN ["COM"]
properties('MP2/aug-cc-pvtz', properties = ['dipole'])
--------------------------------------------------------------------------

    Molecular point group: c1
  Charge       = 0
  Multiplicity = 1
  Basis Set: AUG-CC-PVTZ
    Blend: AUG-CC-PVTZ
  Basis Set: (AUG-CC-PVTZ AUX)
    Blend: AUG-CC-PVTZ-JKFIT

    Orbital Energies [Eh]
    ---------------------

    Doubly Occupied:

       1A    -20.601549     2A    -20.563272     3A    -11.389429
       4A    -11.254703     5A    -11.236267     6A    -11.232830
       7A    -11.230852     8A    -11.215686     9A     -1.459920
      10A     -1.362364    11A     -1.104605    12A     -1.046188
      13A     -0.959219    14A     -0.868269    15A     -0.794442
      16A     -0.741945    17A     -0.702953    18A     -0.683664
      19A     -0.652475    20A     -0.623780    21A     -0.613001
      22A     -0.602988    23A     -0.584090    24A     -0.551973
      25A     -0.526141    26A     -0.499117    27A     -0.494724
      28A     -0.491953    29A     -0.482820    30A     -0.459219
      31A     -0.354243

  @DF-RHF Final Energy:  -382.89870839083744

   => Energetics <=

    Nuclear Repulsion Energy =            355.2164433050073171
    One-Electron Energy =               -1225.4609457925605511
    Two-Electron Energy =                 487.3457940967158493
    Total Energy =                       -382.8987083908374416
  Basis Set: (AUG-CC-PVTZ AUX)
    Blend: AUG-CC-PVTZ-RI
    Molecular point group: c1

    Geometry (in Angstrom), charge = 0, multiplicity = 1:

       Center              X                  Y                   Z               Mass
    ------------   -----------------  -----------------  -----------------  -----------------
         O            3.153604188448     0.391854202438     0.006231464406    15.994914619570
         O            1.726099188448    -1.359436797562    -0.212029535594    15.994914619570
         C           -2.912919811552     0.352543202438    -0.508277535594    12.000000000000
         C           -1.492621811552     0.830166202438    -0.413505535594    12.000000000000
         C            0.861975188448     0.828389202438     0.407554464406    12.000000000000
         C           -0.521157811552     0.267057202438     0.320384464406    12.000000000000
         C           -3.244216811552    -0.877548797562     0.330095464406    12.000000000000
         C            1.885210188448    -0.229096697562     0.076453064406    12.000000000000
         H           -3.579126811552     1.179866202438    -0.223164535594     1.007825032230
         H           -3.144121811552     0.148092202438    -1.566012535594     1.007825032230
         H           -1.251874811552     1.723887202438    -0.999385535594     1.007825032230
         H            0.937619888448     1.742004502438    -0.199701135594     1.007825032230
         H            1.100689188448     1.157981202438     1.426870464406     1.007825032230
         H           -0.709640811552    -0.639556797562     0.897252464406     1.007825032230
         H           -4.292206811552    -1.157655797562     0.206278464406     1.007825032230
         H           -2.627963811552    -1.732051797562     0.032761464406     1.007825032230
         H           -3.070496811552    -0.684904797562     1.394040464406     1.007825032230
         H            3.772123188448    -0.330396797562    -0.235409535594     1.007825032230

  Basis Set: AUG-CC-PVTZ
    Blend: AUG-CC-PVTZ
  Basis Set: (AUG-CC-PVTZ AUX)
    Blend: AUG-CC-PVTZ-JKFIT
	 Reference Energy          =    -382.8987083908374416 [Eh]
	 Singles Energy            =      -0.0000000000000000 [Eh]
	 Same-Spin Energy          =      -0.3828792526925410 [Eh]
	 Opposite-Spin Energy      =      -1.2542670667475899 [Eh]
	 Correlation Energy        =      -1.6371463194401308 [Eh]
	 Total Energy              =    -384.5358547102775901 [Eh]

	 ================> DF-SCS-MP2 Energies <==================
	-----------------------------------------------------------
	 SCS Same-Spin Scale       =       0.3333333333333333 [-]
	 SCS Opposite-Spin Scale   =       1.2000000000000000 [-]
	 SCS Same-Spin Energy      =      -0.1276264175641803 [Eh]
	 SCS Opposite-Spin Energy  =      -1.5051204800971079 [Eh]
	 SCS Correlation Energy    =      -1.6327468976612882 [Eh]
	 SCS Total Energy          =    -384.5314552884987052 [Eh]
	-----------------------------------------------------------

  Dipole Moment: [D]
     X:    -0.5233      Y:     1.1114      Z:     0.2613     Total:     1.2559

*** Psi4 exiting successfully. Buy a developer a beer!
