                               Psi4 1.3.2 release

  ==> Input File <==

--------------------------------------------------------------------------
#psi4
#
memory 32 gb

molecule  {
0 1
  O        3.1501630     0.3869830     0.0122970
  O        1.7226580    -1.3643080    -0.2059640
  C       -2.9163610     0.3476720    -0.5022120
  C       -1.5107302     0.8083584    -0.4006467
  C        0.8651913     0.8040204     0.4296373
  C       -0.5245990     0.2621860     0.3264500
  C       -3.2476580    -0.8824200     0.3361610
  C        1.9107340    -0.1856640     0.0271730
  H       -3.5825680     1.1749950    -0.2170990
  H       -3.1475630     0.1432210    -1.5599470
  H       -1.2553160     1.7190160    -0.9933200
  H        0.9787830     1.7133270    -0.2211670
  H        1.0972480     1.1531100     1.4329360
  H       -0.7130820    -0.6444280     0.9033180
  H       -4.2956480    -1.1625270     0.2123440
  H       -2.6314050    -1.7369230     0.0388270
  H       -3.0739380    -0.6897760     1.4001060
  H        3.7686820    -0.3352680    -0.2293440
units angstrom
no_reorient  #important for SAPT in psi4, default
symmetry c1  #important for SAPT in psi4, default
}

set PROPERTIES_ORIGIN ["COM"]
properties('MP2/aug-cc-pvtz', properties = ['dipole'])
--------------------------------------------------------------------------

    Molecular point group: c1
  Charge       = 0
  Multiplicity = 1
  Basis Set: AUG-CC-PVTZ
    Blend: AUG-CC-PVTZ
  Basis Set: (AUG-CC-PVTZ AUX)
    Blend: AUG-CC-PVTZ-JKFIT

    Orbital Energies [Eh]
    ---------------------

    Doubly Occupied:

       1A    -20.615992     2A    -20.552610     3A    -11.390408
       4A    -11.255160     5A    -11.236991     6A    -11.232348
       7A    -11.229925     8A    -11.214767     9A     -1.459066
      10A     -1.358369    11A     -1.104345    12A     -1.048431
      13A     -0.960994    14A     -0.872629    15A     -0.806743
      16A     -0.734694    17A     -0.702880    18A     -0.684547
      19A     -0.656202    20A     -0.626367    21A     -0.613599
      22A     -0.596776    23A     -0.584516    24A     -0.553826
      25A     -0.523268    26A     -0.499238    27A     -0.494851
      28A     -0.483265    29A     -0.477517    30A     -0.456612
      31A     -0.354316

  @DF-RHF Final Energy:  -382.90112054282645

   => Energetics <=

    Nuclear Repulsion Energy =            355.3534744490405046
    One-Electron Energy =               -1225.7466884270854734
    Two-Electron Energy =                 487.4920934352185213
    Total Energy =                       -382.9011205428264475
  Basis Set: (AUG-CC-PVTZ AUX)
    Blend: AUG-CC-PVTZ-RI
    Molecular point group: c1

    Geometry (in Angstrom), charge = 0, multiplicity = 1:

       Center              X                  Y                   Z               Mass
    ------------   -----------------  -----------------  -----------------  -----------------
         O            3.151005612833     0.390815841703     0.009897405270    15.994914619570
         O            1.723500612833    -1.360475158297    -0.208363594730    15.994914619570
         C           -2.915518387167     0.351504841703    -0.504611594730    12.000000000000
         C           -1.509887587167     0.812191241703    -0.403046294730    12.000000000000
         C            0.866033912833     0.807853241703     0.427237705270    12.000000000000
         C           -0.523756387167     0.266018841703     0.324050405270    12.000000000000
         C           -3.246815387167    -0.878587158297     0.333761405270    12.000000000000
         C            1.911576612833    -0.181831158297     0.024773405270    12.000000000000
         H           -3.581725387167     1.178827841703    -0.219498594730     1.007825032230
         H           -3.146720387167     0.147053841703    -1.562346594730     1.007825032230
         H           -1.254473387167     1.722848841703    -0.995719594730     1.007825032230
         H            0.979625612833     1.717159841703    -0.223566594730     1.007825032230
         H            1.098090612833     1.156942841703     1.430536405270     1.007825032230
         H           -0.712239387167    -0.640595158297     0.900918405270     1.007825032230
         H           -4.294805387167    -1.158694158297     0.209944405270     1.007825032230
         H           -2.630562387167    -1.733090158297     0.036427405270     1.007825032230
         H           -3.073095387167    -0.685943158297     1.397706405270     1.007825032230
         H            3.769524612833    -0.331435158297    -0.231743594730     1.007825032230

  Basis Set: AUG-CC-PVTZ
    Blend: AUG-CC-PVTZ
  Basis Set: (AUG-CC-PVTZ AUX)
    Blend: AUG-CC-PVTZ-JKFIT
	 Reference Energy          =    -382.9011205428264475 [Eh]
	 Singles Energy            =      -0.0000000000000000 [Eh]
	 Same-Spin Energy          =      -0.3834191194821990 [Eh]
	 Opposite-Spin Energy      =      -1.2549222542925009 [Eh]
	 Correlation Energy        =      -1.6383413737746999 [Eh]
	 Total Energy              =    -384.5394619166011694 [Eh]

	 ================> DF-SCS-MP2 Energies <==================
	-----------------------------------------------------------
	 SCS Same-Spin Scale       =       0.3333333333333333 [-]
	 SCS Opposite-Spin Scale   =       1.2000000000000000 [-]
	 SCS Same-Spin Energy      =      -0.1278063731607330 [Eh]
	 SCS Opposite-Spin Energy  =      -1.5059067051510011 [Eh]
	 SCS Correlation Energy    =      -1.6337130783117342 [Eh]
	 SCS Total Energy          =    -384.5348336211382048 [Eh]
	-----------------------------------------------------------

  Dipole Moment: [D]
     X:    -0.2059      Y:     1.3849      Z:     0.2203     Total:     1.4173

*** Psi4 exiting successfully. Buy a developer a beer!
