                               Psi4 1.3.2 release

  ==> Input File <==

--------------------------------------------------------------------------
#psi4
#
memory 32 gb

molecule  {
0 1
  O        3.1501630     0.3869830     0.0122970
  O        1.7226580    -1.3643080    -0.2059640
  C       -2.9163610     0.3476720    -0.5022120
  C       -1.4960630     0.8252950    -0.4074400
  C        0.8585340     0.8235180     0.4136200
  C       -0.5245990     0.2621860     0.3264500
  C       -3.2476580    -0.8824200     0.3361610
  C        1.9412546    -0.2477299     0.0091090
  H       -3.5825680     1.1749950    -0.2170990
  H       -3.1475630     0.1432210    -1.5599470
  H       -1.2553160     1.7190160    -0.9933200
  H        0.9787830     1.7133270    -0.2211670
  H        1.0972480     1.1531100     1.4329360
  H       -0.7130820    -0.6444280     0.9033180
  H       -4.2956480    -1.1625270     0.2123440
  H       -2.6314050    -1.7369230     0.0388270
  H       -3.0739380    -0.6897760     1.4001060
  H        3.7284187    -0.3670585    -0.2319250
units angstrom
no_reorient  #important for SAPT in psi4, default
symmetry c1  #important for SAPT in psi4, default
}

set PROPERTIES_ORIGIN ["COM"]
properties('MP2/aug-cc-pvtz', properties = ['dipole'])
--------------------------------------------------------------------------

    Molecular point group: c1
  Charge       = 0
  Multiplicity = 1
  Basis Set: AUG-CC-PVTZ
    Blend: AUG-CC-PVTZ
  Basis Set: (AUG-CC-PVTZ AUX)
    Blend: AUG-CC-PVTZ-JKFIT

    Orbital Energies [Eh]
    ---------------------

    Doubly Occupied:

       1A    -20.616629     2A    -20.562304     3A    -11.385185
       4A    -11.249343     5A    -11.232541     6A    -11.228870
       7A    -11.228453     8A    -11.213872     9A     -1.480249
      10A     -1.388219    11A     -1.097086    12A     -1.035526
      13A     -0.950326    14A     -0.865225    15A     -0.798904
      16A     -0.736568    17A     -0.715300    18A     -0.689434
      19A     -0.656555    20A     -0.624747    21A     -0.611512
      22A     -0.605915    23A     -0.586081    24A     -0.549426
      25A     -0.524489    26A     -0.504712    27A     -0.497203
      28A     -0.489751    29A     -0.479725    30A     -0.452429
      31A     -0.349606

  @DF-RHF Final Energy:  -382.89814246107869

   => Energetics <=

    Nuclear Repulsion Energy =            355.3524971600617732
    One-Electron Energy =               -1225.6889069728890718
    Two-Electron Energy =                 487.4382673517485500
    Total Energy =                       -382.8981424610786917
  Basis Set: (AUG-CC-PVTZ AUX)
    Blend: AUG-CC-PVTZ-RI
    Molecular point group: c1

    Geometry (in Angstrom), charge = 0, multiplicity = 1:

       Center              X                  Y                   Z               Mass
    ------------   -----------------  -----------------  -----------------  -----------------
         O            3.147307929484     0.393793183506     0.014220230711    15.994914619570
         O            1.719802929484    -1.357497816494    -0.204040769289    15.994914619570
         C           -2.919216070516     0.354482183506    -0.500288769289    12.000000000000
         C           -1.498918070516     0.832105183506    -0.405516769289    12.000000000000
         C            0.855678929484     0.830328183506     0.415543230711    12.000000000000
         C           -0.527454070516     0.268996183506     0.328373230711    12.000000000000
         C           -3.250513070516    -0.875609816494     0.338084230711    12.000000000000
         C            1.938399529484    -0.240919716494     0.011032230711    12.000000000000
         H           -3.585423070516     1.181805183506    -0.215175769289     1.007825032230
         H           -3.150418070516     0.150031183506    -1.558023769289     1.007825032230
         H           -1.258171070516     1.725826183506    -0.991396769289     1.007825032230
         H            0.975927929484     1.720137183506    -0.219243769289     1.007825032230
         H            1.094392929484     1.159920183506     1.434859230711     1.007825032230
         H           -0.715937070516    -0.637617816494     0.905241230711     1.007825032230
         H           -4.298503070516    -1.155716816494     0.214267230711     1.007825032230
         H           -2.634260070516    -1.730112816494     0.040750230711     1.007825032230
         H           -3.076793070516    -0.682965816494     1.402029230711     1.007825032230
         H            3.725563629484    -0.360248316494    -0.230001769289     1.007825032230

  Basis Set: AUG-CC-PVTZ
    Blend: AUG-CC-PVTZ
  Basis Set: (AUG-CC-PVTZ AUX)
    Blend: AUG-CC-PVTZ-JKFIT
	 Reference Energy          =    -382.8981424610786917 [Eh]
	 Singles Energy            =      -0.0000000000000000 [Eh]
	 Same-Spin Energy          =      -0.3821676384113226 [Eh]
	 Opposite-Spin Energy      =      -1.2525637635869402 [Eh]
	 Correlation Energy        =      -1.6347314019982628 [Eh]
	 Total Energy              =    -384.5328738630769294 [Eh]

	 ================> DF-SCS-MP2 Energies <==================
	-----------------------------------------------------------
	 SCS Same-Spin Scale       =       0.3333333333333333 [-]
	 SCS Opposite-Spin Scale   =       1.2000000000000000 [-]
	 SCS Same-Spin Energy      =      -0.1273892128037742 [Eh]
	 SCS Opposite-Spin Energy  =      -1.5030765163043283 [Eh]
	 SCS Correlation Energy    =      -1.6304657291081024 [Eh]
	 SCS Total Energy          =    -384.5286081901867874 [Eh]
	-----------------------------------------------------------

  Dipole Moment: [D]
     X:    -0.0488      Y:     0.9872      Z:     0.1126     Total:     0.9948

*** Psi4 exiting successfully. Buy a developer a beer!
