                               Psi4 1.3.2 release

  ==> Input File <==

--------------------------------------------------------------------------
#psi4
#
memory 32 gb

molecule  {
0 1
  O        3.1501630     0.3869830     0.0122970
  O        1.7226580    -1.3643080    -0.2059640
  C       -2.9163610     0.3476720    -0.5022120
  C       -1.4960630     0.8252950    -0.4074400
  C        0.8585340     0.8235180     0.4136200
  C       -0.5245990     0.2621860     0.3264500
  C       -3.2476580    -0.8824200     0.3361610
  C        1.7291865    -0.2695435     0.0293520
  H       -3.5825680     1.1749950    -0.2170990
  H       -3.1475630     0.1432210    -1.5599470
  H       -1.2553160     1.7190160    -0.9933200
  H        0.9787830     1.7133270    -0.2211670
  H        1.0972480     1.1531100     1.4329360
  H       -0.7130820    -0.6444280     0.9033180
  H       -4.2956480    -1.1625270     0.2123440
  H       -2.6314050    -1.7369230     0.0388270
  H       -3.0739380    -0.6897760     1.4001060
  H        3.7686820    -0.3352680    -0.2293440
units angstrom
no_reorient  #important for SAPT in psi4, default
symmetry c1  #important for SAPT in psi4, default
}

set PROPERTIES_ORIGIN ["COM"]
properties('MP2/aug-cc-pvtz', properties = ['dipole'])
--------------------------------------------------------------------------

    Molecular point group: c1
  Charge       = 0
  Multiplicity = 1
  Basis Set: AUG-CC-PVTZ
    Blend: AUG-CC-PVTZ
  Basis Set: (AUG-CC-PVTZ AUX)
    Blend: AUG-CC-PVTZ-JKFIT

    Orbital Energies [Eh]
    ---------------------

    Doubly Occupied:

       1A    -20.585982     2A    -20.551979     3A    -11.390765
       4A    -11.262581     5A    -11.243680     6A    -11.239719
       7A    -11.235983     8A    -11.220560     9A     -1.495641
      10A     -1.305885    11A     -1.119266    12A     -1.060037
      13A     -0.967730    14A     -0.871376    15A     -0.775783
      16A     -0.755191    17A     -0.699268    18A     -0.690401
      19A     -0.661439    20A     -0.626141    21A     -0.617816
      22A     -0.603898    23A     -0.588337    24A     -0.554907
      25A     -0.534947    26A     -0.504191    27A     -0.497523
      28A     -0.489605    29A     -0.476022    30A     -0.445176
      31A     -0.362072

  @DF-RHF Final Energy:  -382.86492196178114

   => Energetics <=

    Nuclear Repulsion Energy =            356.0966516158221680
    One-Electron Energy =               -1227.0553403686983529
    Two-Electron Energy =                 488.0937667910951063
    Total Energy =                       -382.8649219617811355
  Basis Set: (AUG-CC-PVTZ AUX)
    Blend: AUG-CC-PVTZ-RI
    Molecular point group: c1

    Geometry (in Angstrom), charge = 0, multiplicity = 1:

       Center              X                  Y                   Z               Mass
    ------------   -----------------  -----------------  -----------------  -----------------
         O            3.169261826210     0.395807103081     0.012067856468    15.994914619570
         O            1.741756826210    -1.355483896919    -0.206193143532    15.994914619570
         C           -2.897262173790     0.356496103081    -0.502441143532    12.000000000000
         C           -1.476964173790     0.834119103081    -0.407669143532    12.000000000000
         C            0.877632826210     0.832342103081     0.413390856468    12.000000000000
         C           -0.505500173790     0.271010103081     0.326220856468    12.000000000000
         C           -3.228559173790    -0.873595896919     0.335931856468    12.000000000000
         C            1.748285326210    -0.260719396919     0.029122856468    12.000000000000
         H           -3.563469173790     1.183819103081    -0.217328143532     1.007825032230
         H           -3.128464173790     0.152045103081    -1.560176143532     1.007825032230
         H           -1.236217173790     1.727840103081    -0.993549143532     1.007825032230
         H            0.997881826210     1.722151103081    -0.221396143532     1.007825032230
         H            1.116346826210     1.161934103081     1.432706856468     1.007825032230
         H           -0.693983173790    -0.635603896919     0.903088856468     1.007825032230
         H           -4.276549173790    -1.153702896919     0.212114856468     1.007825032230
         H           -2.612306173790    -1.728098896919     0.038597856468     1.007825032230
         H           -3.054839173790    -0.680951896919     1.399876856468     1.007825032230
         H            3.787780826210    -0.326443896919    -0.229573143532     1.007825032230

  Basis Set: AUG-CC-PVTZ
    Blend: AUG-CC-PVTZ
  Basis Set: (AUG-CC-PVTZ AUX)
    Blend: AUG-CC-PVTZ-JKFIT
	 Reference Energy          =    -382.8649219617811355 [Eh]
	 Singles Energy            =      -0.0000000000000000 [Eh]
	 Same-Spin Energy          =      -0.3837506347747112 [Eh]
	 Opposite-Spin Energy      =      -1.2565281040150940 [Eh]
	 Correlation Energy        =      -1.6402787387898052 [Eh]
	 Total Energy              =    -384.5052007005709243 [Eh]

	 ================> DF-SCS-MP2 Energies <==================
	-----------------------------------------------------------
	 SCS Same-Spin Scale       =       0.3333333333333333 [-]
	 SCS Opposite-Spin Scale   =       1.2000000000000000 [-]
	 SCS Same-Spin Energy      =      -0.1279168782582371 [Eh]
	 SCS Opposite-Spin Energy  =      -1.5078337248181126 [Eh]
	 SCS Correlation Energy    =      -1.6357506030763496 [Eh]
	 SCS Total Energy          =    -384.5006725648574957 [Eh]
	-----------------------------------------------------------

  Dipole Moment: [D]
     X:    -1.9679      Y:     0.6533      Z:     0.2267     Total:     2.0859

*** Psi4 exiting successfully. Buy a developer a beer!
