                               Psi4 1.3.2 release

  ==> Input File <==

--------------------------------------------------------------------------
#psi4
#
memory 32 gb

molecule  {
0 1
  O        3.1452869     0.3974858     0.0151058
  O        1.7122438    -1.3628889    -0.2044956
  C       -2.9163610     0.3476720    -0.5022120
  C       -1.4960630     0.8252950    -0.4074400
  C        0.8585340     0.8235180     0.4136200
  C       -0.5245990     0.2621860     0.3264500
  C       -3.2476580    -0.8824200     0.3361610
  C        1.9107340    -0.1856640     0.0271730
  H       -3.5825680     1.1749950    -0.2170990
  H       -3.1475630     0.1432210    -1.5599470
  H       -1.2553160     1.7190160    -0.9933200
  H        0.9787830     1.7133270    -0.2211670
  H        1.0972480     1.1531100     1.4329360
  H       -0.7130820    -0.6444280     0.9033180
  H       -4.2956480    -1.1625270     0.2123440
  H       -2.6314050    -1.7369230     0.0388270
  H       -3.0739380    -0.6897760     1.4001060
  H        3.7686820    -0.3352680    -0.2293440
units angstrom
no_reorient  #important for SAPT in psi4, default
symmetry c1  #important for SAPT in psi4, default
}

set PROPERTIES_ORIGIN ["COM"]
properties('MP2/aug-cc-pvtz', properties = ['dipole'])
--------------------------------------------------------------------------

    Molecular point group: c1
  Charge       = 0
  Multiplicity = 1
  Basis Set: AUG-CC-PVTZ
    Blend: AUG-CC-PVTZ
  Basis Set: (AUG-CC-PVTZ AUX)
    Blend: AUG-CC-PVTZ-JKFIT

    Orbital Energies [Eh]
    ---------------------

    Doubly Occupied:

       1A    -20.618176     2A    -20.553557     3A    -11.390631
       4A    -11.253170     5A    -11.234964     6A    -11.231759
       7A    -11.229744     8A    -11.214502     9A     -1.457666
      10A     -1.358935    11A     -1.102507    12A     -1.044861
      13A     -0.959568    14A     -0.869540    15A     -0.803894
      16A     -0.738640    17A     -0.703134    18A     -0.682144
      19A     -0.654269    20A     -0.625689    21A     -0.611846
      22A     -0.599092    23A     -0.582144    24A     -0.552029
      25A     -0.527457    26A     -0.497919    27A     -0.491010
      28A     -0.485359    29A     -0.480222    30A     -0.455797
      31A     -0.353497

  @DF-RHF Final Energy:  -382.90183256799719

   => Energetics <=

    Nuclear Repulsion Energy =            355.1223947966874448
    One-Electron Energy =               -1225.3210084823147099
    Two-Electron Energy =                 487.2967811176300756
    Total Energy =                       -382.9018325679971895
  Basis Set: (AUG-CC-PVTZ AUX)
    Blend: AUG-CC-PVTZ-RI
    Molecular point group: c1

    Geometry (in Angstrom), charge = 0, multiplicity = 1:

       Center              X                  Y                   Z               Mass
    ------------   -----------------  -----------------  -----------------  -----------------
         O            3.147430913221     0.395814032744     0.014506128193    15.994914619570
         O            1.714387813221    -1.364560667256    -0.205095271807    15.994914619570
         C           -2.914216986779     0.346000232744    -0.502811671807    12.000000000000
         C           -1.493918986779     0.823623232744    -0.408039671807    12.000000000000
         C            0.860678013221     0.821846232744     0.413020328193    12.000000000000
         C           -0.522454986779     0.260514232744     0.325850328193    12.000000000000
         C           -3.245513986779    -0.884091767256     0.335561328193    12.000000000000
         C            1.912878013221    -0.187335767256     0.026573328193    12.000000000000
         H           -3.580423986779     1.173323232744    -0.217698671807     1.007825032230
         H           -3.145418986779     0.141549232744    -1.560546671807     1.007825032230
         H           -1.253171986779     1.717344232744    -0.993919671807     1.007825032230
         H            0.980927013221     1.711655232744    -0.221766671807     1.007825032230
         H            1.099392013221     1.151438232744     1.432336328193     1.007825032230
         H           -0.710937986779    -0.646099767256     0.902718328193     1.007825032230
         H           -4.293503986779    -1.164198767256     0.211744328193     1.007825032230
         H           -2.629260986779    -1.738594767256     0.038227328193     1.007825032230
         H           -3.071793986779    -0.691447767256     1.399506328193     1.007825032230
         H            3.770826013221    -0.336939767256    -0.229943671807     1.007825032230

  Basis Set: AUG-CC-PVTZ
    Blend: AUG-CC-PVTZ
  Basis Set: (AUG-CC-PVTZ AUX)
    Blend: AUG-CC-PVTZ-JKFIT
	 Reference Energy          =    -382.9018325679971895 [Eh]
	 Singles Energy            =      -0.0000000000000000 [Eh]
	 Same-Spin Energy          =      -0.3833878340568970 [Eh]
	 Opposite-Spin Energy      =      -1.2550715620633188 [Eh]
	 Correlation Energy        =      -1.6384593961202158 [Eh]
	 Total Energy              =    -384.5402919641173867 [Eh]

	 ================> DF-SCS-MP2 Energies <==================
	-----------------------------------------------------------
	 SCS Same-Spin Scale       =       0.3333333333333333 [-]
	 SCS Opposite-Spin Scale   =       1.2000000000000000 [-]
	 SCS Same-Spin Energy      =      -0.1277959446856323 [Eh]
	 SCS Opposite-Spin Energy  =      -1.5060858744759826 [Eh]
	 SCS Correlation Energy    =      -1.6338818191616149 [Eh]
	 SCS Total Energy          =    -384.5357143871588050 [Eh]
	-----------------------------------------------------------

  Dipole Moment: [D]
     X:    -0.1193      Y:     1.3666      Z:     0.1978     Total:     1.3860

*** Psi4 exiting successfully. Buy a developer a beer!
