                               Psi4 1.4a3.dev225

  ==> Input File <==

--------------------------------------------------------------------------
#psi4
#
memory 32 gb

molecule  {
0 1
  O       -3.2271830    -0.3786580    -0.1569640
  O       -1.8275510     1.3993140    -0.2614160
  C        2.8225670    -0.4310850    -0.3953020
  C        1.4482907    -0.8787999    -0.2470575
  C       -0.9807690    -0.7586230     0.4926230
  C        0.4143070    -0.2269140     0.3719860
  C        3.1298050     0.9339520     0.2103920
  C       -2.0113430     0.2195500    -0.0192140
  H        3.4859920    -1.1868430     0.0468460
  H        3.0699840    -0.4203720    -1.4654230
  H        1.1737130    -1.8673930    -0.6818980
  H       -1.0998220    -1.7054460    -0.0447970
  H       -1.2414610    -0.9681590     1.5400430
  H        0.5929560     0.7502750     0.8121930
  H        4.1791340     1.1958370     0.0500290
  H        2.5131630     1.7137800    -0.2445400
  H        2.9424530     0.9385920     1.2876810
  H       -3.8316340     0.3284440    -0.4642740
units angstrom
no_reorient  #important for SAPT in psi4, default
symmetry c1  #important for SAPT in psi4, default
}

set PROPERTIES_ORIGIN ["COM"]
properties('MP2/aug-cc-pvtz', properties = ['dipole'])
--------------------------------------------------------------------------

    Molecular point group: c1
  Charge       = 0
  Multiplicity = 1
  Basis Set: AUG-CC-PVTZ
    Blend: AUG-CC-PVTZ
  Basis Set: (AUG-CC-PVTZ AUX)
    Blend: AUG-CC-PVTZ-JKFIT

    Orbital Energies [Eh]
    ---------------------

    Doubly Occupied:

       1A    -20.616594     2A    -20.552220     3A    -11.391464
       4A    -11.255885     5A    -11.239289     6A    -11.235458
       7A    -11.228274     8A    -11.215048     9A     -1.460129
      10A     -1.357345    11A     -1.103458    12A     -1.050481
      13A     -0.956681    14A     -0.875917    15A     -0.807314
      16A     -0.736321    17A     -0.702757    18A     -0.682512
      19A     -0.656769    20A     -0.627920    21A     -0.616165
      22A     -0.596537    23A     -0.581022    24A     -0.554343
      25A     -0.528442    26A     -0.501329    27A     -0.498359
      28A     -0.482457    29A     -0.479153    30A     -0.456128
      31A     -0.346006

  @DF-RHF Final Energy:  -382.89869239298685

   => Energetics <=

    Nuclear Repulsion Energy =            354.9377112972834993
    One-Electron Energy =               -1224.8892517694155231
    Two-Electron Energy =                 487.0528480791451784
    Total Energy =                       -382.8986923929868453
  Basis Set: (AUG-CC-PVTZ AUX)
    Blend: AUG-CC-PVTZ-RI
    Molecular point group: c1

    Geometry (in Angstrom), charge = 0, multiplicity = 1:

       Center              X                  Y                   Z               Mass
    ------------   -----------------  -----------------  -----------------  -----------------
         O           -3.129880981090    -0.390856199416    -0.149175478001    15.994914619570
         O           -1.730248981090     1.387115800584    -0.253627478001    15.994914619570
         C            2.919869018910    -0.443283199416    -0.387513478001    12.000000000000
         C            1.545592718910    -0.890998099416    -0.239268978001    12.000000000000
         C           -0.883466981090    -0.770821199416     0.500411521999    12.000000000000
         C            0.511609018910    -0.239112199416     0.379774521999    12.000000000000
         C            3.227107018910     0.921753800584     0.218180521999    12.000000000000
         C           -1.914040981090     0.207351800584    -0.011425478001    12.000000000000
         H            3.583294018910    -1.199041199416     0.054634521999     1.007825032230
         H            3.167286018910    -0.432570199416    -1.457634478001     1.007825032230
         H            1.271015018910    -1.879591199416    -0.674109478001     1.007825032230
         H           -1.002519981090    -1.717644199416    -0.037008478001     1.007825032230
         H           -1.144158981090    -0.980357199416     1.547831521999     1.007825032230
         H            0.690258018910     0.738076800584     0.819981521999     1.007825032230
         H            4.276436018910     1.183638800584     0.057817521999     1.007825032230
         H            2.610465018910     1.701581800584    -0.236751478001     1.007825032230
         H            3.039755018910     0.926393800584     1.295469521999     1.007825032230
         H           -3.734331981090     0.316245800584    -0.456485478001     1.007825032230

  Basis Set: AUG-CC-PVTZ
    Blend: AUG-CC-PVTZ
  Basis Set: (AUG-CC-PVTZ AUX)
    Blend: AUG-CC-PVTZ-JKFIT
	 Reference Energy          =    -382.8986923929868453 [Eh]
	 Singles Energy            =      -0.0000000000000000 [Eh]
	 Same-Spin Energy          =      -0.3838548994896815 [Eh]
	 Opposite-Spin Energy      =      -1.2555797179104824 [Eh]
	 Correlation Energy        =      -1.6394346174001639 [Eh]
	 Total Energy              =    -384.5381270103870293 [Eh]

	 ================> DF-SCS-MP2 Energies <==================
	-----------------------------------------------------------
	 SCS Same-Spin Scale       =       0.3333333333333333 [-]
	 SCS Opposite-Spin Scale   =       1.2000000000000000 [-]
	 SCS Same-Spin Energy      =      -0.1279516331632272 [Eh]
	 SCS Opposite-Spin Energy  =      -1.5066956614925788 [Eh]
	 SCS Correlation Energy    =      -1.6346472946558059 [Eh]
	 SCS Total Energy          =    -384.5333396876426377 [Eh]
	-----------------------------------------------------------

  Dipole Moment: [D]
     X:     0.2115      Y:    -1.4008      Z:     0.2288     Total:     1.4350

*** Psi4 exiting successfully. Buy a developer a beer!
