                               Psi4 1.3.2 release

  ==> Input File <==

--------------------------------------------------------------------------
#psi4
#
memory 32 gb

molecule  {
0 1
  O        3.1501630     0.3869830     0.0122970
  O        1.7226580    -1.3643080    -0.2059640
  C       -2.9163610     0.3476720    -0.5022120
  C       -1.4960630     0.8252950    -0.4074400
  C        0.8585340     0.8235180     0.4136200
  C       -0.5245990     0.2621860     0.3264500
  C       -3.2476580    -0.8824200     0.3361610
  C        1.8952686    -0.2825831     0.0080023
  H       -3.5825680     1.1749950    -0.2170990
  H       -3.1475630     0.1432210    -1.5599470
  H       -1.2553160     1.7190160    -0.9933200
  H        0.9787830     1.7133270    -0.2211670
  H        1.0972480     1.1531100     1.4329360
  H       -0.7130820    -0.6444280     0.9033180
  H       -4.2956480    -1.1625270     0.2123440
  H       -2.6314050    -1.7369230     0.0388270
  H       -3.0739380    -0.6897760     1.4001060
  H        3.7686820    -0.3352680    -0.2293440
units angstrom
no_reorient  #important for SAPT in psi4, default
symmetry c1  #important for SAPT in psi4, default
}

set PROPERTIES_ORIGIN ["COM"]
properties('MP2/aug-cc-pvtz', properties = ['dipole'])
--------------------------------------------------------------------------

    Molecular point group: c1
  Charge       = 0
  Multiplicity = 1
  Basis Set: AUG-CC-PVTZ
    Blend: AUG-CC-PVTZ
  Basis Set: (AUG-CC-PVTZ AUX)
    Blend: AUG-CC-PVTZ-JKFIT

    Orbital Energies [Eh]
    ---------------------

    Doubly Occupied:

       1A    -20.597754     2A    -20.570980     3A    -11.381134
       4A    -11.250438     5A    -11.233847     6A    -11.229900
       7A    -11.229509     8A    -11.215056     9A     -1.495807
      10A     -1.373043    11A     -1.099027    12A     -1.037361
      13A     -0.950382    14A     -0.863946    15A     -0.788472
      16A     -0.739671    17A     -0.713017    18A     -0.692126
      19A     -0.656801    20A     -0.624437    21A     -0.612517
      22A     -0.607566    23A     -0.587351    24A     -0.549581
      25A     -0.525493    26A     -0.508141    27A     -0.498420
      28A     -0.491235    29A     -0.481531    30A     -0.452431
      31A     -0.350784

  @DF-RHF Final Energy:  -382.88964481098145

   => Energetics <=

    Nuclear Repulsion Energy =            355.5998574569106268
    One-Electron Energy =               -1226.1634915406289110
    Two-Electron Energy =                 487.6739892727368328
    Total Energy =                       -382.8896448109814514
  Basis Set: (AUG-CC-PVTZ AUX)
    Blend: AUG-CC-PVTZ-RI
    Molecular point group: c1

    Geometry (in Angstrom), charge = 0, multiplicity = 1:

       Center              X                  Y                   Z               Mass
    ------------   -----------------  -----------------  -----------------  -----------------
         O            3.151789933918     0.397178873348     0.014313852026    15.994914619570
         O            1.724284933918    -1.354112126652    -0.203947147974    15.994914619570
         C           -2.914734066082     0.357867873348    -0.500195147974    12.000000000000
         C           -1.494436066082     0.835490873348    -0.405423147974    12.000000000000
         C            0.860160933918     0.833713873348     0.415636852026    12.000000000000
         C           -0.522972066082     0.272381873348     0.328466852026    12.000000000000
         C           -3.246031066082    -0.872224126652     0.338177852026    12.000000000000
         C            1.896895533918    -0.272387226652     0.010019152026    12.000000000000
         H           -3.580941066082     1.185190873348    -0.215082147974     1.007825032230
         H           -3.145936066082     0.153416873348    -1.557930147974     1.007825032230
         H           -1.253689066082     1.729211873348    -0.991303147974     1.007825032230
         H            0.980409933918     1.723522873348    -0.219150147974     1.007825032230
         H            1.098874933918     1.163305873348     1.434952852026     1.007825032230
         H           -0.711455066082    -0.634232126652     0.905334852026     1.007825032230
         H           -4.294021066082    -1.152331126652     0.214360852026     1.007825032230
         H           -2.629778066082    -1.726727126652     0.040843852026     1.007825032230
         H           -3.072311066082    -0.679580126652     1.402122852026     1.007825032230
         H            3.770308933918    -0.325072126652    -0.227327147974     1.007825032230

  Basis Set: AUG-CC-PVTZ
    Blend: AUG-CC-PVTZ
  Basis Set: (AUG-CC-PVTZ AUX)
    Blend: AUG-CC-PVTZ-JKFIT
	 Reference Energy          =    -382.8896448109814514 [Eh]
	 Singles Energy            =      -0.0000000000000000 [Eh]
	 Same-Spin Energy          =      -0.3815510336010924 [Eh]
	 Opposite-Spin Energy      =      -1.2517129527258750 [Eh]
	 Correlation Energy        =      -1.6332639863269673 [Eh]
	 Total Energy              =    -384.5229087973084461 [Eh]

	 ================> DF-SCS-MP2 Energies <==================
	-----------------------------------------------------------
	 SCS Same-Spin Scale       =       0.3333333333333333 [-]
	 SCS Opposite-Spin Scale   =       1.2000000000000000 [-]
	 SCS Same-Spin Energy      =      -0.1271836778670308 [Eh]
	 SCS Opposite-Spin Energy  =      -1.5020555432710501 [Eh]
	 SCS Correlation Energy    =      -1.6292392211380808 [Eh]
	 SCS Total Energy          =    -384.5188840321195585 [Eh]
	-----------------------------------------------------------

  Dipole Moment: [D]
     X:    -0.4278      Y:     0.7234      Z:     0.0969     Total:     0.8459

*** Psi4 exiting successfully. Buy a developer a beer!
