                               Psi4 1.3.2 release

  ==> Input File <==

--------------------------------------------------------------------------
#psi4
#
memory 32 gb

molecule  {
0 1
  O        3.1501630     0.3869830     0.0122970
  O        1.7226580    -1.3643080    -0.2059640
  C       -2.9163610     0.3476720    -0.5022120
  C       -1.4860872     0.7861337    -0.3740715
  C        0.8585340     0.8235180     0.4136200
  C       -0.5245990     0.2621860     0.3264500
  C       -3.1972333    -0.8832376     0.3531977
  C        1.9107340    -0.1856640     0.0271730
  H       -3.5825680     1.1749950    -0.2170990
  H       -3.1475630     0.1432210    -1.5599470
  H       -1.2553160     1.7190160    -0.9933200
  H        0.9787830     1.7133270    -0.2211670
  H        1.0972480     1.1531100     1.4329360
  H       -0.7130820    -0.6444280     0.9033180
  H       -4.2956480    -1.1625270     0.2123440
  H       -2.6314050    -1.7369230     0.0388270
  H       -3.0739380    -0.6897760     1.4001060
  H        3.7686820    -0.3352680    -0.2293440
units angstrom
no_reorient  #important for SAPT in psi4, default
symmetry c1  #important for SAPT in psi4, default
}

set PROPERTIES_ORIGIN ["COM"]
properties('MP2/aug-cc-pvtz', properties = ['dipole'])
--------------------------------------------------------------------------

    Molecular point group: c1
  Charge       = 0
  Multiplicity = 1
  Basis Set: AUG-CC-PVTZ
    Blend: AUG-CC-PVTZ
  Basis Set: (AUG-CC-PVTZ AUX)
    Blend: AUG-CC-PVTZ-JKFIT

    Orbital Energies [Eh]
    ---------------------

    Doubly Occupied:

       1A    -20.616025     2A    -20.553067     3A    -11.390928
       4A    -11.254810     5A    -11.232500     6A    -11.230989
       7A    -11.226309     8A    -11.214442     9A     -1.458921
      10A     -1.358426    11A     -1.108849    12A     -1.046215
      13A     -0.964202    14A     -0.870173    15A     -0.808659
      16A     -0.732699    17A     -0.702659    18A     -0.682341
      19A     -0.654931    20A     -0.624026    21A     -0.618579
      22A     -0.598719    23A     -0.583136    24A     -0.551122
      25A     -0.524552    26A     -0.508045    27A     -0.495324
      28A     -0.484041    29A     -0.463784    30A     -0.454067
      31A     -0.364562

  @DF-RHF Final Energy:  -382.89763871380313

   => Energetics <=

    Nuclear Repulsion Energy =            356.0945087318003175
    One-Electron Energy =               -1227.2300926961227105
    Two-Electron Energy =                 488.2379452505193171
    Total Energy =                       -382.8976387138031328
  Basis Set: (AUG-CC-PVTZ AUX)
    Blend: AUG-CC-PVTZ-RI
    Molecular point group: c1

    Geometry (in Angstrom), charge = 0, multiplicity = 1:

       Center              X                  Y                   Z               Mass
    ------------   -----------------  -----------------  -----------------  -----------------
         O            3.143808815945     0.391188745324     0.006994444150    15.994914619570
         O            1.716303815945    -1.360102254676    -0.211266555850    15.994914619570
         C           -2.922715184055     0.351877745324    -0.507514555850    12.000000000000
         C           -1.492441384055     0.790339445324    -0.379374055850    12.000000000000
         C            0.852179815945     0.827723745324     0.408317444150    12.000000000000
         C           -0.530953184055     0.266391745324     0.321147444150    12.000000000000
         C           -3.203587484055    -0.879031854676     0.347895144150    12.000000000000
         C            1.904379815945    -0.181458254676     0.021870444150    12.000000000000
         H           -3.588922184055     1.179200745324    -0.222401555850     1.007825032230
         H           -3.153917184055     0.147426745324    -1.565249555850     1.007825032230
         H           -1.261670184055     1.723221745324    -0.998622555850     1.007825032230
         H            0.972428815945     1.717532745324    -0.226469555850     1.007825032230
         H            1.090893815945     1.157315745324     1.427633444150     1.007825032230
         H           -0.719436184055    -0.640222254676     0.898015444150     1.007825032230
         H           -4.302002184055    -1.158321254676     0.207041444150     1.007825032230
         H           -2.637759184055    -1.732717254676     0.033524444150     1.007825032230
         H           -3.080292184055    -0.685570254676     1.394803444150     1.007825032230
         H            3.762327815945    -0.331062254676    -0.234646555850     1.007825032230

  Basis Set: AUG-CC-PVTZ
    Blend: AUG-CC-PVTZ
  Basis Set: (AUG-CC-PVTZ AUX)
    Blend: AUG-CC-PVTZ-JKFIT
	 Reference Energy          =    -382.8976387138031328 [Eh]
	 Singles Energy            =      -0.0000000000000000 [Eh]
	 Same-Spin Energy          =      -0.3830031216349404 [Eh]
	 Opposite-Spin Energy      =      -1.2540695708255531 [Eh]
	 Correlation Energy        =      -1.6370726924604937 [Eh]
	 Total Energy              =    -384.5347114062636251 [Eh]

	 ================> DF-SCS-MP2 Energies <==================
	-----------------------------------------------------------
	 SCS Same-Spin Scale       =       0.3333333333333333 [-]
	 SCS Opposite-Spin Scale   =       1.2000000000000000 [-]
	 SCS Same-Spin Energy      =      -0.1276677072116468 [Eh]
	 SCS Opposite-Spin Energy  =      -1.5048834849906638 [Eh]
	 SCS Correlation Energy    =      -1.6325511922023106 [Eh]
	 SCS Total Energy          =    -384.5301899060054325 [Eh]
	-----------------------------------------------------------

  Dipole Moment: [D]
     X:    -0.1652      Y:     1.3695      Z:     0.2278     Total:     1.3981

*** Psi4 exiting successfully. Buy a developer a beer!
