                               Psi4 1.4a3.dev225

  ==> Input File <==

--------------------------------------------------------------------------
#psi4
#
memory 32 gb

molecule  {
0 1
  O       -3.2271830    -0.3786580    -0.1569640
  O       -1.8275510     1.3993140    -0.2614160
  C        2.8225670    -0.4310850    -0.3953020
  C        1.4009980    -0.8942070    -0.2419560
  C       -0.9807690    -0.7586230     0.4926230
  C        0.3956791    -0.2340137     0.3735968
  C        3.1298050     0.9339520     0.2103920
  C       -2.0113430     0.2195500    -0.0192140
  H        3.4859920    -1.1868430     0.0468460
  H        3.0699840    -0.4203720    -1.4654230
  H        1.1737130    -1.8673930    -0.6818980
  H       -1.0998220    -1.7054460    -0.0447970
  H       -1.2414610    -0.9681590     1.5400430
  H        0.5929560     0.7502750     0.8121930
  H        4.1791340     1.1958370     0.0500290
  H        2.5131630     1.7137800    -0.2445400
  H        2.9424530     0.9385920     1.2876810
  H       -3.8316340     0.3284440    -0.4642740
units angstrom
no_reorient  #important for SAPT in psi4, default
symmetry c1  #important for SAPT in psi4, default
}

set PROPERTIES_ORIGIN ["COM"]
properties('MP2/aug-cc-pvtz', properties = ['dipole'])
--------------------------------------------------------------------------

    Molecular point group: c1
  Charge       = 0
  Multiplicity = 1
  Basis Set: AUG-CC-PVTZ
    Blend: AUG-CC-PVTZ
  Basis Set: (AUG-CC-PVTZ AUX)
    Blend: AUG-CC-PVTZ-JKFIT

    Orbital Energies [Eh]
    ---------------------

    Doubly Occupied:

       1A    -20.616602     2A    -20.552496     3A    -11.391429
       4A    -11.254222     5A    -11.236610     6A    -11.232979
       7A    -11.230421     8A    -11.214500     9A     -1.460243
      10A     -1.357562    11A     -1.103827    12A     -1.047365
      13A     -0.959395    14A     -0.871027    15A     -0.808061
      16A     -0.739190    17A     -0.703203    18A     -0.683300
      19A     -0.656814    20A     -0.624967    21A     -0.612810
      22A     -0.599302    23A     -0.581858    24A     -0.554959
      25A     -0.528992    26A     -0.498804    27A     -0.492722
      28A     -0.483951    29A     -0.480283    30A     -0.456196
      31A     -0.351494

  @DF-RHF Final Energy:  -382.90255710579743

   => Energetics <=

    Nuclear Repulsion Energy =            355.0449464770138661
    One-Electron Energy =               -1225.1238424509574543
    Two-Electron Energy =                 487.1763388681462175
    Total Energy =                       -382.9025571057974275
  Basis Set: (AUG-CC-PVTZ AUX)
    Blend: AUG-CC-PVTZ-RI
    Molecular point group: c1

    Geometry (in Angstrom), charge = 0, multiplicity = 1:

       Center              X                  Y                   Z               Mass
    ------------   -----------------  -----------------  -----------------  -----------------
         O           -3.122946111993    -0.388488476552    -0.149881614198    15.994914619570
         O           -1.723314111993     1.389483523448    -0.254333614198    15.994914619570
         C            2.926803888007    -0.440915476552    -0.388219614198    12.000000000000
         C            1.505234888007    -0.904037476552    -0.234873614198    12.000000000000
         C           -0.876532111993    -0.768453476552     0.499705385802    12.000000000000
         C            0.499915988007    -0.243844176552     0.380679185802    12.000000000000
         C            3.234041888007     0.924121523448     0.217474385802    12.000000000000
         C           -1.907106111993     0.209719523448    -0.012131614198    12.000000000000
         H            3.590228888007    -1.196673476552     0.053928385802     1.007825032230
         H            3.174220888007    -0.430202476552    -1.458340614198     1.007825032230
         H            1.277949888007    -1.877223476552    -0.674815614198     1.007825032230
         H           -0.995585111993    -1.715276476552    -0.037714614198     1.007825032230
         H           -1.137224111993    -0.977989476552     1.547125385802     1.007825032230
         H            0.697192888007     0.740444523448     0.819275385802     1.007825032230
         H            4.283370888007     1.186006523448     0.057111385802     1.007825032230
         H            2.617399888007     1.703949523448    -0.237457614198     1.007825032230
         H            3.046689888007     0.928761523448     1.294763385802     1.007825032230
         H           -3.727397111993     0.318613523448    -0.457191614198     1.007825032230

  Basis Set: AUG-CC-PVTZ
    Blend: AUG-CC-PVTZ
  Basis Set: (AUG-CC-PVTZ AUX)
    Blend: AUG-CC-PVTZ-JKFIT
	 Reference Energy          =    -382.9025571057974275 [Eh]
	 Singles Energy            =      -0.0000000000000000 [Eh]
	 Same-Spin Energy          =      -0.3833049369843589 [Eh]
	 Opposite-Spin Energy      =      -1.2547124694549299 [Eh]
	 Correlation Energy        =      -1.6380174064392887 [Eh]
	 Total Energy              =    -384.5405745122367307 [Eh]

	 ================> DF-SCS-MP2 Energies <==================
	-----------------------------------------------------------
	 SCS Same-Spin Scale       =       0.3333333333333333 [-]
	 SCS Opposite-Spin Scale   =       1.2000000000000000 [-]
	 SCS Same-Spin Energy      =      -0.1277683123281196 [Eh]
	 SCS Opposite-Spin Energy  =      -1.5056549633459158 [Eh]
	 SCS Correlation Energy    =      -1.6334232756740354 [Eh]
	 SCS Total Energy          =    -384.5359803814714610 [Eh]
	-----------------------------------------------------------

  Dipole Moment: [D]
     X:     0.1556      Y:    -1.4130      Z:     0.2404     Total:     1.4417

*** Psi4 exiting successfully. Buy a developer a beer!
