                               Psi4 1.3.2 release

  ==> Input File <==

--------------------------------------------------------------------------
#psi4
#
memory 32 gb

molecule  {
0 1
  O        3.1501630     0.3869830     0.0122970
  O        1.7226580    -1.3643080    -0.2059640
  C       -2.9163610     0.3476720    -0.5022120
  C       -1.4960630     0.8252950    -0.4074400
  C        0.8585340     0.8235180     0.4136200
  C       -0.5245990     0.2621860     0.3264500
  C       -3.2476580    -0.8824200     0.3361610
  C        1.7712110    -0.0518453     0.0784163
  H       -3.5825680     1.1749950    -0.2170990
  H       -3.1475630     0.1432210    -1.5599470
  H       -1.2553160     1.7190160    -0.9933200
  H        0.9787830     1.7133270    -0.2211670
  H        1.0972480     1.1531100     1.4329360
  H       -0.7130820    -0.6444280     0.9033180
  H       -4.2956480    -1.1625270     0.2123440
  H       -2.6314050    -1.7369230     0.0388270
  H       -3.0739380    -0.6897760     1.4001060
  H        3.7686820    -0.3352680    -0.2293440
units angstrom
no_reorient  #important for SAPT in psi4, default
symmetry c1  #important for SAPT in psi4, default
}

set PROPERTIES_ORIGIN ["COM"]
properties('MP2/aug-cc-pvtz', properties = ['dipole'])
--------------------------------------------------------------------------

    Molecular point group: c1
  Charge       = 0
  Multiplicity = 1
  Basis Set: AUG-CC-PVTZ
    Blend: AUG-CC-PVTZ
  Basis Set: (AUG-CC-PVTZ AUX)
    Blend: AUG-CC-PVTZ-JKFIT

    Orbital Energies [Eh]
    ---------------------

    Doubly Occupied:

       1A    -20.596152     2A    -20.541873     3A    -11.406578
       4A    -11.261252     5A    -11.246640     6A    -11.244909
       7A    -11.236590     8A    -11.219333     9A     -1.403765
      10A     -1.284709    11A     -1.143601    12A     -1.077695
      13A     -0.984418    14A     -0.879929    15A     -0.796430
      16A     -0.752314    17A     -0.702843    18A     -0.671861
      19A     -0.661094    20A     -0.631827    21A     -0.617201
      22A     -0.592410    23A     -0.565222    24A     -0.545116
      25A     -0.531590    26A     -0.503433    27A     -0.497965
      28A     -0.490405    29A     -0.441368    30A     -0.440735
      31A     -0.366347

  @DF-RHF Final Energy:  -382.82614728976682

   => Energetics <=

    Nuclear Repulsion Energy =            355.2355483139176613
    One-Electron Energy =               -1225.4521756704673408
    Two-Electron Energy =                 487.3904800667828567
    Total Energy =                       -382.8261472897668227
  Basis Set: (AUG-CC-PVTZ AUX)
    Blend: AUG-CC-PVTZ-RI
    Molecular point group: c1

    Geometry (in Angstrom), charge = 0, multiplicity = 1:

       Center              X                  Y                   Z               Mass
    ------------   -----------------  -----------------  -----------------  -----------------
         O            3.164840834799     0.372905179861     0.006906275750    15.994914619570
         O            1.737335834799    -1.378385820139    -0.211354724250    15.994914619570
         C           -2.901683165201     0.333594179861    -0.507602724250    12.000000000000
         C           -1.481385165201     0.811217179861    -0.412830724250    12.000000000000
         C            0.873211834799     0.809440179861     0.408229275750    12.000000000000
         C           -0.509921165201     0.248108179861     0.321059275750    12.000000000000
         C           -3.232980165201    -0.896497820139     0.330770275750    12.000000000000
         C            1.785888834799    -0.065923120139     0.073025575750    12.000000000000
         H           -3.567890165201     1.160917179861    -0.222489724250     1.007825032230
         H           -3.132885165201     0.129143179861    -1.565337724250     1.007825032230
         H           -1.240638165201     1.704938179861    -0.998710724250     1.007825032230
         H            0.993460834799     1.699249179861    -0.226557724250     1.007825032230
         H            1.111925834799     1.139032179861     1.427545275750     1.007825032230
         H           -0.698404165201    -0.658505820139     0.897927275750     1.007825032230
         H           -4.280970165201    -1.176604820139     0.206953275750     1.007825032230
         H           -2.616727165201    -1.751000820139     0.033436275750     1.007825032230
         H           -3.059260165201    -0.703853820139     1.394715275750     1.007825032230
         H            3.783359834799    -0.349345820139    -0.234734724250     1.007825032230

  Basis Set: AUG-CC-PVTZ
    Blend: AUG-CC-PVTZ
  Basis Set: (AUG-CC-PVTZ AUX)
    Blend: AUG-CC-PVTZ-JKFIT
	 Reference Energy          =    -382.8261472897668227 [Eh]
	 Singles Energy            =      -0.0000000000000000 [Eh]
	 Same-Spin Energy          =      -0.3890509922377388 [Eh]
	 Opposite-Spin Energy      =      -1.2660764001880853 [Eh]
	 Correlation Energy        =      -1.6551273924258241 [Eh]
	 Total Energy              =    -384.4812746821926339 [Eh]

	 ================> DF-SCS-MP2 Energies <==================
	-----------------------------------------------------------
	 SCS Same-Spin Scale       =       0.3333333333333333 [-]
	 SCS Opposite-Spin Scale   =       1.2000000000000000 [-]
	 SCS Same-Spin Energy      =      -0.1296836640792463 [Eh]
	 SCS Opposite-Spin Energy  =      -1.5192916802257024 [Eh]
	 SCS Correlation Energy    =      -1.6489753443049486 [Eh]
	 SCS Total Energy          =    -384.4751226340717949 [Eh]
	-----------------------------------------------------------

  Dipole Moment: [D]
     X:    -1.2830      Y:     2.0212      Z:     0.4482     Total:     2.4356

*** Psi4 exiting successfully. Buy a developer a beer!
