                               Psi4 1.4a3.dev225

  ==> Input File <==

--------------------------------------------------------------------------
#psi4
#
memory 32 gb

molecule  {
0 1
  O       -3.2271830    -0.3786580    -0.1569640
  O       -1.8275510     1.3993140    -0.2614160
  C        2.8225670    -0.4310850    -0.3953020
  C        1.3820809    -0.9003698    -0.2399154
  C       -0.9807690    -0.7586230     0.4926230
  C        0.4143070    -0.2269140     0.3719860
  C        3.1298050     0.9339520     0.2103920
  C       -2.0113430     0.2195500    -0.0192140
  H        3.4859920    -1.1868430     0.0468460
  H        3.0699840    -0.4203720    -1.4654230
  H        1.1737130    -1.8673930    -0.6818980
  H       -1.0998220    -1.7054460    -0.0447970
  H       -1.2414610    -0.9681590     1.5400430
  H        0.5929560     0.7502750     0.8121930
  H        4.1791340     1.1958370     0.0500290
  H        2.5131630     1.7137800    -0.2445400
  H        2.9424530     0.9385920     1.2876810
  H       -3.8316340     0.3284440    -0.4642740
units angstrom
no_reorient  #important for SAPT in psi4, default
symmetry c1  #important for SAPT in psi4, default
}

set PROPERTIES_ORIGIN ["COM"]
properties('MP2/aug-cc-pvtz', properties = ['dipole'])
--------------------------------------------------------------------------

    Molecular point group: c1
  Charge       = 0
  Multiplicity = 1
  Basis Set: AUG-CC-PVTZ
    Blend: AUG-CC-PVTZ
  Basis Set: (AUG-CC-PVTZ AUX)
    Blend: AUG-CC-PVTZ-JKFIT

    Orbital Energies [Eh]
    ---------------------

    Doubly Occupied:

       1A    -20.616344     2A    -20.552235     3A    -11.391076
       4A    -11.254288     5A    -11.233607     6A    -11.230623
       7A    -11.230333     8A    -11.214178     9A     -1.459976
      10A     -1.357313    11A     -1.103759    12A     -1.043620
      13A     -0.962424    14A     -0.868600    15A     -0.807529
      16A     -0.741736    17A     -0.703307    18A     -0.682264
      19A     -0.655480    20A     -0.623307    21A     -0.611512
      22A     -0.602277    23A     -0.581682    24A     -0.553964
      25A     -0.528745    26A     -0.497783    27A     -0.492691
      28A     -0.484184    29A     -0.477101    30A     -0.455393
      31A     -0.357927

  @DF-RHF Final Energy:  -382.90406527544314

   => Energetics <=

    Nuclear Repulsion Energy =            355.0238678805803829
    One-Electron Energy =               -1225.1053478716794416
    Two-Electron Energy =                 487.1774147156559138
    Total Energy =                       -382.9040652754431449
  Basis Set: (AUG-CC-PVTZ AUX)
    Blend: AUG-CC-PVTZ-RI
    Molecular point group: c1

    Geometry (in Angstrom), charge = 0, multiplicity = 1:

       Center              X                  Y                   Z               Mass
    ------------   -----------------  -----------------  -----------------  -----------------
         O           -3.122915688056    -0.388587038744    -0.149926829302    15.994914619570
         O           -1.723283688056     1.389384961256    -0.254378829302    15.994914619570
         C            2.926834311944    -0.441014038744    -0.388264829302    12.000000000000
         C            1.486348211944    -0.910298838744    -0.232878229302    12.000000000000
         C           -0.876501688056    -0.768552038744     0.499660170698    12.000000000000
         C            0.518574311944    -0.236843038744     0.379023170698    12.000000000000
         C            3.234072311944     0.924022961256     0.217429170698    12.000000000000
         C           -1.907075688056     0.209620961256    -0.012176829302    12.000000000000
         H            3.590259311944    -1.196772038744     0.053883170698     1.007825032230
         H            3.174251311944    -0.430301038744    -1.458385829302     1.007825032230
         H            1.277980311944    -1.877322038744    -0.674860829302     1.007825032230
         H           -0.995554688056    -1.715375038744    -0.037759829302     1.007825032230
         H           -1.137193688056    -0.978088038744     1.547080170698     1.007825032230
         H            0.697223311944     0.740345961256     0.819230170698     1.007825032230
         H            4.283401311944     1.185907961256     0.057066170698     1.007825032230
         H            2.617430311944     1.703850961256    -0.237502829302     1.007825032230
         H            3.046720311944     0.928662961256     1.294718170698     1.007825032230
         H           -3.727366688056     0.318514961256    -0.457236829302     1.007825032230

  Basis Set: AUG-CC-PVTZ
    Blend: AUG-CC-PVTZ
  Basis Set: (AUG-CC-PVTZ AUX)
    Blend: AUG-CC-PVTZ-JKFIT
	 Reference Energy          =    -382.9040652754431449 [Eh]
	 Singles Energy            =      -0.0000000000000000 [Eh]
	 Same-Spin Energy          =      -0.3827523720588564 [Eh]
	 Opposite-Spin Energy      =      -1.2538202489602361 [Eh]
	 Correlation Energy        =      -1.6365726210190925 [Eh]
	 Total Energy              =    -384.5406378964622149 [Eh]

	 ================> DF-SCS-MP2 Energies <==================
	-----------------------------------------------------------
	 SCS Same-Spin Scale       =       0.3333333333333333 [-]
	 SCS Opposite-Spin Scale   =       1.2000000000000000 [-]
	 SCS Same-Spin Energy      =      -0.1275841240196188 [Eh]
	 SCS Opposite-Spin Energy  =      -1.5045842987522833 [Eh]
	 SCS Correlation Energy    =      -1.6321684227719020 [Eh]
	 SCS Total Energy          =    -384.5362336982150282 [Eh]
	-----------------------------------------------------------

  Dipole Moment: [D]
     X:     0.1487      Y:    -1.4226      Z:     0.2442     Total:     1.4510

*** Psi4 exiting successfully. Buy a developer a beer!
