                               Psi4 1.3.2 release

  ==> Input File <==

--------------------------------------------------------------------------
#psi4
#
memory 32 gb

molecule  {
0 1
  O        3.1501630     0.3869830     0.0122970
  O        1.7226580    -1.3643080    -0.2059640
  C       -2.9163610     0.3476720    -0.5022120
  C       -1.4658455     0.8586486    -0.4203539
  C        0.8439576     0.8619944     0.3815106
  C       -0.5245990     0.2621860     0.3264500
  C       -3.2476580    -0.8824200     0.3361610
  C        1.9107340    -0.1856640     0.0271730
  H       -3.5825680     1.1749950    -0.2170990
  H       -3.1475630     0.1432210    -1.5599470
  H       -1.2553160     1.7190160    -0.9933200
  H        0.9787830     1.7133270    -0.2211670
  H        1.0972480     1.1531100     1.4329360
  H       -0.7130820    -0.6444280     0.9033180
  H       -4.2956480    -1.1625270     0.2123440
  H       -2.6314050    -1.7369230     0.0388270
  H       -3.0739380    -0.6897760     1.4001060
  H        3.7686820    -0.3352680    -0.2293440
units angstrom
no_reorient  #important for SAPT in psi4, default
symmetry c1  #important for SAPT in psi4, default
}

set PROPERTIES_ORIGIN ["COM"]
properties('MP2/aug-cc-pvtz', properties = ['dipole'])
--------------------------------------------------------------------------

    Molecular point group: c1
  Charge       = 0
  Multiplicity = 1
  Basis Set: AUG-CC-PVTZ
    Blend: AUG-CC-PVTZ
  Basis Set: (AUG-CC-PVTZ AUX)
    Blend: AUG-CC-PVTZ-JKFIT

    Orbital Energies [Eh]
    ---------------------

    Doubly Occupied:

       1A    -20.615242     2A    -20.553175     3A    -11.390776
       4A    -11.253202     5A    -11.233897     6A    -11.232133
       7A    -11.230376     8A    -11.214857     9A     -1.457783
      10A     -1.357735    11A     -1.101635    12A     -1.040017
      13A     -0.958763    14A     -0.865770    15A     -0.804774
      16A     -0.749176    17A     -0.702937    18A     -0.679386
      19A     -0.651368    20A     -0.626118    21A     -0.609449
      22A     -0.603695    23A     -0.577489    24A     -0.551580
      25A     -0.536630    26A     -0.496258    27A     -0.494107
      28A     -0.484942    29A     -0.475632    30A     -0.453353
      31A     -0.353634

  @DF-RHF Final Energy:  -382.89856714470125

   => Energetics <=

    Nuclear Repulsion Energy =            354.5314882061999242
    One-Electron Energy =               -1224.1483297689619576
    Two-Electron Energy =                 486.7182744180607870
    Total Energy =                       -382.8985671447012464
  Basis Set: (AUG-CC-PVTZ AUX)
    Blend: AUG-CC-PVTZ-RI
    Molecular point group: c1

    Geometry (in Angstrom), charge = 0, multiplicity = 1:

       Center              X                  Y                   Z               Mass
    ------------   -----------------  -----------------  -----------------  -----------------
         O            3.148517519747     0.379426411767     0.017033554165    15.994914619570
         O            1.721012519747    -1.371864588233    -0.201227445835    15.994914619570
         C           -2.918006480253     0.340115411767    -0.497475445835    12.000000000000
         C           -1.467490980253     0.851092011767    -0.415617345835    12.000000000000
         C            0.842312119747     0.854437811767     0.386247154165    12.000000000000
         C           -0.526244480253     0.254629411767     0.331186554165    12.000000000000
         C           -3.249303480253    -0.889976588233     0.340897554165    12.000000000000
         C            1.909088519747    -0.193220588233     0.031909554165    12.000000000000
         H           -3.584213480253     1.167438411767    -0.212362445835     1.007825032230
         H           -3.149208480253     0.135664411767    -1.555210445835     1.007825032230
         H           -1.256961480253     1.711459411767    -0.988583445835     1.007825032230
         H            0.977137519747     1.705770411767    -0.216430445835     1.007825032230
         H            1.095602519747     1.145553411767     1.437672554165     1.007825032230
         H           -0.714727480253    -0.651984588233     0.908054554165     1.007825032230
         H           -4.297293480253    -1.170083588233     0.217080554165     1.007825032230
         H           -2.633050480253    -1.744479588233     0.043563554165     1.007825032230
         H           -3.075583480253    -0.697332588233     1.404842554165     1.007825032230
         H            3.767036519747    -0.342824588233    -0.224607445835     1.007825032230

  Basis Set: AUG-CC-PVTZ
    Blend: AUG-CC-PVTZ
  Basis Set: (AUG-CC-PVTZ AUX)
    Blend: AUG-CC-PVTZ-JKFIT
	 Reference Energy          =    -382.8985671447012464 [Eh]
	 Singles Energy            =      -0.0000000000000000 [Eh]
	 Same-Spin Energy          =      -0.3827967584980947 [Eh]
	 Opposite-Spin Energy      =      -1.2542724514993810 [Eh]
	 Correlation Energy        =      -1.6370692099974757 [Eh]
	 Total Energy              =    -384.5356363546987382 [Eh]

	 ================> DF-SCS-MP2 Energies <==================
	-----------------------------------------------------------
	 SCS Same-Spin Scale       =       0.3333333333333333 [-]
	 SCS Opposite-Spin Scale   =       1.2000000000000000 [-]
	 SCS Same-Spin Energy      =      -0.1275989194993649 [Eh]
	 SCS Opposite-Spin Energy  =      -1.5051269417992572 [Eh]
	 SCS Correlation Energy    =      -1.6327258612986222 [Eh]
	 SCS Total Energy          =    -384.5312930059998848 [Eh]
	-----------------------------------------------------------

  Dipole Moment: [D]
     X:    -0.1270      Y:     1.3941      Z:     0.1842     Total:     1.4120

*** Psi4 exiting successfully. Buy a developer a beer!
