                               Psi4 1.3.2 release

  ==> Input File <==

--------------------------------------------------------------------------
#psi4
#
memory 32 gb

molecule  {
0 1
  O        3.1501630     0.3869830     0.0122970
  O        1.7226580    -1.3643080    -0.2059640
  C       -2.9163610     0.3476720    -0.5022120
  C       -1.4960630     0.8252950    -0.4074400
  C        0.8585340     0.8235180     0.4136200
  C       -0.3395945     0.3372684     0.3381096
  C       -3.2476580    -0.8824200     0.3361610
  C        1.9107340    -0.1856640     0.0271730
  H       -3.5825680     1.1749950    -0.2170990
  H       -3.1475630     0.1432210    -1.5599470
  H       -1.2553160     1.7190160    -0.9933200
  H        0.9787830     1.7133270    -0.2211670
  H        1.0972480     1.1531100     1.4329360
  H       -0.7130820    -0.6444280     0.9033180
  H       -4.2956480    -1.1625270     0.2123440
  H       -2.6314050    -1.7369230     0.0388270
  H       -3.0739380    -0.6897760     1.4001060
  H        3.7686820    -0.3352680    -0.2293440
units angstrom
no_reorient  #important for SAPT in psi4, default
symmetry c1  #important for SAPT in psi4, default
}

set PROPERTIES_ORIGIN ["COM"]
properties('MP2/aug-cc-pvtz', properties = ['dipole'])
--------------------------------------------------------------------------

    Molecular point group: c1
  Charge       = 0
  Multiplicity = 1
  Basis Set: AUG-CC-PVTZ
    Blend: AUG-CC-PVTZ
  Basis Set: (AUG-CC-PVTZ AUX)
    Blend: AUG-CC-PVTZ-JKFIT

    Orbital Energies [Eh]
    ---------------------

    Doubly Occupied:

       1A    -20.617468     2A    -20.555561     3A    -11.393072
       4A    -11.251410     5A    -11.246265     6A    -11.243313
       7A    -11.236178     8A    -11.216034     9A     -1.460868
      10A     -1.360562    11A     -1.129699    12A     -1.057575
      13A     -0.944460    14A     -0.876121    15A     -0.809746
      16A     -0.734167    17A     -0.702121    18A     -0.694463
      19A     -0.666929    20A     -0.629984    21A     -0.613457
      22A     -0.598649    23A     -0.588523    24A     -0.574294
      25A     -0.519136    26A     -0.499736    27A     -0.497922
      28A     -0.485179    29A     -0.461985    30A     -0.454525
      31A     -0.323028

  @DF-RHF Final Energy:  -382.83628756201995

   => Energetics <=

    Nuclear Repulsion Energy =            355.9606583792253218
    One-Electron Energy =               -1226.7090304471457785
    Two-Electron Energy =                 487.9120845059004523
    Total Energy =                       -382.8362875620199475
  Basis Set: (AUG-CC-PVTZ AUX)
    Blend: AUG-CC-PVTZ-RI
    Molecular point group: c1

    Geometry (in Angstrom), charge = 0, multiplicity = 1:

       Center              X                  Y                   Z               Mass
    ------------   -----------------  -----------------  -----------------  -----------------
         O            3.130700433602     0.379084258203     0.011070494187    15.994914619570
         O            1.703195433602    -1.372206741797    -0.207190505813    15.994914619570
         C           -2.935823566398     0.339773258203    -0.503438505813    12.000000000000
         C           -1.515525566398     0.817396258203    -0.408666505813    12.000000000000
         C            0.839071433602     0.815619258203     0.412393494187    12.000000000000
         C           -0.359057066398     0.329369658203     0.336883094187    12.000000000000
         C           -3.267120566398    -0.890318741797     0.334934494187    12.000000000000
         C            1.891271433602    -0.193562741797     0.025946494187    12.000000000000
         H           -3.602030566398     1.167096258203    -0.218325505813     1.007825032230
         H           -3.167025566398     0.135322258203    -1.561173505813     1.007825032230
         H           -1.274778566398     1.711117258203    -0.994546505813     1.007825032230
         H            0.959320433602     1.705428258203    -0.222393505813     1.007825032230
         H            1.077785433602     1.145211258203     1.431709494187     1.007825032230
         H           -0.732544566398    -0.652326741797     0.902091494187     1.007825032230
         H           -4.315110566398    -1.170425741797     0.211117494187     1.007825032230
         H           -2.650867566398    -1.744821741797     0.037600494187     1.007825032230
         H           -3.093400566398    -0.697674741797     1.398879494187     1.007825032230
         H            3.749219433602    -0.343166741797    -0.230570505813     1.007825032230

  Basis Set: AUG-CC-PVTZ
    Blend: AUG-CC-PVTZ
  Basis Set: (AUG-CC-PVTZ AUX)
    Blend: AUG-CC-PVTZ-JKFIT
	 Reference Energy          =    -382.8362875620199475 [Eh]
	 Singles Energy            =      -0.0000000000000000 [Eh]
	 Same-Spin Energy          =      -0.3881644774343629 [Eh]
	 Opposite-Spin Energy      =      -1.2629705895666943 [Eh]
	 Correlation Energy        =      -1.6511350670010572 [Eh]
	 Total Energy              =    -384.4874226290210117 [Eh]

	 ================> DF-SCS-MP2 Energies <==================
	-----------------------------------------------------------
	 SCS Same-Spin Scale       =       0.3333333333333333 [-]
	 SCS Opposite-Spin Scale   =       1.2000000000000000 [-]
	 SCS Same-Spin Energy      =      -0.1293881591447876 [Eh]
	 SCS Opposite-Spin Energy  =      -1.5155647074800331 [Eh]
	 SCS Correlation Energy    =      -1.6449528666248208 [Eh]
	 SCS Total Energy          =    -384.4812404286447531 [Eh]
	-----------------------------------------------------------

  Dipole Moment: [D]
     X:    -0.0796      Y:     1.3528      Z:     0.2214     Total:     1.3731

*** Psi4 exiting successfully. Buy a developer a beer!
