                               Psi4 1.3.2 release

  ==> Input File <==

--------------------------------------------------------------------------
#psi4
#
memory 32 gb

molecule  {
0 1
  O        3.1501630     0.3869830     0.0122970
  O        1.7226580    -1.3643080    -0.2059640
  C       -2.9163610     0.3476720    -0.5022120
  C       -1.4960630     0.8252950    -0.4074400
  C        0.8585340     0.8235180     0.4136200
  C       -0.5245990     0.2621860     0.3264500
  C       -3.2476580    -0.8824200     0.3361610
  C        1.9107340    -0.1856640     0.0271730
  H       -3.5825680     1.1749950    -0.2170990
  H       -3.1475630     0.1432210    -1.5599470
  H       -1.2333385     1.8006028    -1.0468044
  H        0.9787830     1.7133270    -0.2211670
  H        1.0972480     1.1531100     1.4329360
  H       -0.7130820    -0.6444280     0.9033180
  H       -4.2956480    -1.1625270     0.2123440
  H       -2.6314050    -1.7369230     0.0388270
  H       -3.0739380    -0.6897760     1.4001060
  H        3.7686820    -0.3352680    -0.2293440
units angstrom
no_reorient  #important for SAPT in psi4, default
symmetry c1  #important for SAPT in psi4, default
}

set PROPERTIES_ORIGIN ["COM"]
properties('MP2/aug-cc-pvtz', properties = ['dipole'])
--------------------------------------------------------------------------

    Molecular point group: c1
  Charge       = 0
  Multiplicity = 1
  Basis Set: AUG-CC-PVTZ
    Blend: AUG-CC-PVTZ
  Basis Set: (AUG-CC-PVTZ AUX)
    Blend: AUG-CC-PVTZ-JKFIT

    Orbital Energies [Eh]
    ---------------------

    Doubly Occupied:

       1A    -20.615766     2A    -20.552849     3A    -11.390566
       4A    -11.254293     5A    -11.247029     6A    -11.233691
       7A    -11.231468     8A    -11.215763     9A     -1.458672
      10A     -1.358204    11A     -1.102147    12A     -1.045902
      13A     -0.958763    14A     -0.869933    15A     -0.805931
      16A     -0.730956    17A     -0.701978    18A     -0.681738
      19A     -0.654155    20A     -0.623047    21A     -0.612971
      22A     -0.593661    23A     -0.581675    24A     -0.553175
      25A     -0.528505    26A     -0.498964    27A     -0.492302
      28A     -0.483891    29A     -0.474416    30A     -0.455509
      31A     -0.355074

  @DF-RHF Final Energy:  -382.89573572929589

   => Energetics <=

    Nuclear Repulsion Energy =            354.6350948794967621
    One-Electron Energy =               -1224.3356753046903123
    Two-Electron Energy =                 486.8048446958976001
    Total Energy =                       -382.8957357292958932
  Basis Set: (AUG-CC-PVTZ AUX)
    Blend: AUG-CC-PVTZ-RI
    Molecular point group: c1

    Geometry (in Angstrom), charge = 0, multiplicity = 1:

       Center              X                  Y                   Z               Mass
    ------------   -----------------  -----------------  -----------------  -----------------
         O            3.149968791006     0.386262108341     0.012769638399    15.994914619570
         O            1.722463791006    -1.365028891659    -0.205491361601    15.994914619570
         C           -2.916555208994     0.346951108341    -0.501739361601    12.000000000000
         C           -1.496257208994     0.824574108341    -0.406967361601    12.000000000000
         C            0.858339791006     0.822797108341     0.414092638399    12.000000000000
         C           -0.524793208994     0.261465108341     0.326922638399    12.000000000000
         C           -3.247852208994    -0.883140891659     0.336633638399    12.000000000000
         C            1.910539791006    -0.186384891659     0.027645638399    12.000000000000
         H           -3.582762208994     1.174274108341    -0.216626361601     1.007825032230
         H           -3.147757208994     0.142500108341    -1.559474361601     1.007825032230
         H           -1.233532708994     1.799881908341    -1.046331761601     1.007825032230
         H            0.978588791006     1.712606108341    -0.220694361601     1.007825032230
         H            1.097053791006     1.152389108341     1.433408638399     1.007825032230
         H           -0.713276208994    -0.645148891659     0.903790638399     1.007825032230
         H           -4.295842208994    -1.163247891659     0.212816638399     1.007825032230
         H           -2.631599208994    -1.737643891659     0.039299638399     1.007825032230
         H           -3.074132208994    -0.690496891659     1.400578638399     1.007825032230
         H            3.768487791006    -0.335988891659    -0.228871361601     1.007825032230

  Basis Set: AUG-CC-PVTZ
    Blend: AUG-CC-PVTZ
  Basis Set: (AUG-CC-PVTZ AUX)
    Blend: AUG-CC-PVTZ-JKFIT
	 Reference Energy          =    -382.8957357292958932 [Eh]
	 Singles Energy            =      -0.0000000000000000 [Eh]
	 Same-Spin Energy          =      -0.3833404635333043 [Eh]
	 Opposite-Spin Energy      =      -1.2554137586787486 [Eh]
	 Correlation Energy        =      -1.6387542222120528 [Eh]
	 Total Energy              =    -384.5344899515079646 [Eh]

	 ================> DF-SCS-MP2 Energies <==================
	-----------------------------------------------------------
	 SCS Same-Spin Scale       =       0.3333333333333333 [-]
	 SCS Opposite-Spin Scale   =       1.2000000000000000 [-]
	 SCS Same-Spin Energy      =      -0.1277801545111014 [Eh]
	 SCS Opposite-Spin Energy  =      -1.5064965104144983 [Eh]
	 SCS Correlation Energy    =      -1.6342766649255998 [Eh]
	 SCS Total Energy          =    -384.5300123942215009 [Eh]
	-----------------------------------------------------------

  Dipole Moment: [D]
     X:    -0.2087      Y:     1.3335      Z:     0.2401     Total:     1.3709

*** Psi4 exiting successfully. Buy a developer a beer!
