                               Psi4 1.3.2 release

  ==> Input File <==

--------------------------------------------------------------------------
#psi4
#
memory 32 gb

molecule  {
0 1
  O        3.1501630     0.3869830     0.0122970
  O        1.6607510    -1.3550048    -0.1943620
  C       -2.9163610     0.3476720    -0.5022120
  C       -1.4960630     0.8252950    -0.4074400
  C        0.8046502     0.7659709     0.4091208
  C       -0.5245990     0.2621860     0.3264500
  C       -3.2476580    -0.8824200     0.3361610
  C        1.9107340    -0.1856640     0.0271730
  H       -3.5825680     1.1749950    -0.2170990
  H       -3.1475630     0.1432210    -1.5599470
  H       -1.2553160     1.7190160    -0.9933200
  H        0.9787830     1.7133270    -0.2211670
  H        1.0972480     1.1531100     1.4329360
  H       -0.7130820    -0.6444280     0.9033180
  H       -4.2956480    -1.1625270     0.2123440
  H       -2.6314050    -1.7369230     0.0388270
  H       -3.0739380    -0.6897760     1.4001060
  H        3.7686820    -0.3352680    -0.2293440
units angstrom
no_reorient  #important for SAPT in psi4, default
symmetry c1  #important for SAPT in psi4, default
}

set PROPERTIES_ORIGIN ["COM"]
properties('MP2/aug-cc-pvtz', properties = ['dipole'])
--------------------------------------------------------------------------

    Molecular point group: c1
  Charge       = 0
  Multiplicity = 1
  Basis Set: AUG-CC-PVTZ
    Blend: AUG-CC-PVTZ
  Basis Set: (AUG-CC-PVTZ AUX)
    Blend: AUG-CC-PVTZ-JKFIT

    Orbital Energies [Eh]
    ---------------------

    Doubly Occupied:

       1A    -20.622686     2A    -20.551024     3A    -11.390603
       4A    -11.254715     5A    -11.235750     6A    -11.229861
       7A    -11.226933     8A    -11.214358     9A     -1.459038
      10A     -1.362674    11A     -1.108738    12A     -1.046066
      13A     -0.957462    14A     -0.873044    15A     -0.807438
      16A     -0.737828    17A     -0.705133    18A     -0.685693
      19A     -0.652629    20A     -0.629125    21A     -0.611931
      22A     -0.601018    23A     -0.581442    24A     -0.553680
      25A     -0.519210    26A     -0.497832    27A     -0.492362
      28A     -0.482762    29A     -0.481119    30A     -0.451871
      31A     -0.351459

  @DF-RHF Final Energy:  -382.89282154501797

   => Energetics <=

    Nuclear Repulsion Energy =            356.2881552741407631
    One-Electron Energy =               -1227.6109870561292610
    Two-Electron Energy =                 488.4300102369705314
    Total Energy =                       -382.8928215450179664
  Basis Set: (AUG-CC-PVTZ AUX)
    Blend: AUG-CC-PVTZ-RI
    Molecular point group: c1

    Geometry (in Angstrom), charge = 0, multiplicity = 1:

       Center              X                  Y                   Z               Mass
    ------------   -----------------  -----------------  -----------------  -----------------
         O            3.164512318524     0.391732407588     0.011143543551    15.994914619570
         O            1.675100318524    -1.350255392412    -0.195515456449    15.994914619570
         C           -2.902011681476     0.352421407588    -0.503365456449    12.000000000000
         C           -1.481713681476     0.830044407588    -0.408593456449    12.000000000000
         C            0.818999518524     0.770720307588     0.407967343551    12.000000000000
         C           -0.510249681476     0.266935407588     0.325296543551    12.000000000000
         C           -3.233308681476    -0.877670592412     0.335007543551    12.000000000000
         C            1.925083318524    -0.180914592412     0.026019543551    12.000000000000
         H           -3.568218681476     1.179744407588    -0.218252456449     1.007825032230
         H           -3.133213681476     0.147970407588    -1.561100456449     1.007825032230
         H           -1.240966681476     1.723765407588    -0.994473456449     1.007825032230
         H            0.993132318524     1.718076407588    -0.222320456449     1.007825032230
         H            1.111597318524     1.157859407588     1.431782543551     1.007825032230
         H           -0.698732681476    -0.639678592412     0.902164543551     1.007825032230
         H           -4.281298681476    -1.157777592412     0.211190543551     1.007825032230
         H           -2.617055681476    -1.732173592412     0.037673543551     1.007825032230
         H           -3.059588681476    -0.685026592412     1.398952543551     1.007825032230
         H            3.783031318524    -0.330518592412    -0.230497456449     1.007825032230

  Basis Set: AUG-CC-PVTZ
    Blend: AUG-CC-PVTZ
  Basis Set: (AUG-CC-PVTZ AUX)
    Blend: AUG-CC-PVTZ-JKFIT
	 Reference Energy          =    -382.8928215450179664 [Eh]
	 Singles Energy            =      -0.0000000000000000 [Eh]
	 Same-Spin Energy          =      -0.3841734786371733 [Eh]
	 Opposite-Spin Energy      =      -1.2558232377513932 [Eh]
	 Correlation Energy        =      -1.6399967163885665 [Eh]
	 Total Energy              =    -384.5328182614065327 [Eh]

	 ================> DF-SCS-MP2 Energies <==================
	-----------------------------------------------------------
	 SCS Same-Spin Scale       =       0.3333333333333333 [-]
	 SCS Opposite-Spin Scale   =       1.2000000000000000 [-]
	 SCS Same-Spin Energy      =      -0.1280578262123911 [Eh]
	 SCS Opposite-Spin Energy  =      -1.5069878853016718 [Eh]
	 SCS Correlation Energy    =      -1.6350457115140629 [Eh]
	 SCS Total Energy          =    -384.5278672565320335 [Eh]
	-----------------------------------------------------------

  Dipole Moment: [D]
     X:    -0.0273      Y:     1.3374      Z:     0.1673     Total:     1.3481

*** Psi4 exiting successfully. Buy a developer a beer!
