                               Psi4 1.3.2 release

  ==> Input File <==

--------------------------------------------------------------------------
#psi4
#
memory 32 gb

molecule  {
0 1
  O        3.1501630     0.3869830     0.0122970
  O        1.7226580    -1.3643080    -0.2059640
  C       -2.9216367     0.3673495    -0.5186942
  C       -1.4960630     0.8252950    -0.4074400
  C        0.8585340     0.8235180     0.4136200
  C       -0.5096784     0.2785710     0.3188980
  C       -3.2476580    -0.8824200     0.3361610
  C        1.9107340    -0.1856640     0.0271730
  H       -3.5825680     1.1749950    -0.2170990
  H       -3.1475630     0.1432210    -1.5599470
  H       -1.2553160     1.7190160    -0.9933200
  H        0.9787830     1.7133270    -0.2211670
  H        1.0972480     1.1531100     1.4329360
  H       -0.7130820    -0.6444280     0.9033180
  H       -4.2956480    -1.1625270     0.2123440
  H       -2.6314050    -1.7369230     0.0388270
  H       -3.0739380    -0.6897760     1.4001060
  H        3.7686820    -0.3352680    -0.2293440
units angstrom
no_reorient  #important for SAPT in psi4, default
symmetry c1  #important for SAPT in psi4, default
}

set PROPERTIES_ORIGIN ["COM"]
properties('MP2/aug-cc-pvtz', properties = ['dipole'])
--------------------------------------------------------------------------

    Molecular point group: c1
  Charge       = 0
  Multiplicity = 1
  Basis Set: AUG-CC-PVTZ
    Blend: AUG-CC-PVTZ
  Basis Set: (AUG-CC-PVTZ AUX)
    Blend: AUG-CC-PVTZ-JKFIT

    Orbital Energies [Eh]
    ---------------------

    Doubly Occupied:

       1A    -20.616114     2A    -20.553187     3A    -11.391036
       4A    -11.253992     5A    -11.235425     6A    -11.233142
       7A    -11.229616     8A    -11.215415     9A     -1.459014
      10A     -1.358508    11A     -1.104151    12A     -1.045469
      13A     -0.958524    14A     -0.871572    15A     -0.808093
      16A     -0.736726    17A     -0.702913    18A     -0.683697
      19A     -0.655723    20A     -0.625589    21A     -0.613984
      22A     -0.598053    23A     -0.582742    24A     -0.554560
      25A     -0.523036    26A     -0.502618    27A     -0.494777
      28A     -0.483790    29A     -0.474333    30A     -0.456384
      31A     -0.354576

  @DF-RHF Final Energy:  -382.90175252046487

   => Energetics <=

    Nuclear Repulsion Energy =            354.9718770431841222
    One-Electron Energy =               -1224.9937388322528022
    Two-Electron Energy =                 487.1201092686038123
    Total Energy =                       -382.9017525204648678
  Basis Set: (AUG-CC-PVTZ AUX)
    Blend: AUG-CC-PVTZ-RI
    Molecular point group: c1

    Geometry (in Angstrom), charge = 0, multiplicity = 1:

       Center              X                  Y                   Z               Mass
    ------------   -----------------  -----------------  -----------------  -----------------
         O            3.149148321987     0.383189164692     0.014825493848    15.994914619570
         O            1.721643321987    -1.368101835308    -0.203435506152    15.994914619570
         C           -2.922651378013     0.363555664692    -0.516165706152    12.000000000000
         C           -1.497077678013     0.821501164692    -0.404911506152    12.000000000000
         C            0.857519321987     0.819724164692     0.416148493848    12.000000000000
         C           -0.510693078013     0.274777164692     0.321426493848    12.000000000000
         C           -3.248672678013    -0.886213835308     0.338689493848    12.000000000000
         C            1.909719321987    -0.189457835308     0.029701493848    12.000000000000
         H           -3.583582678013     1.171201164692    -0.214570506152     1.007825032230
         H           -3.148577678013     0.139427164692    -1.557418506152     1.007825032230
         H           -1.256330678013     1.715222164692    -0.990791506152     1.007825032230
         H            0.977768321987     1.709533164692    -0.218638506152     1.007825032230
         H            1.096233321987     1.149316164692     1.435464493848     1.007825032230
         H           -0.714096678013    -0.648221835308     0.905846493848     1.007825032230
         H           -4.296662678013    -1.166320835308     0.214872493848     1.007825032230
         H           -2.632419678013    -1.740716835308     0.041355493848     1.007825032230
         H           -3.074952678013    -0.693569835308     1.402634493848     1.007825032230
         H            3.767667321987    -0.339061835308    -0.226815506152     1.007825032230

  Basis Set: AUG-CC-PVTZ
    Blend: AUG-CC-PVTZ
  Basis Set: (AUG-CC-PVTZ AUX)
    Blend: AUG-CC-PVTZ-JKFIT
	 Reference Energy          =    -382.9017525204648678 [Eh]
	 Singles Energy            =      -0.0000000000000000 [Eh]
	 Same-Spin Energy          =      -0.3831748518889243 [Eh]
	 Opposite-Spin Energy      =      -1.2546778454134944 [Eh]
	 Correlation Energy        =      -1.6378526973024186 [Eh]
	 Total Energy              =    -384.5396052177673027 [Eh]

	 ================> DF-SCS-MP2 Energies <==================
	-----------------------------------------------------------
	 SCS Same-Spin Scale       =       0.3333333333333333 [-]
	 SCS Opposite-Spin Scale   =       1.2000000000000000 [-]
	 SCS Same-Spin Energy      =      -0.1277249506296414 [Eh]
	 SCS Opposite-Spin Energy  =      -1.5056134144961932 [Eh]
	 SCS Correlation Energy    =      -1.6333383651258346 [Eh]
	 SCS Total Energy          =    -384.5350908855907051 [Eh]
	-----------------------------------------------------------

  Dipole Moment: [D]
     X:    -0.1572      Y:     1.3970      Z:     0.2043     Total:     1.4206

*** Psi4 exiting successfully. Buy a developer a beer!
