                               Psi4 1.3.2 release

  ==> Input File <==

--------------------------------------------------------------------------
#psi4
#
memory 32 gb

molecule  {
0 1
  O        3.1685248     0.3449238    -0.0005586
  O        1.7226580    -1.3643080    -0.2059640
  C       -2.9163610     0.3476720    -0.5022120
  C       -1.4960630     0.8252950    -0.4074400
  C        0.8220188     0.7858921     0.4088697
  C       -0.5245990     0.2621860     0.3264500
  C       -3.2476580    -0.8824200     0.3361610
  C        1.9107340    -0.1856640     0.0271730
  H       -3.5825680     1.1749950    -0.2170990
  H       -3.1475630     0.1432210    -1.5599470
  H       -1.2553160     1.7190160    -0.9933200
  H        0.9787830     1.7133270    -0.2211670
  H        1.0972480     1.1531100     1.4329360
  H       -0.7130820    -0.6444280     0.9033180
  H       -4.2956480    -1.1625270     0.2123440
  H       -2.6314050    -1.7369230     0.0388270
  H       -3.0739380    -0.6897760     1.4001060
  H        3.7686820    -0.3352680    -0.2293440
units angstrom
no_reorient  #important for SAPT in psi4, default
symmetry c1  #important for SAPT in psi4, default
}

set PROPERTIES_ORIGIN ["COM"]
properties('MP2/aug-cc-pvtz', properties = ['dipole'])
--------------------------------------------------------------------------

    Molecular point group: c1
  Charge       = 0
  Multiplicity = 1
  Basis Set: AUG-CC-PVTZ
    Blend: AUG-CC-PVTZ
  Basis Set: (AUG-CC-PVTZ AUX)
    Blend: AUG-CC-PVTZ-JKFIT

    Orbital Energies [Eh]
    ---------------------

    Doubly Occupied:

       1A    -20.610361     2A    -20.548646     3A    -11.390161
       4A    -11.258890     5A    -11.237810     6A    -11.231279
       7A    -11.231021     8A    -11.215527     9A     -1.463215
      10A     -1.358247    11A     -1.109290    12A     -1.048243
      13A     -0.961212    14A     -0.875377    15A     -0.815296
      16A     -0.740599    17A     -0.703443    18A     -0.685352
      19A     -0.652926    20A     -0.630185    21A     -0.613119
      22A     -0.600474    23A     -0.581055    24A     -0.554741
      25A     -0.524888    26A     -0.499088    27A     -0.492858
      28A     -0.484864    29A     -0.479140    30A     -0.453562
      31A     -0.354621

  @DF-RHF Final Energy:  -382.90034219583055

   => Energetics <=

    Nuclear Repulsion Energy =            355.6969096771318846
    One-Electron Energy =               -1226.3835246025955712
    Two-Electron Energy =                 487.7862727296331400
    Total Energy =                       -382.9003421958305466
  Basis Set: (AUG-CC-PVTZ AUX)
    Blend: AUG-CC-PVTZ-RI
    Molecular point group: c1

    Geometry (in Angstrom), charge = 0, multiplicity = 1:

       Center              X                  Y                   Z               Mass
    ------------   -----------------  -----------------  -----------------  -----------------
         O            3.169791441859     0.354779656341     0.001743865885    15.994914619570
         O            1.723924641859    -1.354452143659    -0.203661534115    15.994914619570
         C           -2.915094358141     0.357527856341    -0.499909534115    12.000000000000
         C           -1.494796358141     0.835150856341    -0.405137534115    12.000000000000
         C            0.823285441859     0.795747956341     0.411172165885    12.000000000000
         C           -0.523332358141     0.272041856341     0.328752465885    12.000000000000
         C           -3.246391358141    -0.872564143659     0.338463465885    12.000000000000
         C            1.912000641859    -0.175808143659     0.029475465885    12.000000000000
         H           -3.581301358141     1.184850856341    -0.214796534115     1.007825032230
         H           -3.146296358141     0.153076856341    -1.557644534115     1.007825032230
         H           -1.254049358141     1.728871856341    -0.991017534115     1.007825032230
         H            0.980049641859     1.723182856341    -0.218864534115     1.007825032230
         H            1.098514641859     1.162965856341     1.435238465885     1.007825032230
         H           -0.711815358141    -0.634572143659     0.905620465885     1.007825032230
         H           -4.294381358141    -1.152671143659     0.214646465885     1.007825032230
         H           -2.630138358141    -1.727067143659     0.041129465885     1.007825032230
         H           -3.072671358141    -0.679920143659     1.402408465885     1.007825032230
         H            3.769948641859    -0.325412143659    -0.227041534115     1.007825032230

  Basis Set: AUG-CC-PVTZ
    Blend: AUG-CC-PVTZ
  Basis Set: (AUG-CC-PVTZ AUX)
    Blend: AUG-CC-PVTZ-JKFIT
	 Reference Energy          =    -382.9003421958305466 [Eh]
	 Singles Energy            =      -0.0000000000000000 [Eh]
	 Same-Spin Energy          =      -0.3827869379842708 [Eh]
	 Opposite-Spin Energy      =      -1.2531840806878893 [Eh]
	 Correlation Energy        =      -1.6359710186721601 [Eh]
	 Total Energy              =    -384.5363132145026839 [Eh]

	 ================> DF-SCS-MP2 Energies <==================
	-----------------------------------------------------------
	 SCS Same-Spin Scale       =       0.3333333333333333 [-]
	 SCS Opposite-Spin Scale   =       1.2000000000000000 [-]
	 SCS Same-Spin Energy      =      -0.1275956459947569 [Eh]
	 SCS Opposite-Spin Energy  =      -1.5038208968254672 [Eh]
	 SCS Correlation Energy    =      -1.6314165428202241 [Eh]
	 SCS Total Energy          =    -384.5317587386507512 [Eh]
	-----------------------------------------------------------

  Dipole Moment: [D]
     X:    -0.3126      Y:     1.4603      Z:     0.2222     Total:     1.5098

*** Psi4 exiting successfully. Buy a developer a beer!
