                               Psi4 1.3.2 release

  ==> Input File <==

--------------------------------------------------------------------------
#psi4
#
memory 32 gb

molecule  {
0 1
  O        3.1501630     0.3869830     0.0122970
  O        1.7226580    -1.3643080    -0.2059640
  C       -2.8978054     0.2892076    -0.4530528
  C       -1.4960630     0.8252950    -0.4074400
  C        0.8585340     0.8235180     0.4136200
  C       -0.5245990     0.2621860     0.3264500
  C       -3.2476580    -0.8824200     0.3361610
  C        1.9107340    -0.1856640     0.0271730
  H       -3.5825680     1.1749950    -0.2170990
  H       -3.1475630     0.1432210    -1.5599470
  H       -1.2015245     1.7155191    -0.9737437
  H        0.9787830     1.7133270    -0.2211670
  H        1.0972480     1.1531100     1.4329360
  H       -0.7130820    -0.6444280     0.9033180
  H       -4.2956480    -1.1625270     0.2123440
  H       -2.6314050    -1.7369230     0.0388270
  H       -3.0739380    -0.6897760     1.4001060
  H        3.7686820    -0.3352680    -0.2293440
units angstrom
no_reorient  #important for SAPT in psi4, default
symmetry c1  #important for SAPT in psi4, default
}

set PROPERTIES_ORIGIN ["COM"]
properties('MP2/aug-cc-pvtz', properties = ['dipole'])
--------------------------------------------------------------------------

    Molecular point group: c1
  Charge       = 0
  Multiplicity = 1
  Basis Set: AUG-CC-PVTZ
    Blend: AUG-CC-PVTZ
  Basis Set: (AUG-CC-PVTZ AUX)
    Blend: AUG-CC-PVTZ-JKFIT

    Orbital Energies [Eh]
    ---------------------

    Doubly Occupied:

       1A    -20.615602     2A    -20.552646     3A    -11.390287
       4A    -11.253839     5A    -11.236207     6A    -11.235517
       7A    -11.230165     8A    -11.213471     9A     -1.458488
      10A     -1.357992    11A     -1.106535    12A     -1.051894
      13A     -0.966852    14A     -0.865596    15A     -0.803453
      16A     -0.738972    17A     -0.702975    18A     -0.681691
      19A     -0.653614    20A     -0.630955    21A     -0.610215
      22A     -0.598663    23A     -0.582195    24A     -0.554265
      25A     -0.538317    26A     -0.497937    27A     -0.484706
      28A     -0.484017    29A     -0.479694    30A     -0.455453
      31A     -0.350639

  @DF-RHF Final Energy:  -382.89449453271465

   => Energetics <=

    Nuclear Repulsion Energy =            355.8567695684310479
    One-Electron Energy =               -1226.7368207937570332
    Two-Electron Energy =                 487.9855566926113966
    Total Energy =                       -382.8944945327146456
  Basis Set: (AUG-CC-PVTZ AUX)
    Blend: AUG-CC-PVTZ-RI
    Molecular point group: c1

    Geometry (in Angstrom), charge = 0, multiplicity = 1:

       Center              X                  Y                   Z               Mass
    ------------   -----------------  -----------------  -----------------  -----------------
         O            3.147735649652     0.393164322227     0.006952561397    15.994914619570
         O            1.720230649652    -1.358126677773    -0.211308438603    15.994914619570
         C           -2.900232750348     0.295388922227    -0.458397238603    12.000000000000
         C           -1.498490350348     0.831476322227    -0.412784438603    12.000000000000
         C            0.856106649652     0.829699322227     0.408275561397    12.000000000000
         C           -0.527026350348     0.268367322227     0.321105561397    12.000000000000
         C           -3.250085350348    -0.876238677773     0.330816561397    12.000000000000
         C            1.908306649652    -0.179482677773     0.021828561397    12.000000000000
         H           -3.584995350348     1.181176322227    -0.222443438603     1.007825032230
         H           -3.149990350348     0.149402322227    -1.565291438603     1.007825032230
         H           -1.203951850348     1.721700422227    -0.979088138603     1.007825032230
         H            0.976355649652     1.719508322227    -0.226511438603     1.007825032230
         H            1.094820649652     1.159291322227     1.427591561397     1.007825032230
         H           -0.715509350348    -0.638246677773     0.897973561397     1.007825032230
         H           -4.298075350348    -1.156345677773     0.206999561397     1.007825032230
         H           -2.633832350348    -1.730741677773     0.033482561397     1.007825032230
         H           -3.076365350348    -0.683594677773     1.394761561397     1.007825032230
         H            3.766254649652    -0.329086677773    -0.234688438603     1.007825032230

  Basis Set: AUG-CC-PVTZ
    Blend: AUG-CC-PVTZ
  Basis Set: (AUG-CC-PVTZ AUX)
    Blend: AUG-CC-PVTZ-JKFIT
	 Reference Energy          =    -382.8944945327146456 [Eh]
	 Singles Energy            =      -0.0000000000000000 [Eh]
	 Same-Spin Energy          =      -0.3839929799685119 [Eh]
	 Opposite-Spin Energy      =      -1.2554477805408355 [Eh]
	 Correlation Energy        =      -1.6394407605093475 [Eh]
	 Total Energy              =    -384.5339352932239763 [Eh]

	 ================> DF-SCS-MP2 Energies <==================
	-----------------------------------------------------------
	 SCS Same-Spin Scale       =       0.3333333333333333 [-]
	 SCS Opposite-Spin Scale   =       1.2000000000000000 [-]
	 SCS Same-Spin Energy      =      -0.1279976599895040 [Eh]
	 SCS Opposite-Spin Energy  =      -1.5065373366490025 [Eh]
	 SCS Correlation Energy    =      -1.6345349966385063 [Eh]
	 SCS Total Energy          =    -384.5290295293531244 [Eh]
	-----------------------------------------------------------

  Dipole Moment: [D]
     X:    -0.2027      Y:     1.3472      Z:     0.2323     Total:     1.3820

*** Psi4 exiting successfully. Buy a developer a beer!
