                               Psi4 1.3.2 release

  ==> Input File <==

--------------------------------------------------------------------------
#psi4
#
memory 32 gb

molecule  {
0 1
  O        3.1501630     0.3869830     0.0122970
  O        1.7226580    -1.3643080    -0.2059640
  C       -2.9264781     0.3871664    -0.5351425
  C       -1.4960630     0.8252950    -0.4074400
  C        0.8585340     0.8235180     0.4136200
  C       -0.4950583     0.2951225     0.3111248
  C       -3.2476580    -0.8824200     0.3361610
  C        1.9107340    -0.1856640     0.0271730
  H       -3.5825680     1.1749950    -0.2170990
  H       -3.1475630     0.1432210    -1.5599470
  H       -1.2553160     1.7190160    -0.9933200
  H        0.9787830     1.7133270    -0.2211670
  H        1.0972480     1.1531100     1.4329360
  H       -0.7130820    -0.6444280     0.9033180
  H       -4.2956480    -1.1625270     0.2123440
  H       -2.6314050    -1.7369230     0.0388270
  H       -3.0739380    -0.6897760     1.4001060
  H        3.7686820    -0.3352680    -0.2293440
units angstrom
no_reorient  #important for SAPT in psi4, default
symmetry c1  #important for SAPT in psi4, default
}

set PROPERTIES_ORIGIN ["COM"]
properties('MP2/aug-cc-pvtz', properties = ['dipole'])
--------------------------------------------------------------------------

    Molecular point group: c1
  Charge       = 0
  Multiplicity = 1
  Basis Set: AUG-CC-PVTZ
    Blend: AUG-CC-PVTZ
  Basis Set: (AUG-CC-PVTZ AUX)
    Blend: AUG-CC-PVTZ-JKFIT

    Orbital Energies [Eh]
    ---------------------

    Doubly Occupied:

       1A    -20.616483     2A    -20.553569     3A    -11.391569
       4A    -11.253692     5A    -11.235685     6A    -11.233965
       7A    -11.229410     8A    -11.216063     9A     -1.459388
      10A     -1.358863    11A     -1.105695    12A     -1.045451
      13A     -0.956975    14A     -0.872899    15A     -0.810344
      16A     -0.734608    17A     -0.702781    18A     -0.685103
      19A     -0.657265    20A     -0.624946    21A     -0.616351
      22A     -0.597722    23A     -0.583389    24A     -0.556711
      25A     -0.517237    26A     -0.506671    27A     -0.498500
      28A     -0.483980    29A     -0.466232    30A     -0.456764
      31A     -0.355078

  @DF-RHF Final Energy:  -382.89769665785536

   => Energetics <=

    Nuclear Repulsion Energy =            354.8792451690324583
    One-Electron Energy =               -1224.7871047960445594
    Two-Electron Energy =                 487.0101629691567950
    Total Energy =                       -382.8976966578553629
  Basis Set: (AUG-CC-PVTZ AUX)
    Blend: AUG-CC-PVTZ-RI
    Molecular point group: c1

    Geometry (in Angstrom), charge = 0, multiplicity = 1:

       Center              X                  Y                   Z               Mass
    ------------   -----------------  -----------------  -----------------  -----------------
         O            3.148119599486     0.379363196887     0.017373603723    15.994914619570
         O            1.720614599486    -1.371927803113    -0.200887396277    15.994914619570
         C           -2.928521500514     0.379546596887    -0.530065896277    12.000000000000
         C           -1.498106400514     0.817675196887    -0.402363396277    12.000000000000
         C            0.856490599486     0.815898196887     0.418696603723    12.000000000000
         C           -0.497101700514     0.287502696887     0.316201403723    12.000000000000
         C           -3.249701400514    -0.890039803113     0.341237603723    12.000000000000
         C            1.908690599486    -0.193283803113     0.032249603723    12.000000000000
         H           -3.584611400514     1.167375196887    -0.212022396277     1.007825032230
         H           -3.149606400514     0.135601196887    -1.554870396277     1.007825032230
         H           -1.257359400514     1.711396196887    -0.988243396277     1.007825032230
         H            0.976739599486     1.705707196887    -0.216090396277     1.007825032230
         H            1.095204599486     1.145490196887     1.438012603723     1.007825032230
         H           -0.715125400514    -0.652047803113     0.908394603723     1.007825032230
         H           -4.297691400514    -1.170146803113     0.217420603723     1.007825032230
         H           -2.633448400514    -1.744542803113     0.043903603723     1.007825032230
         H           -3.075981400514    -0.697395803113     1.405182603723     1.007825032230
         H            3.766638599486    -0.342887803113    -0.224267396277     1.007825032230

  Basis Set: AUG-CC-PVTZ
    Blend: AUG-CC-PVTZ
  Basis Set: (AUG-CC-PVTZ AUX)
    Blend: AUG-CC-PVTZ-JKFIT
	 Reference Energy          =    -382.8976966578553629 [Eh]
	 Singles Energy            =      -0.0000000000000000 [Eh]
	 Same-Spin Energy          =      -0.3833047011325256 [Eh]
	 Opposite-Spin Energy      =      -1.2550196961565576 [Eh]
	 Correlation Energy        =      -1.6383243972890833 [Eh]
	 Total Energy              =    -384.5360210551444311 [Eh]

	 ================> DF-SCS-MP2 Energies <==================
	-----------------------------------------------------------
	 SCS Same-Spin Scale       =       0.3333333333333333 [-]
	 SCS Opposite-Spin Scale   =       1.2000000000000000 [-]
	 SCS Same-Spin Energy      =      -0.1277682337108418 [Eh]
	 SCS Opposite-Spin Energy  =      -1.5060236353878691 [Eh]
	 SCS Correlation Energy    =      -1.6337918690987110 [Eh]
	 SCS Total Energy          =    -384.5314885269540923 [Eh]
	-----------------------------------------------------------

  Dipole Moment: [D]
     X:    -0.1369      Y:     1.4031      Z:     0.2014     Total:     1.4241

*** Psi4 exiting successfully. Buy a developer a beer!
