                               Psi4 1.3.2 release

  ==> Input File <==

--------------------------------------------------------------------------
#psi4
#
memory 32 gb

molecule  {
0 1
  O        3.1501630     0.3869830     0.0122970
  O        1.7226580    -1.3643080    -0.2059640
  C       -2.9163610     0.3476720    -0.5022120
  C       -1.4960630     0.8252950    -0.4074400
  C        0.8618996     0.8138221     0.4216775
  C       -0.5245990     0.2621860     0.3264500
  C       -3.2476580    -0.8824200     0.3361610
  C        1.9107340    -0.1856640     0.0271730
  H       -3.5825680     1.1749950    -0.2170990
  H       -3.1475630     0.1432210    -1.5599470
  H       -1.2553160     1.7190160    -0.9933200
  H        0.9787830     1.7133270    -0.2211670
  H        1.0972480     1.1531100     1.4329360
  H       -0.7040707    -0.6442982     0.9063877
  H       -4.2956480    -1.1625270     0.2123440
  H       -2.6314050    -1.7369230     0.0388270
  H       -3.0739380    -0.6897760     1.4001060
  H        3.7686820    -0.3352680    -0.2293440
units angstrom
no_reorient  #important for SAPT in psi4, default
symmetry c1  #important for SAPT in psi4, default
}

set PROPERTIES_ORIGIN ["COM"]
properties('MP2/aug-cc-pvtz', properties = ['dipole'])
--------------------------------------------------------------------------

    Molecular point group: c1
  Charge       = 0
  Multiplicity = 1
  Basis Set: AUG-CC-PVTZ
    Blend: AUG-CC-PVTZ
  Basis Set: (AUG-CC-PVTZ AUX)
    Blend: AUG-CC-PVTZ-JKFIT

    Orbital Energies [Eh]
    ---------------------

    Doubly Occupied:

       1A    -20.615790     2A    -20.552691     3A    -11.390348
       4A    -11.254205     5A    -11.235951     6A    -11.232512
       7A    -11.230231     8A    -11.214715     9A     -1.458795
      10A     -1.358230    11A     -1.103172    12A     -1.045965
      13A     -0.960711    14A     -0.870510    15A     -0.806004
      16A     -0.738662    17A     -0.703016    18A     -0.683356
      19A     -0.654908    20A     -0.625628    21A     -0.612163
      22A     -0.599045    23A     -0.583481    24A     -0.552715
      25A     -0.525428    26A     -0.498206    27A     -0.491636
      28A     -0.484434    29A     -0.480224    30A     -0.456135
      31A     -0.354468

  @DF-RHF Final Energy:  -382.90276790167366

   => Energetics <=

    Nuclear Repulsion Energy =            355.1393250747001389
    One-Electron Energy =               -1225.3375181500475719
    Two-Electron Energy =                 487.2954251736738343
    Total Energy =                       -382.9027679016736556
  Basis Set: (AUG-CC-PVTZ AUX)
    Blend: AUG-CC-PVTZ-RI
    Molecular point group: c1

    Geometry (in Angstrom), charge = 0, multiplicity = 1:

       Center              X                  Y                   Z               Mass
    ------------   -----------------  -----------------  -----------------  -----------------
         O            3.149729288954     0.388001816807     0.011422314606    15.994914619570
         O            1.722224288954    -1.363289183193    -0.206838685394    15.994914619570
         C           -2.916794711046     0.348690816807    -0.503086685394    12.000000000000
         C           -1.496496711046     0.826313816807    -0.408314685394    12.000000000000
         C            0.861465888954     0.814840916807     0.420802814606    12.000000000000
         C           -0.525032711046     0.263204816807     0.325575314606    12.000000000000
         C           -3.248091711046    -0.881401183193     0.335286314606    12.000000000000
         C            1.910300288954    -0.184645183193     0.026298314606    12.000000000000
         H           -3.583001711046     1.176013816807    -0.217973685394     1.007825032230
         H           -3.147996711046     0.144239816807    -1.560821685394     1.007825032230
         H           -1.255749711046     1.720034816807    -0.994194685394     1.007825032230
         H            0.978349288954     1.714345816807    -0.222041685394     1.007825032230
         H            1.096814288954     1.154128816807     1.432061314606     1.007825032230
         H           -0.704504411046    -0.643279383193     0.905513014606     1.007825032230
         H           -4.296081711046    -1.161508183193     0.211469314606     1.007825032230
         H           -2.631838711046    -1.735904183193     0.037952314606     1.007825032230
         H           -3.074371711046    -0.688757183193     1.399231314606     1.007825032230
         H            3.768248288954    -0.334249183193    -0.230218685394     1.007825032230

  Basis Set: AUG-CC-PVTZ
    Blend: AUG-CC-PVTZ
  Basis Set: (AUG-CC-PVTZ AUX)
    Blend: AUG-CC-PVTZ-JKFIT
	 Reference Energy          =    -382.9027679016736556 [Eh]
	 Singles Energy            =      -0.0000000000000000 [Eh]
	 Same-Spin Energy          =      -0.3831617183950586 [Eh]
	 Opposite-Spin Energy      =      -1.2545916444542713 [Eh]
	 Correlation Energy        =      -1.6377533628493299 [Eh]
	 Total Energy              =    -384.5405212645229653 [Eh]

	 ================> DF-SCS-MP2 Energies <==================
	-----------------------------------------------------------
	 SCS Same-Spin Scale       =       0.3333333333333333 [-]
	 SCS Opposite-Spin Scale   =       1.2000000000000000 [-]
	 SCS Same-Spin Energy      =      -0.1277205727983529 [Eh]
	 SCS Opposite-Spin Energy  =      -1.5055099733451256 [Eh]
	 SCS Correlation Energy    =      -1.6332305461434784 [Eh]
	 SCS Total Energy          =    -384.5359984478171214 [Eh]
	-----------------------------------------------------------

  Dipole Moment: [D]
     X:    -0.1819      Y:     1.3932      Z:     0.2136     Total:     1.4211

*** Psi4 exiting successfully. Buy a developer a beer!
