                               Psi4 1.3.2 release

  ==> Input File <==

--------------------------------------------------------------------------
#psi4
#
memory 32 gb

molecule  {
0 1
  O        3.1501630     0.3869830     0.0122970
  O        1.7226580    -1.3643080    -0.2059640
  C       -2.9163610     0.3476720    -0.5022120
  C       -1.4960630     0.8252950    -0.4074400
  C        0.8771391     0.7647274     0.4618439
  C       -0.5245990     0.2621860     0.3264500
  C       -3.2476580    -0.8824200     0.3361610
  C        1.9107340    -0.1856640     0.0271730
  H       -3.5825680     1.1749950    -0.2170990
  H       -3.1475630     0.1432210    -1.5599470
  H       -1.2553160     1.7190160    -0.9933200
  H        0.9787830     1.7133270    -0.2211670
  H        1.0972480     1.1531100     1.4329360
  H       -0.6588232    -0.6426144     0.9210689
  H       -4.2956480    -1.1625270     0.2123440
  H       -2.6314050    -1.7369230     0.0388270
  H       -3.0739380    -0.6897760     1.4001060
  H        3.7686820    -0.3352680    -0.2293440
units angstrom
no_reorient  #important for SAPT in psi4, default
symmetry c1  #important for SAPT in psi4, default
}

set PROPERTIES_ORIGIN ["COM"]
properties('MP2/aug-cc-pvtz', properties = ['dipole'])
--------------------------------------------------------------------------

    Molecular point group: c1
  Charge       = 0
  Multiplicity = 1
  Basis Set: AUG-CC-PVTZ
    Blend: AUG-CC-PVTZ
  Basis Set: (AUG-CC-PVTZ AUX)
    Blend: AUG-CC-PVTZ-JKFIT

    Orbital Energies [Eh]
    ---------------------

    Doubly Occupied:

       1A    -20.615977     2A    -20.552079     3A    -11.389624
       4A    -11.254666     5A    -11.238256     6A    -11.233757
       7A    -11.231015     8A    -11.214554     9A     -1.459547
      10A     -1.358639    11A     -1.103718    12A     -1.048519
      13A     -0.963159    14A     -0.872012    15A     -0.806761
      16A     -0.737145    17A     -0.703593    18A     -0.688823
      19A     -0.657525    20A     -0.623456    21A     -0.612395
      22A     -0.600076    23A     -0.588973    24A     -0.552455
      25A     -0.513091    26A     -0.498261    27A     -0.493109
      28A     -0.481797    29A     -0.478196    30A     -0.457138
      31A     -0.356486

  @DF-RHF Final Energy:  -382.89533054665122

   => Energetics <=

    Nuclear Repulsion Energy =            355.4657348296178725
    One-Electron Energy =               -1225.9525190853303229
    Two-Electron Energy =                 487.5914537090612271
    Total Energy =                       -382.8953305466512234
  Basis Set: (AUG-CC-PVTZ AUX)
    Blend: AUG-CC-PVTZ-RI
    Molecular point group: c1

    Geometry (in Angstrom), charge = 0, multiplicity = 1:

       Center              X                  Y                   Z               Mass
    ------------   -----------------  -----------------  -----------------  -----------------
         O            3.147726313503     0.393151718747     0.007067083214    15.994914619570
         O            1.720221313503    -1.358139281253    -0.211193916786    15.994914619570
         C           -2.918797686497     0.353840718747    -0.507441916786    12.000000000000
         C           -1.498499686497     0.831463718747    -0.412669916786    12.000000000000
         C            0.874702413503     0.770896118747     0.456613983214    12.000000000000
         C           -0.527035686497     0.268354718747     0.321220083214    12.000000000000
         C           -3.250094686497    -0.876251281253     0.330931083214    12.000000000000
         C            1.908297313503    -0.179495281253     0.021943083214    12.000000000000
         H           -3.585004686497     1.181163718747    -0.222328916786     1.007825032230
         H           -3.149999686497     0.149389718747    -1.565176916786     1.007825032230
         H           -1.257752686497     1.725184718747    -0.998549916786     1.007825032230
         H            0.976346313503     1.719495718747    -0.226396916786     1.007825032230
         H            1.094811313503     1.159278718747     1.427706083214     1.007825032230
         H           -0.661259886497    -0.636445681253     0.915838983214     1.007825032230
         H           -4.298084686497    -1.156358281253     0.207114083214     1.007825032230
         H           -2.633841686497    -1.730754281253     0.033597083214     1.007825032230
         H           -3.076374686497    -0.683607281253     1.394876083214     1.007825032230
         H            3.766245313503    -0.329099281253    -0.234573916786     1.007825032230

  Basis Set: AUG-CC-PVTZ
    Blend: AUG-CC-PVTZ
  Basis Set: (AUG-CC-PVTZ AUX)
    Blend: AUG-CC-PVTZ-JKFIT
	 Reference Energy          =    -382.8953305466512234 [Eh]
	 Singles Energy            =      -0.0000000000000000 [Eh]
	 Same-Spin Energy          =      -0.3834656666325252 [Eh]
	 Opposite-Spin Energy      =      -1.2552908380025392 [Eh]
	 Correlation Energy        =      -1.6387565046350643 [Eh]
	 Total Energy              =    -384.5340870512862921 [Eh]

	 ================> DF-SCS-MP2 Energies <==================
	-----------------------------------------------------------
	 SCS Same-Spin Scale       =       0.3333333333333333 [-]
	 SCS Opposite-Spin Scale   =       1.2000000000000000 [-]
	 SCS Same-Spin Energy      =      -0.1278218888775084 [Eh]
	 SCS Opposite-Spin Energy  =      -1.5063490056030469 [Eh]
	 SCS Correlation Energy    =      -1.6341708944805553 [Eh]
	 SCS Total Energy          =    -384.5295014411317993 [Eh]
	-----------------------------------------------------------

  Dipole Moment: [D]
     X:    -0.2109      Y:     1.3996      Z:     0.2482     Total:     1.4370

*** Psi4 exiting successfully. Buy a developer a beer!
