                               Psi4 1.3.2 release

  ==> Input File <==

--------------------------------------------------------------------------
#psi4
#
memory 32 gb

molecule  {
0 1
  O        3.1501630     0.3869830     0.0122970
  O        1.7226580    -1.3643080    -0.2059640
  C       -2.9163610     0.3476720    -0.5022120
  C       -1.4960630     0.8252950    -0.4074400
  C        0.8585340     0.8235180     0.4136200
  C       -0.5245990     0.2621860     0.3264500
  C       -3.2476580    -0.8824200     0.3361610
  C        2.0922815    -0.1017845     0.0249940
  H       -3.5825680     1.1749950    -0.2170990
  H       -3.1475630     0.1432210    -1.5599470
  H       -1.2553160     1.7190160    -0.9933200
  H        0.9787830     1.7133270    -0.2211670
  H        1.0972480     1.1531100     1.4329360
  H       -0.7130820    -0.6444280     0.9033180
  H       -4.2956480    -1.1625270     0.2123440
  H       -2.6314050    -1.7369230     0.0388270
  H       -3.0739380    -0.6897760     1.4001060
  H        3.7686820    -0.3352680    -0.2293440
units angstrom
no_reorient  #important for SAPT in psi4, default
symmetry c1  #important for SAPT in psi4, default
}

set PROPERTIES_ORIGIN ["COM"]
properties('MP2/aug-cc-pvtz', properties = ['dipole'])
--------------------------------------------------------------------------

    Molecular point group: c1
  Charge       = 0
  Multiplicity = 1
  Basis Set: AUG-CC-PVTZ
    Blend: AUG-CC-PVTZ
  Basis Set: (AUG-CC-PVTZ AUX)
    Blend: AUG-CC-PVTZ-JKFIT

    Orbital Energies [Eh]
    ---------------------

    Doubly Occupied:

       1A    -20.672913     2A    -20.518230     3A    -11.393659
       4A    -11.252534     5A    -11.229340     6A    -11.227069
       7A    -11.225435     8A    -11.210005     9A     -1.580275
      10A     -1.288284    11A     -1.092587    12A     -1.033835
      13A     -0.963078    14A     -0.898303    15A     -0.843584
      16A     -0.758592    17A     -0.731400    18A     -0.706806
      19A     -0.670362    20A     -0.626709    21A     -0.607545
      22A     -0.599909    23A     -0.558285    24A     -0.533553
      25A     -0.517320    26A     -0.493175    27A     -0.485454
      28A     -0.476114    29A     -0.438161    30A     -0.420909
      31A     -0.345950

  @DF-RHF Final Energy:  -382.84269084422931

   => Energetics <=

    Nuclear Repulsion Energy =            354.7428558111886900
    One-Electron Energy =               -1224.3723461716542715
    Two-Electron Energy =                 486.7867995162362149
    Total Energy =                       -382.8426908442293097
  Basis Set: (AUG-CC-PVTZ AUX)
    Blend: AUG-CC-PVTZ-RI
    Molecular point group: c1

    Geometry (in Angstrom), charge = 0, multiplicity = 1:

       Center              X                  Y                   Z               Mass
    ------------   -----------------  -----------------  -----------------  -----------------
         O            3.131064111155     0.378158800350     0.012526319521    15.994914619570
         O            1.703559111155    -1.373132199650    -0.205734680479    15.994914619570
         C           -2.935459888845     0.338847800350    -0.501982680479    12.000000000000
         C           -1.515161888845     0.816470800350    -0.407210680479    12.000000000000
         C            0.839435111155     0.814693800350     0.413849319521    12.000000000000
         C           -0.543697888845     0.253361800350     0.326679319521    12.000000000000
         C           -3.266756888845    -0.891244199650     0.336390319521    12.000000000000
         C            2.073182611155    -0.110608699650     0.025223319521    12.000000000000
         H           -3.601666888845     1.166170800350    -0.216869680479     1.007825032230
         H           -3.166661888845     0.134396800350    -1.559717680479     1.007825032230
         H           -1.274414888845     1.710191800350    -0.993090680479     1.007825032230
         H            0.959684111155     1.704502800350    -0.220937680479     1.007825032230
         H            1.078149111155     1.144285800350     1.433165319521     1.007825032230
         H           -0.732180888845    -0.653252199650     0.903547319521     1.007825032230
         H           -4.314746888845    -1.171351199650     0.212573319521     1.007825032230
         H           -2.650503888845    -1.745747199650     0.039056319521     1.007825032230
         H           -3.093036888845    -0.698600199650     1.400335319521     1.007825032230
         H            3.749583111155    -0.344092199650    -0.229114680479     1.007825032230

  Basis Set: AUG-CC-PVTZ
    Blend: AUG-CC-PVTZ
  Basis Set: (AUG-CC-PVTZ AUX)
    Blend: AUG-CC-PVTZ-JKFIT
	 Reference Energy          =    -382.8426908442293097 [Eh]
	 Singles Energy            =      -0.0000000000000000 [Eh]
	 Same-Spin Energy          =      -0.3844441054122152 [Eh]
	 Opposite-Spin Energy      =      -1.2558249576837408 [Eh]
	 Correlation Energy        =      -1.6402690630959560 [Eh]
	 Total Energy              =    -384.4829599073252666 [Eh]

	 ================> DF-SCS-MP2 Energies <==================
	-----------------------------------------------------------
	 SCS Same-Spin Scale       =       0.3333333333333333 [-]
	 SCS Opposite-Spin Scale   =       1.2000000000000000 [-]
	 SCS Same-Spin Energy      =      -0.1281480351374051 [Eh]
	 SCS Opposite-Spin Energy  =      -1.5069899492204890 [Eh]
	 SCS Correlation Energy    =      -1.6351379843578941 [Eh]
	 SCS Total Energy          =    -384.4778288285871781 [Eh]
	-----------------------------------------------------------

  Dipole Moment: [D]
     X:     1.3304      Y:     2.1990      Z:     0.2197     Total:     2.5795

*** Psi4 exiting successfully. Buy a developer a beer!
