                               Psi4 1.3.2 release

  ==> Input File <==

--------------------------------------------------------------------------
#psi4
#
memory 32 gb

molecule  {
0 1
  O        3.1501630     0.3869830     0.0122970
  O        1.7226580    -1.3643080    -0.2059640
  C       -2.9163610     0.3476720    -0.5022120
  C       -1.4960630     0.8252950    -0.4074400
  C        0.8585340     0.8235180     0.4136200
  C       -0.5245990     0.2621860     0.3264500
  C       -3.2476580    -0.8824200     0.3361610
  C        1.9152831    -0.1773407     0.0180477
  H       -3.5825680     1.1749950    -0.2170990
  H       -3.1475630     0.1432210    -1.5599470
  H       -1.2553160     1.7190160    -0.9933200
  H        0.9861883     1.7091203    -0.2255884
  H        1.0972480     1.1531100     1.4329360
  H       -0.7130820    -0.6444280     0.9033180
  H       -4.2956480    -1.1625270     0.2123440
  H       -2.6314050    -1.7369230     0.0388270
  H       -3.0739380    -0.6897760     1.4001060
  H        3.7686820    -0.3352680    -0.2293440
units angstrom
no_reorient  #important for SAPT in psi4, default
symmetry c1  #important for SAPT in psi4, default
}

set PROPERTIES_ORIGIN ["COM"]
properties('MP2/aug-cc-pvtz', properties = ['dipole'])
--------------------------------------------------------------------------

    Molecular point group: c1
  Charge       = 0
  Multiplicity = 1
  Basis Set: AUG-CC-PVTZ
    Blend: AUG-CC-PVTZ
  Basis Set: (AUG-CC-PVTZ AUX)
    Blend: AUG-CC-PVTZ-JKFIT

    Orbital Energies [Eh]
    ---------------------

    Doubly Occupied:

       1A    -20.618003     2A    -20.551089     3A    -11.390825
       4A    -11.254320     5A    -11.235436     6A    -11.232274
       7A    -11.229981     8A    -11.214627     9A     -1.460212
      10A     -1.355431    11A     -1.102940    12A     -1.045460
      13A     -0.960477    14A     -0.870689    15A     -0.807990
      16A     -0.738823    17A     -0.703179    18A     -0.682185
      19A     -0.654841    20A     -0.626692    21A     -0.612012
      22A     -0.598737    23A     -0.581418    24A     -0.552649
      25A     -0.528240    26A     -0.498076    27A     -0.491120
      28A     -0.483543    29A     -0.479106    30A     -0.454781
      31A     -0.354045

  @DF-RHF Final Energy:  -382.90257907250640

   => Energetics <=

    Nuclear Repulsion Energy =            355.0439299218534188
    One-Electron Energy =               -1225.1546135160922404
    Two-Electron Energy =                 487.2081045217324231
    Total Energy =                       -382.9025790725063985
  Basis Set: (AUG-CC-PVTZ AUX)
    Blend: AUG-CC-PVTZ-RI
    Molecular point group: c1

    Geometry (in Angstrom), charge = 0, multiplicity = 1:

       Center              X                  Y                   Z               Mass
    ------------   -----------------  -----------------  -----------------  -----------------
         O            3.149618973842     0.386144505212     0.013296136966    15.994914619570
         O            1.722113973842    -1.365146494788    -0.204964863034    15.994914619570
         C           -2.916905026158     0.346833505212    -0.501212863034    12.000000000000
         C           -1.496607026158     0.824456505212    -0.406440863034    12.000000000000
         C            0.857989973842     0.822679505212     0.414619136966    12.000000000000
         C           -0.525143026158     0.261347505212     0.327449136966    12.000000000000
         C           -3.248202026158    -0.883258494788     0.337160136966    12.000000000000
         C            1.914739073842    -0.178179194788     0.019046836966    12.000000000000
         H           -3.583112026158     1.174156505212    -0.216099863034     1.007825032230
         H           -3.148107026158     0.142382505212    -1.558947863034     1.007825032230
         H           -1.255860026158     1.718177505212    -0.992320863034     1.007825032230
         H            0.985644273842     1.708281805212    -0.224589263034     1.007825032230
         H            1.096703973842     1.152271505212     1.433935136966     1.007825032230
         H           -0.713626026158    -0.645266494788     0.904317136966     1.007825032230
         H           -4.296192026158    -1.163365494788     0.213343136966     1.007825032230
         H           -2.631949026158    -1.737761494788     0.039826136966     1.007825032230
         H           -3.074482026158    -0.690614494788     1.401105136966     1.007825032230
         H            3.768137973842    -0.336106494788    -0.228344863034     1.007825032230

  Basis Set: AUG-CC-PVTZ
    Blend: AUG-CC-PVTZ
  Basis Set: (AUG-CC-PVTZ AUX)
    Blend: AUG-CC-PVTZ-JKFIT
	 Reference Energy          =    -382.9025790725063985 [Eh]
	 Singles Energy            =      -0.0000000000000000 [Eh]
	 Same-Spin Energy          =      -0.3832247291251019 [Eh]
	 Opposite-Spin Energy      =      -1.2546749540894679 [Eh]
	 Correlation Energy        =      -1.6378996832145698 [Eh]
	 Total Energy              =    -384.5404787557209829 [Eh]

	 ================> DF-SCS-MP2 Energies <==================
	-----------------------------------------------------------
	 SCS Same-Spin Scale       =       0.3333333333333333 [-]
	 SCS Opposite-Spin Scale   =       1.2000000000000000 [-]
	 SCS Same-Spin Energy      =      -0.1277415763750339 [Eh]
	 SCS Opposite-Spin Energy  =      -1.5056099449073614 [Eh]
	 SCS Correlation Energy    =      -1.6333515212823955 [Eh]
	 SCS Total Energy          =    -384.5359305937888053 [Eh]
	-----------------------------------------------------------

  Dipole Moment: [D]
     X:    -0.1246      Y:     1.4370      Z:     0.1992     Total:     1.4561

*** Psi4 exiting successfully. Buy a developer a beer!
