                               Psi4 1.3.2 release

  ==> Input File <==

--------------------------------------------------------------------------
#psi4
#
memory 32 gb

molecule  {
0 1
  O        3.1501630     0.3869830     0.0122970
  O        1.7226580    -1.3643080    -0.2059640
  C       -2.9163610     0.3476720    -0.5022120
  C       -1.4960630     0.8252950    -0.4074400
  C        0.8585340     0.8235180     0.4136200
  C       -0.5245990     0.2621860     0.3264500
  C       -3.2476580    -0.8824200     0.3361610
  C        1.9013115    -0.1646180     0.0331877
  H       -3.5825680     1.1749950    -0.2170990
  H       -3.1475630     0.1432210    -1.5599470
  H       -1.2553160     1.7190160    -0.9933200
  H        0.9787830     1.7133270    -0.2211670
  H        1.0972480     1.1531100     1.4329360
  H       -0.7130820    -0.6444280     0.9033180
  H       -4.2956480    -1.1625270     0.2123440
  H       -2.6314050    -1.7369230     0.0388270
  H       -3.0739380    -0.6897760     1.4001060
  H        3.7817317    -0.3242268    -0.2283361
units angstrom
no_reorient  #important for SAPT in psi4, default
symmetry c1  #important for SAPT in psi4, default
}

set PROPERTIES_ORIGIN ["COM"]
properties('MP2/aug-cc-pvtz', properties = ['dipole'])
--------------------------------------------------------------------------

    Molecular point group: c1
  Charge       = 0
  Multiplicity = 1
  Basis Set: AUG-CC-PVTZ
    Blend: AUG-CC-PVTZ
  Basis Set: (AUG-CC-PVTZ AUX)
    Blend: AUG-CC-PVTZ-JKFIT

    Orbital Energies [Eh]
    ---------------------

    Doubly Occupied:

       1A    -20.615629     2A    -20.549678     3A    -11.392590
       4A    -11.255514     5A    -11.236468     6A    -11.233469
       7A    -11.230592     8A    -11.215033     9A     -1.453651
      10A     -1.346699    11A     -1.105524    12A     -1.049050
      13A     -0.963387    14A     -0.871809    15A     -0.808269
      16A     -0.740071    17A     -0.699549    18A     -0.681590
      19A     -0.654745    20A     -0.626862    21A     -0.612412
      22A     -0.597216    23A     -0.579560    24A     -0.553714
      25A     -0.528961    26A     -0.498531    27A     -0.491720
      28A     -0.483270    29A     -0.475314    30A     -0.454889
      31A     -0.355318

  @DF-RHF Final Energy:  -382.90040284655163

   => Energetics <=

    Nuclear Repulsion Energy =            354.9961617191659116
    One-Electron Energy =               -1225.0709595446483036
    Two-Electron Energy =                 487.1743949789307635
    Total Energy =                       -382.9004028465516285
  Basis Set: (AUG-CC-PVTZ AUX)
    Blend: AUG-CC-PVTZ-RI
    Molecular point group: c1

    Geometry (in Angstrom), charge = 0, multiplicity = 1:

       Center              X                  Y                   Z               Mass
    ------------   -----------------  -----------------  -----------------  -----------------
         O            3.151038920886     0.384671353249     0.011655434456    15.994914619570
         O            1.723533920886    -1.366619646751    -0.206605565544    15.994914619570
         C           -2.915485079114     0.345360353249    -0.502853565544    12.000000000000
         C           -1.495187079114     0.822983353249    -0.408081565544    12.000000000000
         C            0.859409920886     0.821206353249     0.412978434456    12.000000000000
         C           -0.523723079114     0.259874353249     0.325808434456    12.000000000000
         C           -3.246782079114    -0.884731646751     0.335519434456    12.000000000000
         C            1.902187420886    -0.166929646751     0.032546134456    12.000000000000
         H           -3.581692079114     1.172683353249    -0.217740565544     1.007825032230
         H           -3.146687079114     0.140909353249    -1.560588565544     1.007825032230
         H           -1.254440079114     1.716704353249    -0.993961565544     1.007825032230
         H            0.979658920886     1.711015353249    -0.221808565544     1.007825032230
         H            1.098123920886     1.150798353249     1.432294434456     1.007825032230
         H           -0.712206079114    -0.646739646751     0.902676434456     1.007825032230
         H           -4.294772079114    -1.164838646751     0.211702434456     1.007825032230
         H           -2.630529079114    -1.739234646751     0.038185434456     1.007825032230
         H           -3.073062079114    -0.692087646751     1.399464434456     1.007825032230
         H            3.782607620886    -0.326538446751    -0.228977665544     1.007825032230

  Basis Set: AUG-CC-PVTZ
    Blend: AUG-CC-PVTZ
  Basis Set: (AUG-CC-PVTZ AUX)
    Blend: AUG-CC-PVTZ-JKFIT
	 Reference Energy          =    -382.9004028465516285 [Eh]
	 Singles Energy            =      -0.0000000000000000 [Eh]
	 Same-Spin Energy          =      -0.3836028190092977 [Eh]
	 Opposite-Spin Energy      =      -1.2554327797758453 [Eh]
	 Correlation Energy        =      -1.6390355987851430 [Eh]
	 Total Energy              =    -384.5394384453367707 [Eh]

	 ================> DF-SCS-MP2 Energies <==================
	-----------------------------------------------------------
	 SCS Same-Spin Scale       =       0.3333333333333333 [-]
	 SCS Opposite-Spin Scale   =       1.2000000000000000 [-]
	 SCS Same-Spin Energy      =      -0.1278676063364326 [Eh]
	 SCS Opposite-Spin Energy  =      -1.5065193357310143 [Eh]
	 SCS Correlation Energy    =      -1.6343869420674468 [Eh]
	 SCS Total Energy          =    -384.5347897886190935 [Eh]
	-----------------------------------------------------------

  Dipole Moment: [D]
     X:    -0.2126      Y:     1.5197      Z:     0.2364     Total:     1.5526

*** Psi4 exiting successfully. Buy a developer a beer!
