                               Psi4 1.3.2 release

  ==> Input File <==

--------------------------------------------------------------------------
#psi4
#
memory 32 gb

molecule  {
0 1
  O        3.1501630     0.3869830     0.0122970
  O        1.7226580    -1.3643080    -0.2059640
  C       -2.9163610     0.3476720    -0.5022120
  C       -1.4960630     0.8252950    -0.4074400
  C        0.8585340     0.8235180     0.4136200
  C       -0.5245990     0.2621860     0.3264500
  C       -3.2476580    -0.8824200     0.3361610
  C        1.8917397    -0.2181823     0.0639617
  H       -3.5825680     1.1749950    -0.2170990
  H       -3.1475630     0.1432210    -1.5599470
  H       -1.2553160     1.7190160    -0.9933200
  H        0.9490759     1.7294730    -0.2030015
  H        1.0972480     1.1531100     1.4329360
  H       -0.7130820    -0.6444280     0.9033180
  H       -4.2956480    -1.1625270     0.2123440
  H       -2.6314050    -1.7369230     0.0388270
  H       -3.0739380    -0.6897760     1.4001060
  H        3.7686820    -0.3352680    -0.2293440
units angstrom
no_reorient  #important for SAPT in psi4, default
symmetry c1  #important for SAPT in psi4, default
}

set PROPERTIES_ORIGIN ["COM"]
properties('MP2/aug-cc-pvtz', properties = ['dipole'])
--------------------------------------------------------------------------

    Molecular point group: c1
  Charge       = 0
  Multiplicity = 1
  Basis Set: AUG-CC-PVTZ
    Blend: AUG-CC-PVTZ
  Basis Set: (AUG-CC-PVTZ AUX)
    Blend: AUG-CC-PVTZ-JKFIT

    Orbital Energies [Eh]
    ---------------------

    Doubly Occupied:

       1A    -20.606404     2A    -20.559744     3A    -11.389626
       4A    -11.254408     5A    -11.235980     6A    -11.232619
       7A    -11.230571     8A    -11.215358     9A     -1.457376
      10A     -1.363361    11A     -1.104053    12A     -1.045883
      13A     -0.959464    14A     -0.868803    15A     -0.798078
      16A     -0.740821    17A     -0.702784    18A     -0.683122
      19A     -0.652764    20A     -0.624497    21A     -0.612688
      22A     -0.601484    23A     -0.583937    24A     -0.552194
      25A     -0.526783    26A     -0.498790    27A     -0.492799
      28A     -0.490931    29A     -0.482203    30A     -0.458617
      31A     -0.354159

  @DF-RHF Final Energy:  -382.90160045932606

   => Energetics <=

    Nuclear Repulsion Energy =            355.1753093459706179
    One-Electron Energy =               -1225.3932167501343429
    Two-Electron Energy =                 487.3163069448376632
    Total Energy =                       -382.9016004593260618
  Basis Set: (AUG-CC-PVTZ AUX)
    Blend: AUG-CC-PVTZ-RI
    Molecular point group: c1

    Geometry (in Angstrom), charge = 0, multiplicity = 1:

       Center              X                  Y                   Z               Mass
    ------------   -----------------  -----------------  -----------------  -----------------
         O            3.152423646341     0.390261233058     0.008266406954    15.994914619570
         O            1.724918646341    -1.361029766942    -0.209994593046    15.994914619570
         C           -2.914100353659     0.350950233058    -0.506242593046    12.000000000000
         C           -1.493802353659     0.828573233058    -0.411470593046    12.000000000000
         C            0.860794646341     0.826796233058     0.409589406954    12.000000000000
         C           -0.522338353659     0.265464233058     0.322419406954    12.000000000000
         C           -3.245397353659    -0.879141766942     0.332130406954    12.000000000000
         C            1.894000346341    -0.214904066942     0.059931106954    12.000000000000
         H           -3.580307353659     1.178273233058    -0.221129593046     1.007825032230
         H           -3.145302353659     0.146499233058    -1.563977593046     1.007825032230
         H           -1.253055353659     1.722294233058    -0.997350593046     1.007825032230
         H            0.951336546341     1.732751233058    -0.207032093046     1.007825032230
         H            1.099508646341     1.156388233058     1.428905406954     1.007825032230
         H           -0.710821353659    -0.641149766942     0.899287406954     1.007825032230
         H           -4.293387353659    -1.159248766942     0.208313406954     1.007825032230
         H           -2.629144353659    -1.733644766942     0.034796406954     1.007825032230
         H           -3.071677353659    -0.686497766942     1.396075406954     1.007825032230
         H            3.770942646341    -0.331989766942    -0.233374593046     1.007825032230

  Basis Set: AUG-CC-PVTZ
    Blend: AUG-CC-PVTZ
  Basis Set: (AUG-CC-PVTZ AUX)
    Blend: AUG-CC-PVTZ-JKFIT
	 Reference Energy          =    -382.9016004593260618 [Eh]
	 Singles Energy            =      -0.0000000000000000 [Eh]
	 Same-Spin Energy          =      -0.3829079285166737 [Eh]
	 Opposite-Spin Energy      =      -1.2542264605915148 [Eh]
	 Correlation Energy        =      -1.6371343891081884 [Eh]
	 Total Energy              =    -384.5387348484342738 [Eh]

	 ================> DF-SCS-MP2 Energies <==================
	-----------------------------------------------------------
	 SCS Same-Spin Scale       =       0.3333333333333333 [-]
	 SCS Opposite-Spin Scale   =       1.2000000000000000 [-]
	 SCS Same-Spin Energy      =      -0.1276359761722246 [Eh]
	 SCS Opposite-Spin Energy  =      -1.5050717527098176 [Eh]
	 SCS Correlation Energy    =      -1.6327077288820422 [Eh]
	 SCS Total Energy          =    -384.5343081882081151 [Eh]
	-----------------------------------------------------------

  Dipole Moment: [D]
     X:    -0.4029      Y:     1.2052      Z:     0.2413     Total:     1.2934

*** Psi4 exiting successfully. Buy a developer a beer!
