                               Psi4 1.3.2 release

  ==> Input File <==

--------------------------------------------------------------------------
#psi4
#
memory 32 gb

molecule  {
0 1
  O        3.1501630     0.3869830     0.0122970
  O        1.7226580    -1.3643080    -0.2059640
  C       -2.9163610     0.3476720    -0.5022120
  C       -1.5142669     0.8829311    -0.4576965
  C        0.8585340     0.8235180     0.4136200
  C       -0.5245990     0.2621860     0.3264500
  C       -3.3225192    -0.8783845     0.3086976
  C        1.9107340    -0.1856640     0.0271730
  H       -3.5825680     1.1749950    -0.2170990
  H       -3.1475630     0.1432210    -1.5599470
  H       -1.2553160     1.7190160    -0.9933200
  H        0.9787830     1.7133270    -0.2211670
  H        1.0972480     1.1531100     1.4329360
  H       -0.7130820    -0.6444280     0.9033180
  H       -4.2956480    -1.1625270     0.2123440
  H       -2.6314050    -1.7369230     0.0388270
  H       -3.0739380    -0.6897760     1.4001060
  H        3.7686820    -0.3352680    -0.2293440
units angstrom
no_reorient  #important for SAPT in psi4, default
symmetry c1  #important for SAPT in psi4, default
}

set PROPERTIES_ORIGIN ["COM"]
properties('MP2/aug-cc-pvtz', properties = ['dipole'])
--------------------------------------------------------------------------

    Molecular point group: c1
  Charge       = 0
  Multiplicity = 1
  Basis Set: AUG-CC-PVTZ
    Blend: AUG-CC-PVTZ
  Basis Set: (AUG-CC-PVTZ AUX)
    Blend: AUG-CC-PVTZ-JKFIT

    Orbital Energies [Eh]
    ---------------------

    Doubly Occupied:

       1A    -20.615561     2A    -20.552667     3A    -11.390209
       4A    -11.253978     5A    -11.242616     6A    -11.240794
       7A    -11.230524     8A    -11.217702     9A     -1.458462
      10A     -1.357989    11A     -1.096568    12A     -1.045625
      13A     -0.957250    14A     -0.871342    15A     -0.802882
      16A     -0.751865    17A     -0.703453    18A     -0.682682
      19A     -0.653746    20A     -0.632644    21A     -0.604938
      22A     -0.598430    23A     -0.581250    24A     -0.560220
      25A     -0.534727    26A     -0.506475    27A     -0.483568
      28A     -0.482126    29A     -0.476369    30A     -0.455565
      31A     -0.339520

  @DF-RHF Final Energy:  -382.88298574918213

   => Energetics <=

    Nuclear Repulsion Energy =            353.6082050072703851
    One-Electron Energy =               -1222.2188894414925926
    Two-Electron Energy =                 485.7276986850400817
    Total Energy =                       -382.8829857491821258
  Basis Set: (AUG-CC-PVTZ AUX)
    Blend: AUG-CC-PVTZ-RI
    Molecular point group: c1

    Geometry (in Angstrom), charge = 0, multiplicity = 1:

       Center              X                  Y                   Z               Mass
    ------------   -----------------  -----------------  -----------------  -----------------
         O            3.159953448230     0.380495078834     0.020473247386    15.994914619570
         O            1.732448448230    -1.370795921166    -0.197787752614    15.994914619570
         C           -2.906570551770     0.341184078834    -0.494035752614    12.000000000000
         C           -1.504476451770     0.876443178834    -0.449520252614    12.000000000000
         C            0.868324448230     0.817030078834     0.421796247386    12.000000000000
         C           -0.514808551770     0.255698078834     0.334626247386    12.000000000000
         C           -3.312728751770    -0.884872421166     0.316873847386    12.000000000000
         C            1.920524448230    -0.192151921166     0.035349247386    12.000000000000
         H           -3.572777551770     1.168507078834    -0.208922752614     1.007825032230
         H           -3.137772551770     0.136733078834    -1.551770752614     1.007825032230
         H           -1.245525551770     1.712528078834    -0.985143752614     1.007825032230
         H            0.988573448230     1.706839078834    -0.212990752614     1.007825032230
         H            1.107038448230     1.146622078834     1.441112247386     1.007825032230
         H           -0.703291551770    -0.650915921166     0.911494247386     1.007825032230
         H           -4.285857551770    -1.169014921166     0.220520247386     1.007825032230
         H           -2.621614551770    -1.743410921166     0.047003247386     1.007825032230
         H           -3.064147551770    -0.696263921166     1.408282247386     1.007825032230
         H            3.778472448230    -0.341755921166    -0.221167752614     1.007825032230

  Basis Set: AUG-CC-PVTZ
    Blend: AUG-CC-PVTZ
  Basis Set: (AUG-CC-PVTZ AUX)
    Blend: AUG-CC-PVTZ-JKFIT
	 Reference Energy          =    -382.8829857491821258 [Eh]
	 Singles Energy            =      -0.0000000000000000 [Eh]
	 Same-Spin Energy          =      -0.3839450445255049 [Eh]
	 Opposite-Spin Energy      =      -1.2567652539831271 [Eh]
	 Correlation Energy        =      -1.6407102985086319 [Eh]
	 Total Energy              =    -384.5236960476907484 [Eh]

	 ================> DF-SCS-MP2 Energies <==================
	-----------------------------------------------------------
	 SCS Same-Spin Scale       =       0.3333333333333333 [-]
	 SCS Opposite-Spin Scale   =       1.2000000000000000 [-]
	 SCS Same-Spin Energy      =      -0.1279816815085016 [Eh]
	 SCS Opposite-Spin Energy  =      -1.5081183047797524 [Eh]
	 SCS Correlation Energy    =      -1.6360999862882539 [Eh]
	 SCS Total Energy          =    -384.5190857354703553 [Eh]
	-----------------------------------------------------------

  Dipole Moment: [D]
     X:    -0.1831      Y:     1.4149      Z:     0.1836     Total:     1.4385

*** Psi4 exiting successfully. Buy a developer a beer!
