                               Psi4 1.3.2 release

  ==> Input File <==

--------------------------------------------------------------------------
#psi4
#
memory 32 gb

molecule  {
0 1
  O        3.1501630     0.3869830     0.0122970
  O        1.7226580    -1.3643080    -0.2059640
  C       -2.9163610     0.3476720    -0.5022120
  C       -1.3068728     0.8889166    -0.3948159
  C        0.8585340     0.8235180     0.4136200
  C       -0.5245990     0.2621860     0.3264500
  C       -3.2476580    -0.8824200     0.3361610
  C        1.9107340    -0.1856640     0.0271730
  H       -3.5825680     1.1749950    -0.2170990
  H       -3.1475630     0.1432210    -1.5599470
  H       -1.2553160     1.7190160    -0.9933200
  H        0.9787830     1.7133270    -0.2211670
  H        1.0972480     1.1531100     1.4329360
  H       -0.7130820    -0.6444280     0.9033180
  H       -4.2956480    -1.1625270     0.2123440
  H       -2.6314050    -1.7369230     0.0388270
  H       -3.0739380    -0.6897760     1.4001060
  H        3.7686820    -0.3352680    -0.2293440
units angstrom
no_reorient  #important for SAPT in psi4, default
symmetry c1  #important for SAPT in psi4, default
}

set PROPERTIES_ORIGIN ["COM"]
properties('MP2/aug-cc-pvtz', properties = ['dipole'])
--------------------------------------------------------------------------

    Molecular point group: c1
  Charge       = 0
  Multiplicity = 1
  Basis Set: AUG-CC-PVTZ
    Blend: AUG-CC-PVTZ
  Basis Set: (AUG-CC-PVTZ AUX)
    Blend: AUG-CC-PVTZ-JKFIT

    Orbital Energies [Eh]
    ---------------------

    Doubly Occupied:

       1A    -20.615068     2A    -20.552940     3A    -11.389423
       4A    -11.250369     5A    -11.232335     6A    -11.224263
       7A    -11.220378     8A    -11.212756     9A     -1.458262
      10A     -1.358094    11A     -1.117163    12A     -1.028208
      13A     -0.973369    14A     -0.852582    15A     -0.805189
      16A     -0.754978    17A     -0.704091    18A     -0.683339
      19A     -0.656915    20A     -0.624837    21A     -0.612974
      22A     -0.602176    23A     -0.583892    24A     -0.552829
      25A     -0.530485    26A     -0.499543    27A     -0.489782
      28A     -0.484009    29A     -0.458863    30A     -0.423331
      31A     -0.387103

  @DF-RHF Final Energy:  -382.86696480341675

   => Energetics <=

    Nuclear Repulsion Energy =            355.6268293632791142
    One-Electron Energy =               -1226.3084934875987528
    Two-Electron Energy =                 487.8146993209029461
    Total Energy =                       -382.8669648034167494
  Basis Set: (AUG-CC-PVTZ AUX)
    Blend: AUG-CC-PVTZ-RI
    Molecular point group: c1

    Geometry (in Angstrom), charge = 0, multiplicity = 1:

       Center              X                  Y                   Z               Mass
    ------------   -----------------  -----------------  -----------------  -----------------
         O            3.130260096566     0.380289938184     0.010969028466    15.994914619570
         O            1.702755096566    -1.371001061816    -0.207291971534    15.994914619570
         C           -2.936263903434     0.340978938184    -0.503539971534    12.000000000000
         C           -1.326775703434     0.882223538184    -0.396143871534    12.000000000000
         C            0.838631096566     0.816824938184     0.412292028466    12.000000000000
         C           -0.544501903434     0.255492938184     0.325122028466    12.000000000000
         C           -3.267560903434    -0.889113061816     0.334833028466    12.000000000000
         C            1.890831096566    -0.192357061816     0.025845028466    12.000000000000
         H           -3.602470903434     1.168301938184    -0.218426971534     1.007825032230
         H           -3.167465903434     0.136527938184    -1.561274971534     1.007825032230
         H           -1.275218903434     1.712322938184    -0.994647971534     1.007825032230
         H            0.958880096566     1.706633938184    -0.222494971534     1.007825032230
         H            1.077345096566     1.146416938184     1.431608028466     1.007825032230
         H           -0.732984903434    -0.651121061816     0.901990028466     1.007825032230
         H           -4.315550903434    -1.169220061816     0.211016028466     1.007825032230
         H           -2.651307903434    -1.743616061816     0.037499028466     1.007825032230
         H           -3.093840903434    -0.696469061816     1.398778028466     1.007825032230
         H            3.748779096566    -0.341961061816    -0.230671971534     1.007825032230

  Basis Set: AUG-CC-PVTZ
    Blend: AUG-CC-PVTZ
  Basis Set: (AUG-CC-PVTZ AUX)
    Blend: AUG-CC-PVTZ-JKFIT
	 Reference Energy          =    -382.8669648034167494 [Eh]
	 Singles Energy            =      -0.0000000000000000 [Eh]
	 Same-Spin Energy          =      -0.3822841926915010 [Eh]
	 Opposite-Spin Energy      =      -1.2533232067305025 [Eh]
	 Correlation Energy        =      -1.6356073994220035 [Eh]
	 Total Energy              =    -384.5025722028387349 [Eh]

	 ================> DF-SCS-MP2 Energies <==================
	-----------------------------------------------------------
	 SCS Same-Spin Scale       =       0.3333333333333333 [-]
	 SCS Opposite-Spin Scale   =       1.2000000000000000 [-]
	 SCS Same-Spin Energy      =      -0.1274280642305003 [Eh]
	 SCS Opposite-Spin Energy  =      -1.5039878480766029 [Eh]
	 SCS Correlation Energy    =      -1.6314159123071033 [Eh]
	 SCS Total Energy          =    -384.4983807157238402 [Eh]
	-----------------------------------------------------------

  Dipole Moment: [D]
     X:    -0.0068      Y:     1.4526      Z:     0.2431     Total:     1.4728

*** Psi4 exiting successfully. Buy a developer a beer!
