                               Psi4 1.4a3.dev225

  ==> Input File <==

--------------------------------------------------------------------------
#psi4
#
memory 32 gb

molecule  {
0 1
  O       -3.2271830    -0.3786580    -0.1569640
  O       -1.8275510     1.3993140    -0.2614160
  C        2.8225670    -0.4310850    -0.3953020
  C        1.4009980    -0.8942070    -0.2419560
  C       -0.9807690    -0.7586230     0.4926230
  C        0.4143070    -0.2269140     0.3719860
  C        3.1298050     0.9339520     0.2103920
  C       -2.0188859     0.1711320    -0.0092739
  H        3.4859920    -1.1868430     0.0468460
  H        3.0699840    -0.4203720    -1.4654230
  H        1.1737130    -1.8673930    -0.6818980
  H       -1.0998220    -1.7054460    -0.0447970
  H       -1.2414610    -0.9681590     1.5400430
  H        0.5929560     0.7502750     0.8121930
  H        4.1791340     1.1958370     0.0500290
  H        2.5131630     1.7137800    -0.2445400
  H        2.9424530     0.9385920     1.2876810
  H       -3.8316340     0.3284440    -0.4642740
units angstrom
no_reorient  #important for SAPT in psi4, default
symmetry c1  #important for SAPT in psi4, default
}

set PROPERTIES_ORIGIN ["COM"]
properties('MP2/aug-cc-pvtz', properties = ['dipole'])
--------------------------------------------------------------------------

    Molecular point group: c1
  Charge       = 0
  Multiplicity = 1
  Basis Set: AUG-CC-PVTZ
    Blend: AUG-CC-PVTZ
  Basis Set: (AUG-CC-PVTZ AUX)
    Blend: AUG-CC-PVTZ-JKFIT

    Orbital Energies [Eh]
    ---------------------

    Doubly Occupied:

       1A    -20.624567     2A    -20.542849     3A    -11.395242
       4A    -11.256518     5A    -11.236088     6A    -11.233306
       7A    -11.230193     8A    -11.214293     9A     -1.464891
      10A     -1.330676    11A     -1.105867    12A     -1.050121
      13A     -0.965669    14A     -0.874093    15A     -0.816978
      16A     -0.740770    17A     -0.701528    18A     -0.683236
      19A     -0.659154    20A     -0.626838    21A     -0.612779
      22A     -0.599058    23A     -0.573528    24A     -0.556663
      25A     -0.529327    26A     -0.498726    27A     -0.492614
      28A     -0.482263    29A     -0.464467    30A     -0.451098
      31A     -0.355919

  @DF-RHF Final Energy:  -382.89628812741557

   => Energetics <=

    Nuclear Repulsion Energy =            354.8355970653587406
    One-Electron Energy =               -1224.7251320984737504
    Two-Electron Energy =                 486.9932469056993796
    Total Energy =                       -382.8962881274155734
  Basis Set: (AUG-CC-PVTZ AUX)
    Blend: AUG-CC-PVTZ-RI
    Molecular point group: c1

    Geometry (in Angstrom), charge = 0, multiplicity = 1:

       Center              X                  Y                   Z               Mass
    ------------   -----------------  -----------------  -----------------  -----------------
         O           -3.124112257688    -0.384141777617    -0.150757859335    15.994914619570
         O           -1.724480257688     1.393830222383    -0.255209859335    15.994914619570
         C            2.925637742312    -0.436568777617    -0.389095859335    12.000000000000
         C            1.504068742312    -0.899690777617    -0.235749859335    12.000000000000
         C           -0.877698257688    -0.764106777617     0.498829140665    12.000000000000
         C            0.517377742312    -0.232397777617     0.378192140665    12.000000000000
         C            3.232875742312     0.928468222383     0.216598140665    12.000000000000
         C           -1.915815157688     0.165648222383    -0.003067759335    12.000000000000
         H            3.589062742312    -1.192326777617     0.053052140665     1.007825032230
         H            3.173054742312    -0.425855777617    -1.459216859335     1.007825032230
         H            1.276783742312    -1.872876777617    -0.675691859335     1.007825032230
         H           -0.996751257688    -1.710929777617    -0.038590859335     1.007825032230
         H           -1.138390257688    -0.973642777617     1.546249140665     1.007825032230
         H            0.696026742312     0.744791222383     0.818399140665     1.007825032230
         H            4.282204742312     1.190353222383     0.056235140665     1.007825032230
         H            2.616233742312     1.708296222383    -0.238333859335     1.007825032230
         H            3.045523742312     0.933108222383     1.293887140665     1.007825032230
         H           -3.728563257688     0.322960222383    -0.458067859335     1.007825032230

  Basis Set: AUG-CC-PVTZ
    Blend: AUG-CC-PVTZ
  Basis Set: (AUG-CC-PVTZ AUX)
    Blend: AUG-CC-PVTZ-JKFIT
	 Reference Energy          =    -382.8962881274155734 [Eh]
	 Singles Energy            =      -0.0000000000000000 [Eh]
	 Same-Spin Energy          =      -0.3839966210389654 [Eh]
	 Opposite-Spin Energy      =      -1.2559504496107521 [Eh]
	 Correlation Energy        =      -1.6399470706497175 [Eh]
	 Total Energy              =    -384.5362351980652988 [Eh]

	 ================> DF-SCS-MP2 Energies <==================
	-----------------------------------------------------------
	 SCS Same-Spin Scale       =       0.3333333333333333 [-]
	 SCS Opposite-Spin Scale   =       1.2000000000000000 [-]
	 SCS Same-Spin Energy      =      -0.1279988736796551 [Eh]
	 SCS Opposite-Spin Energy  =      -1.5071405395329025 [Eh]
	 SCS Correlation Energy    =      -1.6351394132125576 [Eh]
	 SCS Total Energy          =    -384.5314275406281581 [Eh]
	-----------------------------------------------------------

  Dipole Moment: [D]
     X:     0.0598      Y:    -1.7220      Z:     0.2835     Total:     1.7462

*** Psi4 exiting successfully. Buy a developer a beer!
