                               Psi4 1.4a3.dev225

  ==> Input File <==

--------------------------------------------------------------------------
#psi4
#
memory 32 gb

molecule  {
0 1
  O       -3.2271830    -0.3786580    -0.1569640
  O       -1.8275510     1.3993140    -0.2614160
  C        2.8225670    -0.4310850    -0.3953020
  C        1.4009980    -0.8942070    -0.2419560
  C       -0.9807690    -0.7586230     0.4926230
  C        0.3677372    -0.2446633     0.3760131
  C        3.1298050     0.9339520     0.2103920
  C       -2.0113430     0.2195500    -0.0192140
  H        3.4859920    -1.1868430     0.0468460
  H        3.0699840    -0.4203720    -1.4654230
  H        1.1737130    -1.8673930    -0.6818980
  H       -1.0998220    -1.7054460    -0.0447970
  H       -1.2414610    -0.9681590     1.5400430
  H        0.5929560     0.7502750     0.8121930
  H        4.1791340     1.1958370     0.0500290
  H        2.5131630     1.7137800    -0.2445400
  H        2.9424530     0.9385920     1.2876810
  H       -3.8316340     0.3284440    -0.4642740
units angstrom
no_reorient  #important for SAPT in psi4, default
symmetry c1  #important for SAPT in psi4, default
}

set PROPERTIES_ORIGIN ["COM"]
properties('MP2/aug-cc-pvtz', properties = ['dipole'])
--------------------------------------------------------------------------

    Molecular point group: c1
  Charge       = 0
  Multiplicity = 1
  Basis Set: AUG-CC-PVTZ
    Blend: AUG-CC-PVTZ
  Basis Set: (AUG-CC-PVTZ AUX)
    Blend: AUG-CC-PVTZ-JKFIT

    Orbital Energies [Eh]
    ---------------------

    Doubly Occupied:

       1A    -20.616859     2A    -20.552874     3A    -11.391769
       4A    -11.253283     5A    -11.238905     6A    -11.234560
       7A    -11.231320     8A    -11.214666     9A     -1.460557
      10A     -1.357902    11A     -1.105412    12A     -1.049875
      13A     -0.957154    14A     -0.871680    15A     -0.808839
      16A     -0.737890    17A     -0.703185    18A     -0.684876
      19A     -0.658459    20A     -0.625569    21A     -0.612955
      22A     -0.598251    23A     -0.582521    24A     -0.557286
      25A     -0.528524    26A     -0.498943    27A     -0.493654
      28A     -0.482904    29A     -0.480316    30A     -0.456899
      31A     -0.346896

  @DF-RHF Final Energy:  -382.89871284910225

   => Energetics <=

    Nuclear Repulsion Energy =            355.1378985265449728
    One-Electron Energy =               -1225.2836546322871527
    Two-Electron Energy =                 487.2470432566399268
    Total Energy =                       -382.8987128491022531
  Basis Set: (AUG-CC-PVTZ AUX)
    Blend: AUG-CC-PVTZ-RI
    Molecular point group: c1

    Geometry (in Angstrom), charge = 0, multiplicity = 1:

       Center              X                  Y                   Z               Mass
    ------------   -----------------  -----------------  -----------------  -----------------
         O           -3.120006614797    -0.387368135081    -0.150135809764    15.994914619570
         O           -1.720374614797     1.390603864919    -0.254587809764    15.994914619570
         C            2.929743385203    -0.439795135081    -0.388473809764    12.000000000000
         C            1.508174385203    -0.902917135081    -0.235127809764    12.000000000000
         C           -0.873592614797    -0.767333135081     0.499451190236    12.000000000000
         C            0.474913585203    -0.253373435081     0.382841290236    12.000000000000
         C            3.236981385203     0.925241864919     0.217220190236    12.000000000000
         C           -1.904166614797     0.210839864919    -0.012385809764    12.000000000000
         H            3.593168385203    -1.195553135081     0.053674190236     1.007825032230
         H            3.177160385203    -0.429082135081    -1.458594809764     1.007825032230
         H            1.280889385203    -1.876103135081    -0.675069809764     1.007825032230
         H           -0.992645614797    -1.714156135081    -0.037968809764     1.007825032230
         H           -1.134284614797    -0.976869135081     1.546871190236     1.007825032230
         H            0.700132385203     0.741564864919     0.819021190236     1.007825032230
         H            4.286310385203     1.187126864919     0.056857190236     1.007825032230
         H            2.620339385203     1.705069864919    -0.237711809764     1.007825032230
         H            3.049629385203     0.929881864919     1.294509190236     1.007825032230
         H           -3.724457614797     0.319733864919    -0.457445809764     1.007825032230

  Basis Set: AUG-CC-PVTZ
    Blend: AUG-CC-PVTZ
  Basis Set: (AUG-CC-PVTZ AUX)
    Blend: AUG-CC-PVTZ-JKFIT
	 Reference Energy          =    -382.8987128491022531 [Eh]
	 Singles Energy            =      -0.0000000000000000 [Eh]
	 Same-Spin Energy          =      -0.3838226220593886 [Eh]
	 Opposite-Spin Energy      =      -1.2555721702985827 [Eh]
	 Correlation Energy        =      -1.6393947923579713 [Eh]
	 Total Energy              =    -384.5381076414602148 [Eh]

	 ================> DF-SCS-MP2 Energies <==================
	-----------------------------------------------------------
	 SCS Same-Spin Scale       =       0.3333333333333333 [-]
	 SCS Opposite-Spin Scale   =       1.2000000000000000 [-]
	 SCS Same-Spin Energy      =      -0.1279408740197962 [Eh]
	 SCS Opposite-Spin Energy  =      -1.5066866043582992 [Eh]
	 SCS Correlation Energy    =      -1.6346274783780954 [Eh]
	 SCS Total Energy          =    -384.5333403274803459 [Eh]
	-----------------------------------------------------------

  Dipole Moment: [D]
     X:     0.1416      Y:    -1.4068      Z:     0.2412     Total:     1.4344

*** Psi4 exiting successfully. Buy a developer a beer!
