                               Psi4 1.3.2 release

  ==> Input File <==

--------------------------------------------------------------------------
#psi4
#
memory 32 gb

molecule  {
0 1
  O        3.1501630     0.3869830     0.0122970
  O        1.7226580    -1.3643080    -0.2059640
  C       -2.9163610     0.3476720    -0.5022120
  C       -1.4960630     0.8252950    -0.4074400
  C        0.8585340     0.8235180     0.4136200
  C       -0.5245990     0.2621860     0.3264500
  C       -3.2476580    -0.8824200     0.3361610
  C        1.8199603    -0.2276037     0.0282625
  H       -3.5825680     1.1749950    -0.2170990
  H       -3.1475630     0.1432210    -1.5599470
  H       -1.2553160     1.7190160    -0.9933200
  H        0.9787830     1.7133270    -0.2211670
  H        1.0972480     1.1531100     1.4329360
  H       -0.7130820    -0.6444280     0.9033180
  H       -4.2956480    -1.1625270     0.2123440
  H       -2.6314050    -1.7369230     0.0388270
  H       -3.0739380    -0.6897760     1.4001060
  H        3.7686820    -0.3352680    -0.2293440
units angstrom
no_reorient  #important for SAPT in psi4, default
symmetry c1  #important for SAPT in psi4, default
}

set PROPERTIES_ORIGIN ["COM"]
properties('MP2/aug-cc-pvtz', properties = ['dipole'])
--------------------------------------------------------------------------

    Molecular point group: c1
  Charge       = 0
  Multiplicity = 1
  Basis Set: AUG-CC-PVTZ
    Blend: AUG-CC-PVTZ
  Basis Set: (AUG-CC-PVTZ AUX)
    Blend: AUG-CC-PVTZ-JKFIT

    Orbital Energies [Eh]
    ---------------------

    Doubly Occupied:

       1A    -20.585528     2A    -20.568823     3A    -11.389315
       4A    -11.257226     5A    -11.239145     6A    -11.235548
       7A    -11.232743     8A    -11.217421     9A     -1.461552
      10A     -1.344794    11A     -1.110261    12A     -1.052574
      13A     -0.963539    14A     -0.869612    15A     -0.784847
      16A     -0.745681    17A     -0.699020    18A     -0.682454
      19A     -0.653925    20A     -0.624470    21A     -0.614669
      22A     -0.601974    23A     -0.587137    24A     -0.550376
      25A     -0.530411    26A     -0.500973    27A     -0.493918
      28A     -0.492184    29A     -0.485352    30A     -0.457525
      31A     -0.357898

  @DF-RHF Final Energy:  -382.89285254317502

   => Energetics <=

    Nuclear Repulsion Energy =            355.5390940623793767
    One-Electron Energy =               -1226.0820951564633106
    Two-Electron Energy =                 487.6501485509089093
    Total Energy =                       -382.8928525431750245
  Basis Set: (AUG-CC-PVTZ AUX)
    Blend: AUG-CC-PVTZ-RI
    Molecular point group: c1

    Geometry (in Angstrom), charge = 0, multiplicity = 1:

       Center              X                  Y                   Z               Mass
    ------------   -----------------  -----------------  -----------------  -----------------
         O            3.159712392186     0.391395022138     0.012182472231    15.994914619570
         O            1.732207392186    -1.359895977862    -0.206078527769    15.994914619570
         C           -2.906811607814     0.352084022138    -0.502326527769    12.000000000000
         C           -1.486513607814     0.829707022138    -0.407554527769    12.000000000000
         C            0.868083392186     0.827930022138     0.413505472231    12.000000000000
         C           -0.515049607814     0.266598022138     0.326335472231    12.000000000000
         C           -3.238108607814    -0.878007977862     0.336046472231    12.000000000000
         C            1.829509692186    -0.223191677862     0.028147972231    12.000000000000
         H           -3.573018607814     1.179407022138    -0.217213527769     1.007825032230
         H           -3.138013607814     0.147633022138    -1.560061527769     1.007825032230
         H           -1.245766607814     1.723428022138    -0.993434527769     1.007825032230
         H            0.988332392186     1.717739022138    -0.221281527769     1.007825032230
         H            1.106797392186     1.157522022138     1.432821472231     1.007825032230
         H           -0.703532607814    -0.640015977862     0.903203472231     1.007825032230
         H           -4.286098607814    -1.158114977862     0.212229472231     1.007825032230
         H           -2.621855607814    -1.732510977862     0.038712472231     1.007825032230
         H           -3.064388607814    -0.685363977862     1.399991472231     1.007825032230
         H            3.778231392186    -0.330855977862    -0.229458527769     1.007825032230

  Basis Set: AUG-CC-PVTZ
    Blend: AUG-CC-PVTZ
  Basis Set: (AUG-CC-PVTZ AUX)
    Blend: AUG-CC-PVTZ-JKFIT
	 Reference Energy          =    -382.8928525431750245 [Eh]
	 Singles Energy            =      -0.0000000000000000 [Eh]
	 Same-Spin Energy          =      -0.3831575123301397 [Eh]
	 Opposite-Spin Energy      =      -1.2550840202039857 [Eh]
	 Correlation Energy        =      -1.6382415325341255 [Eh]
	 Total Energy              =    -384.5310940757091771 [Eh]

	 ================> DF-SCS-MP2 Energies <==================
	-----------------------------------------------------------
	 SCS Same-Spin Scale       =       0.3333333333333333 [-]
	 SCS Opposite-Spin Scale   =       1.2000000000000000 [-]
	 SCS Same-Spin Energy      =      -0.1277191707767132 [Eh]
	 SCS Opposite-Spin Energy  =      -1.5061008242447829 [Eh]
	 SCS Correlation Energy    =      -1.6338199950214962 [Eh]
	 SCS Total Energy          =    -384.5266725381965216 [Eh]
	-----------------------------------------------------------

  Dipole Moment: [D]
     X:    -1.0267      Y:     1.0254      Z:     0.2146     Total:     1.4668

*** Psi4 exiting successfully. Buy a developer a beer!
