                               Psi4 1.3.2 release

  ==> Input File <==

--------------------------------------------------------------------------
#psi4
#
memory 32 gb

molecule  {
0 1
  O        3.1501630     0.3869830     0.0122970
  O        1.7226580    -1.3643080    -0.2059640
  C       -2.9163610     0.3476720    -0.5022120
  C       -1.4908580     0.8057841    -0.3907388
  C        0.8585340     0.8235180     0.4136200
  C       -0.5245990     0.2621860     0.3264500
  C       -3.2224923    -0.8830162     0.3448084
  C        1.9107340    -0.1856640     0.0271730
  H       -3.5825680     1.1749950    -0.2170990
  H       -3.1475630     0.1432210    -1.5599470
  H       -1.2553160     1.7190160    -0.9933200
  H        0.9787830     1.7133270    -0.2211670
  H        1.0972480     1.1531100     1.4329360
  H       -0.7130820    -0.6444280     0.9033180
  H       -4.2956480    -1.1625270     0.2123440
  H       -2.6314050    -1.7369230     0.0388270
  H       -3.0739380    -0.6897760     1.4001060
  H        3.7686820    -0.3352680    -0.2293440
units angstrom
no_reorient  #important for SAPT in psi4, default
symmetry c1  #important for SAPT in psi4, default
}

set PROPERTIES_ORIGIN ["COM"]
properties('MP2/aug-cc-pvtz', properties = ['dipole'])
--------------------------------------------------------------------------

    Molecular point group: c1
  Charge       = 0
  Multiplicity = 1
  Basis Set: AUG-CC-PVTZ
    Blend: AUG-CC-PVTZ
  Basis Set: (AUG-CC-PVTZ AUX)
    Blend: AUG-CC-PVTZ-JKFIT

    Orbital Energies [Eh]
    ---------------------

    Doubly Occupied:

       1A    -20.615869     2A    -20.552916     3A    -11.390697
       4A    -11.254502     5A    -11.233892     6A    -11.230439
       7A    -11.229256     8A    -11.214433     9A     -1.458762
      10A     -1.358270    11A     -1.105853    12A     -1.045779
      13A     -0.962043    14A     -0.870134    15A     -0.807271
      16A     -0.735703    17A     -0.702802    18A     -0.682340
      19A     -0.654561    20A     -0.624861    21A     -0.615200
      22A     -0.598936    23A     -0.582687    24A     -0.551677
      25A     -0.525707    26A     -0.503225    27A     -0.494214
      28A     -0.484037    29A     -0.472124    30A     -0.455524
      31A     -0.359230

  @DF-RHF Final Energy:  -382.90218449361521

   => Energetics <=

    Nuclear Repulsion Energy =            355.5798373149943927
    One-Electron Energy =               -1226.2181567830905351
    Two-Electron Energy =                 487.7361349744809331
    Total Energy =                       -382.9021844936152092
  Basis Set: (AUG-CC-PVTZ AUX)
    Blend: AUG-CC-PVTZ-RI
    Molecular point group: c1

    Geometry (in Angstrom), charge = 0, multiplicity = 1:

       Center              X                  Y                   Z               Mass
    ------------   -----------------  -----------------  -----------------  -----------------
         O            3.146967960917     0.389098225339     0.009630406823    15.994914619570
         O            1.719462960917    -1.362192774661    -0.208630593177    15.994914619570
         C           -2.919556039083     0.349787225339    -0.504878593177    12.000000000000
         C           -1.494053039083     0.807899325339    -0.393405393177    12.000000000000
         C            0.855338960917     0.825633225339     0.410953406823    12.000000000000
         C           -0.527794039083     0.264301225339     0.323783406823    12.000000000000
         C           -3.225687339083    -0.880900974661     0.342141806823    12.000000000000
         C            1.907538960917    -0.183548774661     0.024506406823    12.000000000000
         H           -3.585763039083     1.177110225339    -0.219765593177     1.007825032230
         H           -3.150758039083     0.145336225339    -1.562613593177     1.007825032230
         H           -1.258511039083     1.721131225339    -0.995986593177     1.007825032230
         H            0.975587960917     1.715442225339    -0.223833593177     1.007825032230
         H            1.094052960917     1.155225225339     1.430269406823     1.007825032230
         H           -0.716277039083    -0.642312774661     0.900651406823     1.007825032230
         H           -4.298843039083    -1.160411774661     0.209677406823     1.007825032230
         H           -2.634600039083    -1.734807774661     0.036160406823     1.007825032230
         H           -3.077133039083    -0.687660774661     1.397439406823     1.007825032230
         H            3.765486960917    -0.333152774661    -0.232010593177     1.007825032230

  Basis Set: AUG-CC-PVTZ
    Blend: AUG-CC-PVTZ
  Basis Set: (AUG-CC-PVTZ AUX)
    Blend: AUG-CC-PVTZ-JKFIT
	 Reference Energy          =    -382.9021844936152092 [Eh]
	 Singles Energy            =      -0.0000000000000000 [Eh]
	 Same-Spin Energy          =      -0.3830282629320616 [Eh]
	 Opposite-Spin Energy      =      -1.2541992896534548 [Eh]
	 Correlation Energy        =      -1.6372275525855164 [Eh]
	 Total Energy              =    -384.5394120462007095 [Eh]

	 ================> DF-SCS-MP2 Energies <==================
	-----------------------------------------------------------
	 SCS Same-Spin Scale       =       0.3333333333333333 [-]
	 SCS Opposite-Spin Scale   =       1.2000000000000000 [-]
	 SCS Same-Spin Energy      =      -0.1276760876440205 [Eh]
	 SCS Opposite-Spin Energy  =      -1.5050391475841458 [Eh]
	 SCS Correlation Energy    =      -1.6327152352281664 [Eh]
	 SCS Total Energy          =    -384.5348997288433566 [Eh]
	-----------------------------------------------------------

  Dipole Moment: [D]
     X:    -0.1724      Y:     1.3811      Z:     0.2165     Total:     1.4086

*** Psi4 exiting successfully. Buy a developer a beer!
