                               Psi4 1.3.2 release

  ==> Input File <==

--------------------------------------------------------------------------
#psi4
#
memory 32 gb

molecule  {
0 1
  O        3.1501630     0.3869830     0.0122970
  O        1.7122998    -1.3629812    -0.2040739
  C       -2.9163610     0.3476720    -0.5022120
  C       -1.4960630     0.8252950    -0.4074400
  C        0.8493490     0.8141147     0.4129434
  C       -0.5245990     0.2621860     0.3264500
  C       -3.2476580    -0.8824200     0.3361610
  C        1.9107340    -0.1856640     0.0271730
  H       -3.5825680     1.1749950    -0.2170990
  H       -3.1475630     0.1432210    -1.5599470
  H       -1.2553160     1.7190160    -0.9933200
  H        0.9787830     1.7133270    -0.2211670
  H        1.0972480     1.1531100     1.4329360
  H       -0.7130820    -0.6444280     0.9033180
  H       -4.2956480    -1.1625270     0.2123440
  H       -2.6314050    -1.7369230     0.0388270
  H       -3.0739380    -0.6897760     1.4001060
  H        3.7686820    -0.3352680    -0.2293440
units angstrom
no_reorient  #important for SAPT in psi4, default
symmetry c1  #important for SAPT in psi4, default
}

set PROPERTIES_ORIGIN ["COM"]
properties('MP2/aug-cc-pvtz', properties = ['dipole'])
--------------------------------------------------------------------------

    Molecular point group: c1
  Charge       = 0
  Multiplicity = 1
  Basis Set: AUG-CC-PVTZ
    Blend: AUG-CC-PVTZ
  Basis Set: (AUG-CC-PVTZ AUX)
    Blend: AUG-CC-PVTZ-JKFIT

    Orbital Energies [Eh]
    ---------------------

    Doubly Occupied:

       1A    -20.616908     2A    -20.552514     3A    -11.390474
       4A    -11.254244     5A    -11.235500     6A    -11.231491
       7A    -11.230034     8A    -11.214687     9A     -1.458655
      10A     -1.358893    11A     -1.103946    12A     -1.045546
      13A     -0.959788    14A     -0.870649    15A     -0.806106
      16A     -0.738906    17A     -0.703310    18A     -0.682800
      19A     -0.653805    20A     -0.626745    21A     -0.612087
      22A     -0.599283    23A     -0.582091    24A     -0.552311
      25A     -0.527056    26A     -0.498133    27A     -0.491422
      28A     -0.484785    29A     -0.480664    30A     -0.455334
      31A     -0.353682

  @DF-RHF Final Energy:  -382.90260841712740

   => Energetics <=

    Nuclear Repulsion Energy =            355.2667353408442636
    One-Electron Energy =               -1225.5949889814899052
    Two-Electron Energy =                 487.4256452235183019
    Total Energy =                       -382.9026084171273965
  Basis Set: (AUG-CC-PVTZ AUX)
    Blend: AUG-CC-PVTZ-RI
    Molecular point group: c1

    Geometry (in Angstrom), charge = 0, multiplicity = 1:

       Center              X                  Y                   Z               Mass
    ------------   -----------------  -----------------  -----------------  -----------------
         O            3.152581686747     0.387786134759     0.012103231938    15.994914619570
         O            1.714718486747    -1.362178065241    -0.204267668062    15.994914619570
         C           -2.913942313253     0.348475134759    -0.502405768062    12.000000000000
         C           -1.493644313253     0.826098134759    -0.407633768062    12.000000000000
         C            0.851767686747     0.814917834759     0.412749631938    12.000000000000
         C           -0.522180313253     0.262989134759     0.326256231938    12.000000000000
         C           -3.245239313253    -0.881616865241     0.335967231938    12.000000000000
         C            1.913152686747    -0.184860865241     0.026979231938    12.000000000000
         H           -3.580149313253     1.175798134759    -0.217292768062     1.007825032230
         H           -3.145144313253     0.144024134759    -1.560140768062     1.007825032230
         H           -1.252897313253     1.719819134759    -0.993513768062     1.007825032230
         H            0.981201686747     1.714130134759    -0.221360768062     1.007825032230
         H            1.099666686747     1.153913134759     1.432742231938     1.007825032230
         H           -0.710663313253    -0.643624865241     0.903124231938     1.007825032230
         H           -4.293229313253    -1.161723865241     0.212150231938     1.007825032230
         H           -2.628986313253    -1.736119865241     0.038633231938     1.007825032230
         H           -3.071519313253    -0.688972865241     1.399912231938     1.007825032230
         H            3.771100686747    -0.334464865241    -0.229537768062     1.007825032230

  Basis Set: AUG-CC-PVTZ
    Blend: AUG-CC-PVTZ
  Basis Set: (AUG-CC-PVTZ AUX)
    Blend: AUG-CC-PVTZ-JKFIT
	 Reference Energy          =    -382.9026084171273965 [Eh]
	 Singles Energy            =      -0.0000000000000000 [Eh]
	 Same-Spin Energy          =      -0.3832616191104803 [Eh]
	 Opposite-Spin Energy      =      -1.2546535668457659 [Eh]
	 Correlation Energy        =      -1.6379151859562462 [Eh]
	 Total Energy              =    -384.5405236030836704 [Eh]

	 ================> DF-SCS-MP2 Energies <==================
	-----------------------------------------------------------
	 SCS Same-Spin Scale       =       0.3333333333333333 [-]
	 SCS Opposite-Spin Scale   =       1.2000000000000000 [-]
	 SCS Same-Spin Energy      =      -0.1277538730368268 [Eh]
	 SCS Opposite-Spin Energy  =      -1.5055842802149191 [Eh]
	 SCS Correlation Energy    =      -1.6333381532517459 [Eh]
	 SCS Total Energy          =    -384.5359465703791670 [Eh]
	-----------------------------------------------------------

  Dipole Moment: [D]
     X:    -0.1513      Y:     1.3839      Z:     0.2005     Total:     1.4065

*** Psi4 exiting successfully. Buy a developer a beer!
