                               Psi4 1.3.2 release

  ==> Input File <==

--------------------------------------------------------------------------
#psi4
#
memory 32 gb

molecule  {
0 1
  O        3.1501630     0.3869830     0.0122970
  O        1.7226580    -1.3643080    -0.2059640
  C       -2.9163610     0.3476720    -0.5022120
  C       -1.4960630     0.8252950    -0.4074400
  C        0.8585340     0.8235180     0.4136200
  C       -0.5321489     0.2540073     0.3300752
  C       -3.2476580    -0.8824200     0.3361610
  C        1.9107340    -0.1856640     0.0271730
  H       -3.5825680     1.1749950    -0.2170990
  H       -3.1475630     0.1432210    -1.5599470
  H       -1.2643336     1.7193241    -0.9964774
  H        0.9787830     1.7133270    -0.2211670
  H        1.0972480     1.1531100     1.4329360
  H       -0.7130820    -0.6444280     0.9033180
  H       -4.2956480    -1.1625270     0.2123440
  H       -2.6314050    -1.7369230     0.0388270
  H       -3.0739380    -0.6897760     1.4001060
  H        3.7686820    -0.3352680    -0.2293440
units angstrom
no_reorient  #important for SAPT in psi4, default
symmetry c1  #important for SAPT in psi4, default
}

set PROPERTIES_ORIGIN ["COM"]
properties('MP2/aug-cc-pvtz', properties = ['dipole'])
--------------------------------------------------------------------------

    Molecular point group: c1
  Charge       = 0
  Multiplicity = 1
  Basis Set: AUG-CC-PVTZ
    Blend: AUG-CC-PVTZ
  Basis Set: (AUG-CC-PVTZ AUX)
    Blend: AUG-CC-PVTZ-JKFIT

    Orbital Energies [Eh]
    ---------------------

    Doubly Occupied:

       1A    -20.615591     2A    -20.552641     3A    -11.390297
       4A    -11.254476     5A    -11.235675     6A    -11.232315
       7A    -11.229613     8A    -11.214642     9A     -1.458481
      10A     -1.358000    11A     -1.102369    12A     -1.044622
      13A     -0.960072    14A     -0.870368    15A     -0.805302
      16A     -0.740512    17A     -0.702959    18A     -0.681869
      19A     -0.653707    20A     -0.625762    21A     -0.612014
      22A     -0.599995    23A     -0.582141    24A     -0.551600
      25A     -0.528820    26A     -0.498094    27A     -0.491082
      28A     -0.485092    29A     -0.479954    30A     -0.455506
      31A     -0.354315

  @DF-RHF Final Energy:  -382.90312292510004

   => Energetics <=

    Nuclear Repulsion Energy =            355.0012657043684499
    One-Electron Energy =               -1225.0730068868174385
    Two-Electron Energy =                 487.1686182573488963
    Total Energy =                       -382.9031229251000354
  Basis Set: (AUG-CC-PVTZ AUX)
    Blend: AUG-CC-PVTZ-RI
    Molecular point group: c1

    Geometry (in Angstrom), charge = 0, multiplicity = 1:

       Center              X                  Y                   Z               Mass
    ------------   -----------------  -----------------  -----------------  -----------------
         O            3.151036893828     0.387840631528     0.011943612304    15.994914619570
         O            1.723531893828    -1.363450368472    -0.206317387696    15.994914619570
         C           -2.915487106172     0.348529631528    -0.502565387696    12.000000000000
         C           -1.495189106172     0.826152631528    -0.407793387696    12.000000000000
         C            0.859407893828     0.824375631528     0.413266612304    12.000000000000
         C           -0.531275006172     0.254864931528     0.329721812304    12.000000000000
         C           -3.246784106172    -0.881562368472     0.335807612304    12.000000000000
         C            1.911607893828    -0.184806368472     0.026819612304    12.000000000000
         H           -3.581694106172     1.175852631528    -0.217452387696     1.007825032230
         H           -3.146689106172     0.144078631528    -1.560300387696     1.007825032230
         H           -1.263459706172     1.720181731528    -0.996830787696     1.007825032230
         H            0.979656893828     1.714184631528    -0.221520387696     1.007825032230
         H            1.098121893828     1.153967631528     1.432582612304     1.007825032230
         H           -0.712208106172    -0.643570368472     0.902964612304     1.007825032230
         H           -4.294774106172    -1.161669368472     0.211990612304     1.007825032230
         H           -2.630531106172    -1.736065368472     0.038473612304     1.007825032230
         H           -3.073064106172    -0.688918368472     1.399752612304     1.007825032230
         H            3.769555893828    -0.334410368472    -0.229697387696     1.007825032230

  Basis Set: AUG-CC-PVTZ
    Blend: AUG-CC-PVTZ
  Basis Set: (AUG-CC-PVTZ AUX)
    Blend: AUG-CC-PVTZ-JKFIT
	 Reference Energy          =    -382.9031229251000354 [Eh]
	 Singles Energy            =      -0.0000000000000000 [Eh]
	 Same-Spin Energy          =      -0.3830400136098799 [Eh]
	 Opposite-Spin Energy      =      -1.2544343165128653 [Eh]
	 Correlation Energy        =      -1.6374743301227452 [Eh]
	 Total Energy              =    -384.5405972552227922 [Eh]

	 ================> DF-SCS-MP2 Energies <==================
	-----------------------------------------------------------
	 SCS Same-Spin Scale       =       0.3333333333333333 [-]
	 SCS Opposite-Spin Scale   =       1.2000000000000000 [-]
	 SCS Same-Spin Energy      =      -0.1276800045366266 [Eh]
	 SCS Opposite-Spin Energy  =      -1.5053211798154382 [Eh]
	 SCS Correlation Energy    =      -1.6330011843520649 [Eh]
	 SCS Total Energy          =    -384.5361241094520892 [Eh]
	-----------------------------------------------------------

  Dipole Moment: [D]
     X:    -0.1831      Y:     1.3948      Z:     0.2042     Total:     1.4215

*** Psi4 exiting successfully. Buy a developer a beer!
