                               Psi4 1.3.2 release

  ==> Input File <==

--------------------------------------------------------------------------
#psi4
#
memory 32 gb

molecule  {
0 1
  O        3.1501630     0.3869830     0.0122970
  O        1.7226580    -1.3643080    -0.2059640
  C       -2.9163610     0.3476720    -0.5022120
  C       -1.4960630     0.8252950    -0.4074400
  C        0.8585340     0.8235180     0.4136200
  C       -0.5146064     0.2393874     0.3186141
  C       -3.2476580    -0.8824200     0.3361610
  C        1.8917842    -0.2034074     0.0228096
  H       -3.5825680     1.1749950    -0.2170990
  H       -3.1475630     0.1432210    -1.5599470
  H       -1.2553160     1.7190160    -0.9933200
  H        0.9787830     1.7133270    -0.2211670
  H        1.0972480     1.1531100     1.4329360
  H       -0.7130820    -0.6444280     0.9033180
  H       -4.2956480    -1.1625270     0.2123440
  H       -2.6314050    -1.7369230     0.0388270
  H       -3.0739380    -0.6897760     1.4001060
  H        3.7686820    -0.3352680    -0.2293440
units angstrom
no_reorient  #important for SAPT in psi4, default
symmetry c1  #important for SAPT in psi4, default
}

set PROPERTIES_ORIGIN ["COM"]
properties('MP2/aug-cc-pvtz', properties = ['dipole'])
--------------------------------------------------------------------------

    Molecular point group: c1
  Charge       = 0
  Multiplicity = 1
  Basis Set: AUG-CC-PVTZ
    Blend: AUG-CC-PVTZ
  Basis Set: (AUG-CC-PVTZ AUX)
    Blend: AUG-CC-PVTZ-JKFIT

    Orbital Energies [Eh]
    ---------------------

    Doubly Occupied:

       1A    -20.607988     2A    -20.557555     3A    -11.388600
       4A    -11.254346     5A    -11.237769     6A    -11.233330
       7A    -11.230428     8A    -11.215336     9A     -1.456441
      10A     -1.362573    11A     -1.102549    12A     -1.045959
      13A     -0.957870    14A     -0.869463    15A     -0.798348
      16A     -0.742268    17A     -0.702686    18A     -0.681725
      19A     -0.653046    20A     -0.625128    21A     -0.612505
      22A     -0.599990    23A     -0.584146    24A     -0.550476
      25A     -0.530413    26A     -0.498632    27A     -0.491559
      28A     -0.489745    29A     -0.483661    30A     -0.457003
      31A     -0.351558

  @DF-RHF Final Energy:  -382.90174525975920

   => Energetics <=

    Nuclear Repulsion Energy =            355.1909627788008379
    One-Electron Energy =               -1225.4392184827588608
    Two-Electron Energy =                 487.3465104441987705
    Total Energy =                       -382.9017452597591955
  Basis Set: (AUG-CC-PVTZ AUX)
    Blend: AUG-CC-PVTZ-RI
    Molecular point group: c1

    Geometry (in Angstrom), charge = 0, multiplicity = 1:

       Center              X                  Y                   Z               Mass
    ------------   -----------------  -----------------  -----------------  -----------------
         O            3.151105269109     0.391247983632     0.013580458422    15.994914619570
         O            1.723600269109    -1.360043016368    -0.204680541578    15.994914619570
         C           -2.915418730891     0.351936983632    -0.500928541578    12.000000000000
         C           -1.495120730891     0.829559983632    -0.406156541578    12.000000000000
         C            0.859476269109     0.827782983632     0.414903458422    12.000000000000
         C           -0.513664130891     0.243652383632     0.319897558422    12.000000000000
         C           -3.246715730891    -0.878155016368     0.337444458422    12.000000000000
         C            1.892726469109    -0.199142416368     0.024093058422    12.000000000000
         H           -3.581625730891     1.179259983632    -0.215815541578     1.007825032230
         H           -3.146620730891     0.147485983632    -1.558663541578     1.007825032230
         H           -1.254373730891     1.723280983632    -0.992036541578     1.007825032230
         H            0.979725269109     1.717591983632    -0.219883541578     1.007825032230
         H            1.098190269109     1.157374983632     1.434219458422     1.007825032230
         H           -0.712139730891    -0.640163016368     0.904601458422     1.007825032230
         H           -4.294705730891    -1.158262016368     0.213627458422     1.007825032230
         H           -2.630462730891    -1.732658016368     0.040110458422     1.007825032230
         H           -3.072995730891    -0.685511016368     1.401389458422     1.007825032230
         H            3.769624269109    -0.331003016368    -0.228060541578     1.007825032230

  Basis Set: AUG-CC-PVTZ
    Blend: AUG-CC-PVTZ
  Basis Set: (AUG-CC-PVTZ AUX)
    Blend: AUG-CC-PVTZ-JKFIT
	 Reference Energy          =    -382.9017452597591955 [Eh]
	 Singles Energy            =      -0.0000000000000000 [Eh]
	 Same-Spin Energy          =      -0.3830505792124509 [Eh]
	 Opposite-Spin Energy      =      -1.2545971219652772 [Eh]
	 Correlation Energy        =      -1.6376477011777282 [Eh]
	 Total Energy              =    -384.5393929609369366 [Eh]

	 ================> DF-SCS-MP2 Energies <==================
	-----------------------------------------------------------
	 SCS Same-Spin Scale       =       0.3333333333333333 [-]
	 SCS Opposite-Spin Scale   =       1.2000000000000000 [-]
	 SCS Same-Spin Energy      =      -0.1276835264041503 [Eh]
	 SCS Opposite-Spin Energy  =      -1.5055165463583327 [Eh]
	 SCS Correlation Energy    =      -1.6332000727624829 [Eh]
	 SCS Total Energy          =    -384.5349453325216587 [Eh]
	-----------------------------------------------------------

  Dipole Moment: [D]
     X:    -0.3688      Y:     1.2664      Z:     0.2113     Total:     1.3358

*** Psi4 exiting successfully. Buy a developer a beer!
