                               Psi4 1.3.2 release

  ==> Input File <==

--------------------------------------------------------------------------
#psi4
#
memory 32 gb

molecule  {
0 1
  O        3.1501630     0.3869830     0.0122970
  O        1.7226580    -1.3643080    -0.2059640
  C       -2.9163610     0.3476720    -0.5022120
  C       -1.4503044     0.8750554    -0.4264705
  C        0.8360430     0.8809615     0.3654284
  C       -0.5245990     0.2621860     0.3264500
  C       -3.2476580    -0.8824200     0.3361610
  C        1.9107340    -0.1856640     0.0271730
  H       -3.5825680     1.1749950    -0.2170990
  H       -3.1475630     0.1432210    -1.5599470
  H       -1.2553160     1.7190160    -0.9933200
  H        0.9787830     1.7133270    -0.2211670
  H        1.0972480     1.1531100     1.4329360
  H       -0.7130820    -0.6444280     0.9033180
  H       -4.2956480    -1.1625270     0.2123440
  H       -2.6314050    -1.7369230     0.0388270
  H       -3.0739380    -0.6897760     1.4001060
  H        3.7686820    -0.3352680    -0.2293440
units angstrom
no_reorient  #important for SAPT in psi4, default
symmetry c1  #important for SAPT in psi4, default
}

set PROPERTIES_ORIGIN ["COM"]
properties('MP2/aug-cc-pvtz', properties = ['dipole'])
--------------------------------------------------------------------------

    Molecular point group: c1
  Charge       = 0
  Multiplicity = 1
  Basis Set: AUG-CC-PVTZ
    Blend: AUG-CC-PVTZ
  Basis Set: (AUG-CC-PVTZ AUX)
    Blend: AUG-CC-PVTZ-JKFIT

    Orbital Energies [Eh]
    ---------------------

    Doubly Occupied:

       1A    -20.614988     2A    -20.553362     3A    -11.390930
       4A    -11.253047     5A    -11.234322     6A    -11.231427
       7A    -11.230460     8A    -11.214942     9A     -1.457359
      10A     -1.357542    11A     -1.101362    12A     -1.037486
      13A     -0.958081    14A     -0.863720    15A     -0.804445
      16A     -0.754661    17A     -0.702871    18A     -0.678841
      19A     -0.650544    20A     -0.625970    21A     -0.608221
      22A     -0.605735    23A     -0.575147    24A     -0.552788
      25A     -0.539340    26A     -0.497054    27A     -0.495271
      28A     -0.484601    29A     -0.470742    30A     -0.451523
      31A     -0.353454

  @DF-RHF Final Energy:  -382.89174746074684

   => Energetics <=

    Nuclear Repulsion Energy =            354.2720851364761643
    One-Electron Energy =               -1223.6271894006522416
    Two-Electron Energy =                 486.4633568034292921
    Total Energy =                       -382.8917474607468421
  Basis Set: (AUG-CC-PVTZ AUX)
    Blend: AUG-CC-PVTZ-RI
    Molecular point group: c1

    Geometry (in Angstrom), charge = 0, multiplicity = 1:

       Center              X                  Y                   Z               Mass
    ------------   -----------------  -----------------  -----------------  -----------------
         O            3.147715209405     0.375705065694     0.019368875326    15.994914619570
         O            1.720210209405    -1.375585934306    -0.198892124674    15.994914619570
         C           -2.918808790595     0.336394065694    -0.495140124674    12.000000000000
         C           -1.452752190595     0.863777465694    -0.419398624674    12.000000000000
         C            0.833595209405     0.869683565694     0.372500275326    12.000000000000
         C           -0.527046790595     0.250908065694     0.333521875326    12.000000000000
         C           -3.250105790595    -0.893697934306     0.343232875326    12.000000000000
         C            1.908286209405    -0.196941934306     0.034244875326    12.000000000000
         H           -3.585015790595     1.163717065694    -0.210027124674     1.007825032230
         H           -3.150010790595     0.131943065694    -1.552875124674     1.007825032230
         H           -1.257763790595     1.707738065694    -0.986248124674     1.007825032230
         H            0.976335209405     1.702049065694    -0.214095124674     1.007825032230
         H            1.094800209405     1.141832065694     1.440007875326     1.007825032230
         H           -0.715529790595    -0.655705934306     0.910389875326     1.007825032230
         H           -4.298095790595    -1.173804934306     0.219415875326     1.007825032230
         H           -2.633852790595    -1.748200934306     0.045898875326     1.007825032230
         H           -3.076385790595    -0.701053934306     1.407177875326     1.007825032230
         H            3.766234209405    -0.346545934306    -0.222272124674     1.007825032230

  Basis Set: AUG-CC-PVTZ
    Blend: AUG-CC-PVTZ
  Basis Set: (AUG-CC-PVTZ AUX)
    Blend: AUG-CC-PVTZ-JKFIT
	 Reference Energy          =    -382.8917474607468421 [Eh]
	 Singles Energy            =      -0.0000000000000000 [Eh]
	 Same-Spin Energy          =      -0.3827493642056110 [Eh]
	 Opposite-Spin Energy      =      -1.2544353043335521 [Eh]
	 Correlation Energy        =      -1.6371846685391631 [Eh]
	 Total Energy              =    -384.5289321292859768 [Eh]

	 ================> DF-SCS-MP2 Energies <==================
	-----------------------------------------------------------
	 SCS Same-Spin Scale       =       0.3333333333333333 [-]
	 SCS Opposite-Spin Scale   =       1.2000000000000000 [-]
	 SCS Same-Spin Energy      =      -0.1275831214018703 [Eh]
	 SCS Opposite-Spin Energy  =      -1.5053223652002625 [Eh]
	 SCS Correlation Energy    =      -1.6329054866021329 [Eh]
	 SCS Total Energy          =    -384.5246529473489545 [Eh]
	-----------------------------------------------------------

  Dipole Moment: [D]
     X:    -0.1041      Y:     1.3913      Z:     0.1749     Total:     1.4061

*** Psi4 exiting successfully. Buy a developer a beer!
