                               Psi4 1.3.2 release

  ==> Input File <==

--------------------------------------------------------------------------
#psi4
#
memory 32 gb

molecule  {
0 1
  O        3.1501630     0.3869830     0.0122970
  O        1.7226580    -1.3643080    -0.2059640
  C       -2.9163610     0.3476720    -0.5022120
  C       -1.4934063     0.8155574    -0.3990855
  C        0.8585340     0.8235180     0.4136200
  C       -0.5245990     0.2621860     0.3264500
  C       -3.2350873    -0.8827650     0.3405168
  C        1.9107340    -0.1856640     0.0271730
  H       -3.5825680     1.1749950    -0.2170990
  H       -3.1475630     0.1432210    -1.5599470
  H       -1.2553160     1.7190160    -0.9933200
  H        0.9787830     1.7133270    -0.2211670
  H        1.0972480     1.1531100     1.4329360
  H       -0.7130820    -0.6444280     0.9033180
  H       -4.2956480    -1.1625270     0.2123440
  H       -2.6314050    -1.7369230     0.0388270
  H       -3.0739380    -0.6897760     1.4001060
  H        3.7686820    -0.3352680    -0.2293440
units angstrom
no_reorient  #important for SAPT in psi4, default
symmetry c1  #important for SAPT in psi4, default
}

set PROPERTIES_ORIGIN ["COM"]
properties('MP2/aug-cc-pvtz', properties = ['dipole'])
--------------------------------------------------------------------------

    Molecular point group: c1
  Charge       = 0
  Multiplicity = 1
  Basis Set: AUG-CC-PVTZ
    Blend: AUG-CC-PVTZ
  Basis Set: (AUG-CC-PVTZ AUX)
    Blend: AUG-CC-PVTZ-JKFIT

    Orbital Energies [Eh]
    ---------------------

    Doubly Occupied:

       1A    -20.615803     2A    -20.552855     3A    -11.390599
       4A    -11.254376     5A    -11.234682     6A    -11.230793
       7A    -11.230220     8A    -11.214556     9A     -1.458696
      10A     -1.358205    11A     -1.104459    12A     -1.045622
      13A     -0.961091    14A     -0.870171    15A     -0.806600
      16A     -0.737361    17A     -0.702878    18A     -0.682352
      19A     -0.654402    20A     -0.625482    21A     -0.613626
      22A     -0.599003    23A     -0.582476    24A     -0.552092
      25A     -0.526762    26A     -0.500739    27A     -0.492921
      28A     -0.484197    29A     -0.476508    30A     -0.455716
      31A     -0.356624

  @DF-RHF Final Energy:  -382.90311175440166

   => Energetics <=

    Nuclear Repulsion Energy =            355.3254543490380115
    One-Electron Energy =               -1225.7133976696400168
    Two-Electron Energy =                 487.4848315662003984
    Total Energy =                       -382.9031117544016638
  Basis Set: (AUG-CC-PVTZ AUX)
    Blend: AUG-CC-PVTZ-RI
    Molecular point group: c1

    Geometry (in Angstrom), charge = 0, multiplicity = 1:

       Center              X                  Y                   Z               Mass
    ------------   -----------------  -----------------  -----------------  -----------------
         O            3.148561041125     0.388043644597     0.010959960197    15.994914619570
         O            1.721056041125    -1.363247355403    -0.207301039803    15.994914619570
         C           -2.917962958875     0.348732644597    -0.503549039803    12.000000000000
         C           -1.495008258875     0.816618044597    -0.400422539803    12.000000000000
         C            0.856932041125     0.824578644597     0.412282960197    12.000000000000
         C           -0.526200958875     0.263246644597     0.325112960197    12.000000000000
         C           -3.236689258875    -0.881704355403     0.339179760197    12.000000000000
         C            1.909132041125    -0.184603355403     0.025835960197    12.000000000000
         H           -3.584169958875     1.176055644597    -0.218436039803     1.007825032230
         H           -3.149164958875     0.144281644597    -1.561284039803     1.007825032230
         H           -1.256917958875     1.720076644597    -0.994657039803     1.007825032230
         H            0.977181041125     1.714387644597    -0.222504039803     1.007825032230
         H            1.095646041125     1.154170644597     1.431598960197     1.007825032230
         H           -0.714683958875    -0.643367355403     0.901980960197     1.007825032230
         H           -4.297249958875    -1.161466355403     0.211006960197     1.007825032230
         H           -2.633006958875    -1.735862355403     0.037489960197     1.007825032230
         H           -3.075539958875    -0.688715355403     1.398768960197     1.007825032230
         H            3.767080041125    -0.334207355403    -0.230681039803     1.007825032230

  Basis Set: AUG-CC-PVTZ
    Blend: AUG-CC-PVTZ
  Basis Set: (AUG-CC-PVTZ AUX)
    Blend: AUG-CC-PVTZ-JKFIT
	 Reference Energy          =    -382.9031117544016638 [Eh]
	 Singles Energy            =      -0.0000000000000000 [Eh]
	 Same-Spin Energy          =      -0.3830708382084254 [Eh]
	 Opposite-Spin Energy      =      -1.2543365026154543 [Eh]
	 Correlation Energy        =      -1.6374073408238796 [Eh]
	 Total Energy              =    -384.5405190952255339 [Eh]

	 ================> DF-SCS-MP2 Energies <==================
	-----------------------------------------------------------
	 SCS Same-Spin Scale       =       0.3333333333333333 [-]
	 SCS Opposite-Spin Scale   =       1.2000000000000000 [-]
	 SCS Same-Spin Energy      =      -0.1276902794028085 [Eh]
	 SCS Opposite-Spin Energy  =      -1.5052038031385451 [Eh]
	 SCS Correlation Energy    =      -1.6328940825413536 [Eh]
	 SCS Total Energy          =    -384.5360058369429908 [Eh]
	-----------------------------------------------------------

  Dipole Moment: [D]
     X:    -0.1752      Y:     1.3863      Z:     0.2114     Total:     1.4132

*** Psi4 exiting successfully. Buy a developer a beer!
