                               Psi4 1.3.2 release

  ==> Input File <==

--------------------------------------------------------------------------
#psi4
#
memory 32 gb

molecule  {
0 1
  O        3.1501630     0.3869830     0.0122970
  O        1.7226580    -1.3643080    -0.2059640
  C       -2.9163610     0.3476720    -0.5022120
  C       -1.4960630     0.8252950    -0.4074400
  C        0.8585340     0.8235180     0.4136200
  C       -0.5309673     0.2810961     0.3096309
  C       -3.2476580    -0.8824200     0.3361610
  C        1.9107340    -0.1856640     0.0271730
  H       -3.5825680     1.1749950    -0.2170990
  H       -3.1475630     0.1432210    -1.5599470
  H       -1.2553160     1.7190160    -0.9933200
  H        0.9604850     1.7116419    -0.2267052
  H        1.0972480     1.1531100     1.4329360
  H       -0.7130820    -0.6444280     0.9033180
  H       -4.2956480    -1.1625270     0.2123440
  H       -2.6314050    -1.7369230     0.0388270
  H       -3.0739380    -0.6897760     1.4001060
  H        3.7686820    -0.3352680    -0.2293440
units angstrom
no_reorient  #important for SAPT in psi4, default
symmetry c1  #important for SAPT in psi4, default
}

set PROPERTIES_ORIGIN ["COM"]
properties('MP2/aug-cc-pvtz', properties = ['dipole'])
--------------------------------------------------------------------------

    Molecular point group: c1
  Charge       = 0
  Multiplicity = 1
  Basis Set: AUG-CC-PVTZ
    Blend: AUG-CC-PVTZ
  Basis Set: (AUG-CC-PVTZ AUX)
    Blend: AUG-CC-PVTZ-JKFIT

    Orbital Energies [Eh]
    ---------------------

    Doubly Occupied:

       1A    -20.616086     2A    -20.553151     3A    -11.391152
       4A    -11.254436     5A    -11.232636     6A    -11.230728
       7A    -11.230169     8A    -11.214616     9A     -1.458928
      10A     -1.358418    11A     -1.105663    12A     -1.045433
      13A     -0.963230    14A     -0.869518    15A     -0.807511
      16A     -0.735198    17A     -0.702846    18A     -0.682950
      19A     -0.655193    20A     -0.626155    21A     -0.612274
      22A     -0.599586    23A     -0.582708    24A     -0.555797
      25A     -0.522953    26A     -0.498347    27A     -0.492586
      28A     -0.484067    29A     -0.477074    30A     -0.456267
      31A     -0.359242

  @DF-RHF Final Energy:  -382.90290352603046

   => Energetics <=

    Nuclear Repulsion Energy =            355.2395428200727565
    One-Electron Energy =               -1225.5350488378705904
    Two-Electron Energy =                 487.3926024917673772
    Total Energy =                       -382.9029035260304568
  Basis Set: (AUG-CC-PVTZ AUX)
    Blend: AUG-CC-PVTZ-RI
    Molecular point group: c1

    Geometry (in Angstrom), charge = 0, multiplicity = 1:

       Center              X                  Y                   Z               Mass
    ------------   -----------------  -----------------  -----------------  -----------------
         O            3.150994584177     0.385008491245     0.014115394548    15.994914619570
         O            1.723489584177    -1.366282508755    -0.204145605452    15.994914619570
         C           -2.915529415823     0.345697491245    -0.500393605452    12.000000000000
         C           -1.495231415823     0.823320491245    -0.405621605452    12.000000000000
         C            0.859365584177     0.821543491245     0.415438394548    12.000000000000
         C           -0.530135715823     0.279121591245     0.311449294548    12.000000000000
         C           -3.246826415823    -0.884394508755     0.337979394548    12.000000000000
         C            1.911565584177    -0.187638508755     0.028991394548    12.000000000000
         H           -3.581736415823     1.173020491245    -0.215280605452     1.007825032230
         H           -3.146731415823     0.141246491245    -1.558128605452     1.007825032230
         H           -1.254484415823     1.717041491245    -0.991501605452     1.007825032230
         H            0.961316584177     1.709667391245    -0.224886805452     1.007825032230
         H            1.098079584177     1.151135491245     1.434754394548     1.007825032230
         H           -0.712250415823    -0.646402508755     0.905136394548     1.007825032230
         H           -4.294816415823    -1.164501508755     0.214162394548     1.007825032230
         H           -2.630573415823    -1.738897508755     0.040645394548     1.007825032230
         H           -3.073106415823    -0.691750508755     1.401924394548     1.007825032230
         H            3.769513584177    -0.337242508755    -0.227525605452     1.007825032230

  Basis Set: AUG-CC-PVTZ
    Blend: AUG-CC-PVTZ
  Basis Set: (AUG-CC-PVTZ AUX)
    Blend: AUG-CC-PVTZ-JKFIT
	 Reference Energy          =    -382.9029035260304568 [Eh]
	 Singles Energy            =      -0.0000000000000000 [Eh]
	 Same-Spin Energy          =      -0.3829891672118722 [Eh]
	 Opposite-Spin Energy      =      -1.2541104729233892 [Eh]
	 Correlation Energy        =      -1.6370996401352613 [Eh]
	 Total Energy              =    -384.5400031661657181 [Eh]

	 ================> DF-SCS-MP2 Energies <==================
	-----------------------------------------------------------
	 SCS Same-Spin Scale       =       0.3333333333333333 [-]
	 SCS Opposite-Spin Scale   =       1.2000000000000000 [-]
	 SCS Same-Spin Energy      =      -0.1276630557372907 [Eh]
	 SCS Opposite-Spin Energy  =      -1.5049325675080669 [Eh]
	 SCS Correlation Energy    =      -1.6325956232453576 [Eh]
	 SCS Total Energy          =    -384.5354991492758359 [Eh]
	-----------------------------------------------------------

  Dipole Moment: [D]
     X:    -0.1720      Y:     1.3878      Z:     0.2049     Total:     1.4133

*** Psi4 exiting successfully. Buy a developer a beer!
