                               Psi4 1.3.2 release

  ==> Input File <==

--------------------------------------------------------------------------
#psi4
#
memory 32 gb

molecule  {
0 1
  O        3.1501630     0.3869830     0.0122970
  O        1.7226580    -1.3643080    -0.2059640
  C       -2.9216833     0.3674591    -0.5185473
  C       -1.4960630     0.8252950    -0.4074400
  C        0.8585340     0.8235180     0.4136200
  C       -0.5245990     0.2621860     0.3264500
  C       -3.2476580    -0.8824200     0.3361610
  C        1.9107340    -0.1856640     0.0271730
  H       -3.5825680     1.1749950    -0.2170990
  H       -3.1475630     0.1432210    -1.5599470
  H       -1.2734005     1.7196375    -0.9994911
  H        0.9787830     1.7133270    -0.2211670
  H        1.0972480     1.1531100     1.4329360
  H       -0.7130820    -0.6444280     0.9033180
  H       -4.2956480    -1.1625270     0.2123440
  H       -2.6314050    -1.7369230     0.0388270
  H       -3.0739380    -0.6897760     1.4001060
  H        3.7686820    -0.3352680    -0.2293440
units angstrom
no_reorient  #important for SAPT in psi4, default
symmetry c1  #important for SAPT in psi4, default
}

set PROPERTIES_ORIGIN ["COM"]
properties('MP2/aug-cc-pvtz', properties = ['dipole'])
--------------------------------------------------------------------------

    Molecular point group: c1
  Charge       = 0
  Multiplicity = 1
  Basis Set: AUG-CC-PVTZ
    Blend: AUG-CC-PVTZ
  Basis Set: (AUG-CC-PVTZ AUX)
    Blend: AUG-CC-PVTZ-JKFIT

    Orbital Energies [Eh]
    ---------------------

    Doubly Occupied:

       1A    -20.615812     2A    -20.552877     3A    -11.390610
       4A    -11.254439     5A    -11.235601     6A    -11.233059
       7A    -11.228637     8A    -11.215151     9A     -1.458708
      10A     -1.358223    11A     -1.102348    12A     -1.043821
      13A     -0.958167    14A     -0.871762    15A     -0.806705
      16A     -0.739369    17A     -0.702992    18A     -0.682651
      19A     -0.654558    20A     -0.624674    21A     -0.613707
      22A     -0.599560    23A     -0.582418    24A     -0.552192
      25A     -0.525628    26A     -0.502381    27A     -0.493118
      28A     -0.483767    29A     -0.475403    30A     -0.455814
      31A     -0.355056

  @DF-RHF Final Energy:  -382.90270386044659

   => Energetics <=

    Nuclear Repulsion Energy =            354.8250101683617004
    One-Electron Energy =               -1224.7170160911739458
    Two-Electron Energy =                 486.9893020623656525
    Total Energy =                       -382.9027038604465929
  Basis Set: (AUG-CC-PVTZ AUX)
    Blend: AUG-CC-PVTZ-RI
    Molecular point group: c1

    Geometry (in Angstrom), charge = 0, multiplicity = 1:

       Center              X                  Y                   Z               Mass
    ------------   -----------------  -----------------  -----------------  -----------------
         O            3.150882658293     0.384895851063     0.014070090484    15.994914619570
         O            1.723377658293    -1.366395148937    -0.204190909516    15.994914619570
         C           -2.920963641707     0.365371951063    -0.516774209516    12.000000000000
         C           -1.495343341707     0.823207851063    -0.405666909516    12.000000000000
         C            0.859253658293     0.821430851063     0.415393090484    12.000000000000
         C           -0.523879341707     0.260098851063     0.328223090484    12.000000000000
         C           -3.246938341707    -0.884507148937     0.337934090484    12.000000000000
         C            1.911453658293    -0.187751148937     0.028946090484    12.000000000000
         H           -3.581848341707     1.172907851063    -0.215325909516     1.007825032230
         H           -3.146843341707     0.141133851063    -1.558173909516     1.007825032230
         H           -1.272680841707     1.717550351063    -0.997718009516     1.007825032230
         H            0.979502658293     1.711239851063    -0.219393909516     1.007825032230
         H            1.097967658293     1.151022851063     1.434709090484     1.007825032230
         H           -0.712362341707    -0.646515148937     0.905091090484     1.007825032230
         H           -4.294928341707    -1.164614148937     0.214117090484     1.007825032230
         H           -2.630685341707    -1.739010148937     0.040600090484     1.007825032230
         H           -3.073218341707    -0.691863148937     1.401879090484     1.007825032230
         H            3.769401658293    -0.337355148937    -0.227570909516     1.007825032230

  Basis Set: AUG-CC-PVTZ
    Blend: AUG-CC-PVTZ
  Basis Set: (AUG-CC-PVTZ AUX)
    Blend: AUG-CC-PVTZ-JKFIT
	 Reference Energy          =    -382.9027038604465929 [Eh]
	 Singles Energy            =      -0.0000000000000000 [Eh]
	 Same-Spin Energy          =      -0.3829591916681603 [Eh]
	 Opposite-Spin Energy      =      -1.2544323022371613 [Eh]
	 Correlation Energy        =      -1.6373914939053216 [Eh]
	 Total Energy              =    -384.5400953543519336 [Eh]

	 ================> DF-SCS-MP2 Energies <==================
	-----------------------------------------------------------
	 SCS Same-Spin Scale       =       0.3333333333333333 [-]
	 SCS Opposite-Spin Scale   =       1.2000000000000000 [-]
	 SCS Same-Spin Energy      =      -0.1276530638893868 [Eh]
	 SCS Opposite-Spin Energy  =      -1.5053187626845934 [Eh]
	 SCS Correlation Energy    =      -1.6329718265739801 [Eh]
	 SCS Total Energy          =    -384.5356756870205572 [Eh]
	-----------------------------------------------------------

  Dipole Moment: [D]
     X:    -0.1672      Y:     1.4038      Z:     0.2001     Total:     1.4278

*** Psi4 exiting successfully. Buy a developer a beer!
