                               Psi4 1.3.2 release

  ==> Input File <==

--------------------------------------------------------------------------
#psi4
#
memory 32 gb

molecule  {
0 1
  O        3.1501630     0.3869830     0.0122970
  O        1.7226580    -1.3643080    -0.2059640
  C       -2.9163610     0.3476720    -0.5022120
  C       -1.4800447     0.7778599    -0.4229291
  C        0.8585340     0.8235180     0.4136200
  C       -0.5245990     0.2621860     0.3264500
  C       -3.2476580    -0.8824200     0.3361610
  C        1.9107340    -0.1856640     0.0271730
  H       -3.6126689     1.1519532    -0.2231573
  H       -3.1475630     0.1432210    -1.5599470
  H       -1.2553160     1.7190160    -0.9933200
  H        0.9787830     1.7133270    -0.2211670
  H        1.0972480     1.1531100     1.4329360
  H       -0.7130820    -0.6444280     0.9033180
  H       -4.2956480    -1.1625270     0.2123440
  H       -2.6314050    -1.7369230     0.0388270
  H       -3.0739380    -0.6897760     1.4001060
  H        3.7686820    -0.3352680    -0.2293440
units angstrom
no_reorient  #important for SAPT in psi4, default
symmetry c1  #important for SAPT in psi4, default
}

set PROPERTIES_ORIGIN ["COM"]
properties('MP2/aug-cc-pvtz', properties = ['dipole'])
--------------------------------------------------------------------------

    Molecular point group: c1
  Charge       = 0
  Multiplicity = 1
  Basis Set: AUG-CC-PVTZ
    Blend: AUG-CC-PVTZ
  Basis Set: (AUG-CC-PVTZ AUX)
    Blend: AUG-CC-PVTZ-JKFIT

    Orbital Energies [Eh]
    ---------------------

    Doubly Occupied:

       1A    -20.615994     2A    -20.552999     3A    -11.390850
       4A    -11.254940     5A    -11.234880     6A    -11.230225
       7A    -11.229890     8A    -11.213920     9A     -1.458874
      10A     -1.358359    11A     -1.105953    12A     -1.045765
      13A     -0.963034    14A     -0.869209    15A     -0.807554
      16A     -0.735796    17A     -0.702894    18A     -0.682712
      19A     -0.655210    20A     -0.626975    21A     -0.611328
      22A     -0.598268    23A     -0.583259    24A     -0.553938
      25A     -0.527720    26A     -0.497778    27A     -0.493777
      28A     -0.483992    29A     -0.473234    30A     -0.455982
      31A     -0.360013

  @DF-RHF Final Energy:  -382.90158636751198

   => Energetics <=

    Nuclear Repulsion Energy =            355.4492240790380606
    One-Electron Energy =               -1225.9509739775944581
    Two-Electron Energy =                 487.6001635310444726
    Total Energy =                       -382.9015863675119817
  Basis Set: (AUG-CC-PVTZ AUX)
    Blend: AUG-CC-PVTZ-RI
    Molecular point group: c1

    Geometry (in Angstrom), charge = 0, multiplicity = 1:

       Center              X                  Y                   Z               Mass
    ------------   -----------------  -----------------  -----------------  -----------------
         O            3.148743788486     0.392176721130     0.013980073341    15.994914619570
         O            1.721238788486    -1.359114278870    -0.204280926659    15.994914619570
         C           -2.917780211514     0.352865721130    -0.500528926659    12.000000000000
         C           -1.481463911514     0.783053621130    -0.421246026659    12.000000000000
         C            0.857114788486     0.828711721130     0.415303073341    12.000000000000
         C           -0.526018211514     0.267379721130     0.328133073341    12.000000000000
         C           -3.249077211514    -0.877226278870     0.337844073341    12.000000000000
         C            1.909314788486    -0.180470278870     0.028856073341    12.000000000000
         H           -3.614088111514     1.157146921130    -0.221474226659     1.007825032230
         H           -3.148982211514     0.148414721130    -1.558263926659     1.007825032230
         H           -1.256735211514     1.724209721130    -0.991636926659     1.007825032230
         H            0.977363788486     1.718520721130    -0.219483926659     1.007825032230
         H            1.095828788486     1.158303721130     1.434619073341     1.007825032230
         H           -0.714501211514    -0.639234278870     0.905001073341     1.007825032230
         H           -4.297067211514    -1.157333278870     0.214027073341     1.007825032230
         H           -2.632824211514    -1.731729278870     0.040510073341     1.007825032230
         H           -3.075357211514    -0.684582278870     1.401789073341     1.007825032230
         H            3.767262788486    -0.330074278870    -0.227660926659     1.007825032230

  Basis Set: AUG-CC-PVTZ
    Blend: AUG-CC-PVTZ
  Basis Set: (AUG-CC-PVTZ AUX)
    Blend: AUG-CC-PVTZ-JKFIT
	 Reference Energy          =    -382.9015863675119817 [Eh]
	 Singles Energy            =      -0.0000000000000000 [Eh]
	 Same-Spin Energy          =      -0.3830449800362848 [Eh]
	 Opposite-Spin Energy      =      -1.2542378925274722 [Eh]
	 Correlation Energy        =      -1.6372828725637572 [Eh]
	 Total Energy              =    -384.5388692400757122 [Eh]

	 ================> DF-SCS-MP2 Energies <==================
	-----------------------------------------------------------
	 SCS Same-Spin Scale       =       0.3333333333333333 [-]
	 SCS Opposite-Spin Scale   =       1.2000000000000000 [-]
	 SCS Same-Spin Energy      =      -0.1276816600120949 [Eh]
	 SCS Opposite-Spin Energy  =      -1.5050854710329666 [Eh]
	 SCS Correlation Energy    =      -1.6327671310450615 [Eh]
	 SCS Total Energy          =    -384.5343534985570386 [Eh]
	-----------------------------------------------------------

  Dipole Moment: [D]
     X:    -0.1773      Y:     1.4021      Z:     0.2509     Total:     1.4354

*** Psi4 exiting successfully. Buy a developer a beer!
