                               Psi4 1.3.2 release

  ==> Input File <==

--------------------------------------------------------------------------
#psi4
#
memory 32 gb

molecule  {
0 1
  O        3.1771323     0.3236486    -0.0069748
  O        1.7226580    -1.3643080    -0.2059640
  C       -2.9163610     0.3476720    -0.5022120
  C       -1.4960630     0.8252950    -0.4074400
  C        0.8042559     0.7666324     0.4063198
  C       -0.5245990     0.2621860     0.3264500
  C       -3.2476580    -0.8824200     0.3361610
  C        1.9107340    -0.1856640     0.0271730
  H       -3.5825680     1.1749950    -0.2170990
  H       -3.1475630     0.1432210    -1.5599470
  H       -1.2553160     1.7190160    -0.9933200
  H        0.9787830     1.7133270    -0.2211670
  H        1.0972480     1.1531100     1.4329360
  H       -0.7130820    -0.6444280     0.9033180
  H       -4.2956480    -1.1625270     0.2123440
  H       -2.6314050    -1.7369230     0.0388270
  H       -3.0739380    -0.6897760     1.4001060
  H        3.7686820    -0.3352680    -0.2293440
units angstrom
no_reorient  #important for SAPT in psi4, default
symmetry c1  #important for SAPT in psi4, default
}

set PROPERTIES_ORIGIN ["COM"]
properties('MP2/aug-cc-pvtz', properties = ['dipole'])
--------------------------------------------------------------------------

    Molecular point group: c1
  Charge       = 0
  Multiplicity = 1
  Basis Set: AUG-CC-PVTZ
    Blend: AUG-CC-PVTZ
  Basis Set: (AUG-CC-PVTZ AUX)
    Blend: AUG-CC-PVTZ-JKFIT

    Orbital Energies [Eh]
    ---------------------

    Doubly Occupied:

       1A    -20.607493     2A    -20.546589     3A    -11.390200
       4A    -11.261468     5A    -11.239094     6A    -11.231896
       7A    -11.230235     8A    -11.215933     9A     -1.465929
      10A     -1.358478    11A     -1.112730    12A     -1.049644
      13A     -0.961784    14A     -0.878541    15A     -0.820128
      16A     -0.741678    17A     -0.703652    18A     -0.687157
      19A     -0.652764    20A     -0.631773    21A     -0.613642
      22A     -0.601650    23A     -0.579923    24A     -0.556483
      25A     -0.522237    26A     -0.499561    27A     -0.493565
      28A     -0.485427    29A     -0.477252    30A     -0.452194
      31A     -0.354766

  @DF-RHF Final Energy:  -382.89410114669437

   => Energetics <=

    Nuclear Repulsion Energy =            356.0365588429893933
    One-Electron Energy =               -1227.0135897925044901
    Two-Electron Energy =                 488.0829298028207290
    Total Energy =                       -382.8941011466943678
  Basis Set: (AUG-CC-PVTZ AUX)
    Blend: AUG-CC-PVTZ-RI
    Molecular point group: c1

    Geometry (in Angstrom), charge = 0, multiplicity = 1:

       Center              X                  Y                   Z               Mass
    ------------   -----------------  -----------------  -----------------  -----------------
         O            3.179060639441     0.338513845556    -0.003504387993    15.994914619570
         O            1.724586339441    -1.349442754444    -0.202493587993    15.994914619570
         C           -2.914432660559     0.362537245556    -0.498741587993    12.000000000000
         C           -1.494134660559     0.840160245556    -0.403969587993    12.000000000000
         C            0.806184239441     0.781497645556     0.409790212007    12.000000000000
         C           -0.522670660559     0.277051245556     0.329920412007    12.000000000000
         C           -3.245729660559    -0.867554754444     0.339631412007    12.000000000000
         C            1.912662339441    -0.170798754444     0.030643412007    12.000000000000
         H           -3.580639660559     1.189860245556    -0.213628587993     1.007825032230
         H           -3.145634660559     0.158086245556    -1.556476587993     1.007825032230
         H           -1.253387660559     1.733881245556    -0.989849587993     1.007825032230
         H            0.980711339441     1.728192245556    -0.217696587993     1.007825032230
         H            1.099176339441     1.167975245556     1.436406412007     1.007825032230
         H           -0.711153660559    -0.629562754444     0.906788412007     1.007825032230
         H           -4.293719660559    -1.147661754444     0.215814412007     1.007825032230
         H           -2.629476660559    -1.722057754444     0.042297412007     1.007825032230
         H           -3.072009660559    -0.674910754444     1.403576412007     1.007825032230
         H            3.770610339441    -0.320402754444    -0.225873587993     1.007825032230

  Basis Set: AUG-CC-PVTZ
    Blend: AUG-CC-PVTZ
  Basis Set: (AUG-CC-PVTZ AUX)
    Blend: AUG-CC-PVTZ-JKFIT
	 Reference Energy          =    -382.8941011466943678 [Eh]
	 Singles Energy            =      -0.0000000000000000 [Eh]
	 Same-Spin Energy          =      -0.3827479559075567 [Eh]
	 Opposite-Spin Energy      =      -1.2527893736265108 [Eh]
	 Correlation Energy        =      -1.6355373295340674 [Eh]
	 Total Energy              =    -384.5296384762284561 [Eh]

	 ================> DF-SCS-MP2 Energies <==================
	-----------------------------------------------------------
	 SCS Same-Spin Scale       =       0.3333333333333333 [-]
	 SCS Opposite-Spin Scale   =       1.2000000000000000 [-]
	 SCS Same-Spin Energy      =      -0.1275826519691856 [Eh]
	 SCS Opposite-Spin Energy  =      -1.5033472483518129 [Eh]
	 SCS Correlation Energy    =      -1.6309299003209985 [Eh]
	 SCS Total Energy          =    -384.5250310470153750 [Eh]
	-----------------------------------------------------------

  Dipole Moment: [D]
     X:    -0.3857      Y:     1.4943      Z:     0.2299     Total:     1.5603

*** Psi4 exiting successfully. Buy a developer a beer!
