                               Psi4 1.3.2 release

  ==> Input File <==

--------------------------------------------------------------------------
#psi4
#
memory 32 gb

molecule  {
0 1
  O        3.1501630     0.3869830     0.0122970
  O        1.7226580    -1.3643080    -0.2059640
  C       -2.9163610     0.3476720    -0.5022120
  C       -1.4960630     0.8252950    -0.4074400
  C        0.8585340     0.8235180     0.4136200
  C       -0.5245990     0.2621860     0.3264500
  C       -3.2476580    -0.8824200     0.3361610
  C        1.9107340    -0.1856640     0.0271730
  H       -3.5825680     1.1749950    -0.2170990
  H       -3.1475630     0.1432210    -1.5599470
  H       -1.2553160     1.7190160    -0.9933200
  H        0.9787830     1.7133270    -0.2211670
  H        1.0972480     1.1531100     1.4329360
  H       -0.6785292    -0.4782272     0.7975664
  H       -4.2956480    -1.1625270     0.2123440
  H       -2.6314050    -1.7369230     0.0388270
  H       -3.0739380    -0.6897760     1.4001060
  H        3.7686820    -0.3352680    -0.2293440
units angstrom
no_reorient  #important for SAPT in psi4, default
symmetry c1  #important for SAPT in psi4, default
}

set PROPERTIES_ORIGIN ["COM"]
properties('MP2/aug-cc-pvtz', properties = ['dipole'])
--------------------------------------------------------------------------

    Molecular point group: c1
  Charge       = 0
  Multiplicity = 1
  Basis Set: AUG-CC-PVTZ
    Blend: AUG-CC-PVTZ
  Basis Set: (AUG-CC-PVTZ AUX)
    Blend: AUG-CC-PVTZ-JKFIT

    Orbital Energies [Eh]
    ---------------------

    Doubly Occupied:

       1A    -20.615585     2A    -20.553005     3A    -11.390389
       4A    -11.252496     5A    -11.234758     6A    -11.230173
       7A    -11.215343     8A    -11.209247     9A     -1.458589
      10A     -1.358253    11A     -1.109300    12A     -1.045842
      13A     -0.963613    14A     -0.878464    15A     -0.805987
      16A     -0.771792    17A     -0.704415    18A     -0.682030
      19A     -0.653920    20A     -0.626325    21A     -0.612466
      22A     -0.604737    23A     -0.583226    24A     -0.551824
      25A     -0.542783    26A     -0.498537    27A     -0.492821
      28A     -0.486812    29A     -0.481671    30A     -0.455917
      31A     -0.353701

  @DF-RHF Final Energy:  -382.87028589996373

   => Energetics <=

    Nuclear Repulsion Energy =            356.0775007679407622
    One-Electron Energy =               -1227.0475333857145870
    Two-Electron Energy =                 488.0997467178100351
    Total Energy =                       -382.8702858999637328
  Basis Set: (AUG-CC-PVTZ AUX)
    Blend: AUG-CC-PVTZ-RI
    Molecular point group: c1

    Geometry (in Angstrom), charge = 0, multiplicity = 1:

       Center              X                  Y                   Z               Mass
    ------------   -----------------  -----------------  -----------------  -----------------
         O            3.149857684532     0.385514518765     0.013231434484    15.994914619570
         O            1.722352684532    -1.365776481235    -0.205029565516    15.994914619570
         C           -2.916666315468     0.346203518765    -0.501277565516    12.000000000000
         C           -1.496368315468     0.823826518765    -0.406505565516    12.000000000000
         C            0.858228684532     0.822049518765     0.414554434484    12.000000000000
         C           -0.524904315468     0.260717518765     0.327384434484    12.000000000000
         C           -3.247963315468    -0.883888481235     0.337095434484    12.000000000000
         C            1.910428684532    -0.187132481235     0.028107434484    12.000000000000
         H           -3.582873315468     1.173526518765    -0.216164565516     1.007825032230
         H           -3.147868315468     0.141752518765    -1.559012565516     1.007825032230
         H           -1.255621315468     1.717547518765    -0.992385565516     1.007825032230
         H            0.978477684532     1.711858518765    -0.220232565516     1.007825032230
         H            1.096942684532     1.151641518765     1.433870434484     1.007825032230
         H           -0.678834515468    -0.479695681235     0.798500834484     1.007825032230
         H           -4.295953315468    -1.163995481235     0.213278434484     1.007825032230
         H           -2.631710315468    -1.738391481235     0.039761434484     1.007825032230
         H           -3.074243315468    -0.691244481235     1.401040434484     1.007825032230
         H            3.768376684532    -0.336736481235    -0.228409565516     1.007825032230

  Basis Set: AUG-CC-PVTZ
    Blend: AUG-CC-PVTZ
  Basis Set: (AUG-CC-PVTZ AUX)
    Blend: AUG-CC-PVTZ-JKFIT
	 Reference Energy          =    -382.8702858999637328 [Eh]
	 Singles Energy            =      -0.0000000000000000 [Eh]
	 Same-Spin Energy          =      -0.3827270360567903 [Eh]
	 Opposite-Spin Energy      =      -1.2537874940613396 [Eh]
	 Correlation Energy        =      -1.6365145301181299 [Eh]
	 Total Energy              =    -384.5068004300818529 [Eh]

	 ================> DF-SCS-MP2 Energies <==================
	-----------------------------------------------------------
	 SCS Same-Spin Scale       =       0.3333333333333333 [-]
	 SCS Opposite-Spin Scale   =       1.2000000000000000 [-]
	 SCS Same-Spin Energy      =      -0.1275756786855968 [Eh]
	 SCS Opposite-Spin Energy  =      -1.5045449928736074 [Eh]
	 SCS Correlation Energy    =      -1.6321206715592043 [Eh]
	 SCS Total Energy          =    -384.5024065715229540 [Eh]
	-----------------------------------------------------------

  Dipole Moment: [D]
     X:    -0.2086      Y:     1.3825      Z:     0.2176     Total:     1.4150

*** Psi4 exiting successfully. Buy a developer a beer!
