                               Psi4 1.3.2 release

  ==> Input File <==

--------------------------------------------------------------------------
#psi4
#
memory 32 gb

molecule  {
0 1
  O        3.1501630     0.3869830     0.0122970
  O        1.7226580    -1.3643080    -0.2059640
  C       -2.9190530     0.3574929    -0.5104570
  C       -1.4960630     0.8252950    -0.4074400
  C        0.8585340     0.8235180     0.4136200
  C       -0.5171014     0.2703574     0.3227018
  C       -3.2476580    -0.8824200     0.3361610
  C        1.9107340    -0.1856640     0.0271730
  H       -3.5825680     1.1749950    -0.2170990
  H       -3.1475630     0.1432210    -1.5599470
  H       -1.2553160     1.7190160    -0.9933200
  H        0.9787830     1.7133270    -0.2211670
  H        1.0972480     1.1531100     1.4329360
  H       -0.7130820    -0.6444280     0.9033180
  H       -4.2956480    -1.1625270     0.2123440
  H       -2.6314050    -1.7369230     0.0388270
  H       -3.0739380    -0.6897760     1.4001060
  H        3.7686820    -0.3352680    -0.2293440
units angstrom
no_reorient  #important for SAPT in psi4, default
symmetry c1  #important for SAPT in psi4, default
}

set PROPERTIES_ORIGIN ["COM"]
properties('MP2/aug-cc-pvtz', properties = ['dipole'])
--------------------------------------------------------------------------

    Molecular point group: c1
  Charge       = 0
  Multiplicity = 1
  Basis Set: AUG-CC-PVTZ
    Blend: AUG-CC-PVTZ
  Basis Set: (AUG-CC-PVTZ AUX)
    Blend: AUG-CC-PVTZ-JKFIT

    Orbital Energies [Eh]
    ---------------------

    Doubly Occupied:

       1A    -20.615930     2A    -20.552995     3A    -11.390773
       4A    -11.254133     5A    -11.235437     6A    -11.232725
       7A    -11.229819     8A    -11.215089     9A     -1.458826
      10A     -1.358330    11A     -1.103573    12A     -1.045486
      13A     -0.959358    14A     -0.870906    15A     -0.807008
      16A     -0.737892    17A     -0.702946    18A     -0.683025
      19A     -0.654981    20A     -0.625908    21A     -0.612993
      22A     -0.598459    23A     -0.582488    24A     -0.553552
      25A     -0.525630    26A     -0.500455    27A     -0.492905
      28A     -0.483947    29A     -0.477941    30A     -0.456103
      31A     -0.354319

  @DF-RHF Final Energy:  -382.90277843239750

   => Energetics <=

    Nuclear Repulsion Energy =            355.0213980573201979
    One-Electron Energy =               -1225.1004837896664412
    Two-Electron Energy =                 487.1763072999487463
    Total Energy =                       -382.9027784323974970
  Basis Set: (AUG-CC-PVTZ AUX)
    Blend: AUG-CC-PVTZ-RI
    Molecular point group: c1

    Geometry (in Angstrom), charge = 0, multiplicity = 1:

       Center              X                  Y                   Z               Mass
    ------------   -----------------  -----------------  -----------------  -----------------
         O            3.149657417960     0.385090155757     0.013558776633    15.994914619570
         O            1.722152417960    -1.366200844243    -0.204702223367    15.994914619570
         C           -2.919558582040     0.355600055757    -0.509195223367    12.000000000000
         C           -1.496568582040     0.823402155757    -0.406178223367    12.000000000000
         C            0.858028417960     0.821625155757     0.414881776633    12.000000000000
         C           -0.517606982040     0.268464555757     0.323963576633    12.000000000000
         C           -3.248163582040    -0.884312844243     0.337422776633    12.000000000000
         C            1.910228417960    -0.187556844243     0.028434776633    12.000000000000
         H           -3.583073582040     1.173102155757    -0.215837223367     1.007825032230
         H           -3.148068582040     0.141328155757    -1.558685223367     1.007825032230
         H           -1.255821582040     1.717123155757    -0.992058223367     1.007825032230
         H            0.978277417960     1.711434155757    -0.219905223367     1.007825032230
         H            1.096742417960     1.151217155757     1.434197776633     1.007825032230
         H           -0.713587582040    -0.646320844243     0.904579776633     1.007825032230
         H           -4.296153582040    -1.164419844243     0.213605776633     1.007825032230
         H           -2.631910582040    -1.738815844243     0.040088776633     1.007825032230
         H           -3.074443582040    -0.691668844243     1.401367776633     1.007825032230
         H            3.768176417960    -0.337160844243    -0.228082223367     1.007825032230

  Basis Set: AUG-CC-PVTZ
    Blend: AUG-CC-PVTZ
  Basis Set: (AUG-CC-PVTZ AUX)
    Blend: AUG-CC-PVTZ-JKFIT
	 Reference Energy          =    -382.9027784323974970 [Eh]
	 Singles Energy            =      -0.0000000000000000 [Eh]
	 Same-Spin Energy          =      -0.3831430756326074 [Eh]
	 Opposite-Spin Energy      =      -1.2545770775437117 [Eh]
	 Correlation Energy        =      -1.6377201531763190 [Eh]
	 Total Energy              =    -384.5404985855738005 [Eh]

	 ================> DF-SCS-MP2 Energies <==================
	-----------------------------------------------------------
	 SCS Same-Spin Scale       =       0.3333333333333333 [-]
	 SCS Opposite-Spin Scale   =       1.2000000000000000 [-]
	 SCS Same-Spin Energy      =      -0.1277143585442025 [Eh]
	 SCS Opposite-Spin Energy  =      -1.5054924930524540 [Eh]
	 SCS Correlation Energy    =      -1.6332068515966565 [Eh]
	 SCS Total Energy          =    -384.5359852839941368 [Eh]
	-----------------------------------------------------------

  Dipole Moment: [D]
     X:    -0.1674      Y:     1.3940      Z:     0.2055     Total:     1.4190

*** Psi4 exiting successfully. Buy a developer a beer!
