                               Psi4 1.4a3.dev225

  ==> Input File <==

--------------------------------------------------------------------------
#psi4
#
memory 32 gb

molecule  {
0 1
  O       -3.2271830    -0.3786580    -0.1569640
  O       -1.8275510     1.3993140    -0.2614160
  C        2.8225670    -0.4310850    -0.3953020
  C        1.4009980    -0.8942070    -0.2419560
  C       -0.9807690    -0.7586230     0.4926230
  C        0.4143070    -0.2269140     0.3719860
  C        3.1298050     0.9339520     0.2103920
  C       -2.0113430     0.2195500    -0.0192140
  H        3.4859920    -1.1868430     0.0468460
  H        3.0699840    -0.4203720    -1.4654230
  H        1.1737130    -1.8673930    -0.6818980
  H       -1.0943868    -1.6622201    -0.0202618
  H       -1.2414610    -0.9681590     1.5400430
  H        0.5929560     0.7502750     0.8121930
  H        4.1791340     1.1958370     0.0500290
  H        2.5131630     1.7137800    -0.2445400
  H        2.9424530     0.9385920     1.2876810
  H       -3.8316340     0.3284440    -0.4642740
units angstrom
no_reorient  #important for SAPT in psi4, default
symmetry c1  #important for SAPT in psi4, default
}

set PROPERTIES_ORIGIN ["COM"]
properties('MP2/aug-cc-pvtz', properties = ['dipole'])
--------------------------------------------------------------------------

    Molecular point group: c1
  Charge       = 0
  Multiplicity = 1
  Basis Set: AUG-CC-PVTZ
    Blend: AUG-CC-PVTZ
  Basis Set: (AUG-CC-PVTZ AUX)
    Blend: AUG-CC-PVTZ-JKFIT

    Orbital Energies [Eh]
    ---------------------

    Doubly Occupied:

       1A    -20.616588     2A    -20.552024     3A    -11.390907
       4A    -11.249032     5A    -11.235044     6A    -11.231731
       7A    -11.229797     8A    -11.214330     9A     -1.460071
      10A     -1.357241    11A     -1.104405    12A     -1.047309
      13A     -0.961572    14A     -0.870571    15A     -0.808734
      16A     -0.742962    17A     -0.703153    18A     -0.683470
      19A     -0.656471    20A     -0.626226    21A     -0.612676
      22A     -0.601600    23A     -0.581405    24A     -0.555705
      25A     -0.531460    26A     -0.498676    27A     -0.492424
      28A     -0.484544    29A     -0.479317    30A     -0.455839
      31A     -0.354456

  @DF-RHF Final Energy:  -382.90302591186884

   => Energetics <=

    Nuclear Repulsion Energy =            355.2362436743321155
    One-Electron Energy =               -1225.4990587262361714
    Two-Electron Energy =                 487.3597891400351614
    Total Energy =                       -382.9030259118688377
  Basis Set: (AUG-CC-PVTZ AUX)
    Blend: AUG-CC-PVTZ-RI
    Molecular point group: c1

    Geometry (in Angstrom), charge = 0, multiplicity = 1:

       Center              X                  Y                   Z               Mass
    ------------   -----------------  -----------------  -----------------  -----------------
         O           -3.124953794874    -0.389617280899    -0.149928933210    15.994914619570
         O           -1.725321794874     1.388354719101    -0.254380933210    15.994914619570
         C            2.924796205126    -0.442044280899    -0.388266933210    12.000000000000
         C            1.503227205126    -0.905166280899    -0.234920933210    12.000000000000
         C           -0.878539794874    -0.769582280899     0.499658066790    12.000000000000
         C            0.516536205126    -0.237873280899     0.379021066790    12.000000000000
         C            3.232034205126     0.922992719101     0.217427066790    12.000000000000
         C           -1.909113794874     0.208590719101    -0.012178933210    12.000000000000
         H            3.588221205126    -1.197802280899     0.053881066790     1.007825032230
         H            3.172213205126    -0.431331280899    -1.458387933210     1.007825032230
         H            1.275942205126    -1.878352280899    -0.674862933210     1.007825032230
         H           -0.992157594874    -1.673179380899    -0.013226733210     1.007825032230
         H           -1.139231794874    -0.979118280899     1.547078066790     1.007825032230
         H            0.695185205126     0.739315719101     0.819228066790     1.007825032230
         H            4.281363205126     1.184877719101     0.057064066790     1.007825032230
         H            2.615392205126     1.702820719101    -0.237504933210     1.007825032230
         H            3.044682205126     0.927632719101     1.294716066790     1.007825032230
         H           -3.729404794874     0.317484719101    -0.457238933210     1.007825032230

  Basis Set: AUG-CC-PVTZ
    Blend: AUG-CC-PVTZ
  Basis Set: (AUG-CC-PVTZ AUX)
    Blend: AUG-CC-PVTZ-JKFIT
	 Reference Energy          =    -382.9030259118688377 [Eh]
	 Singles Energy            =      -0.0000000000000000 [Eh]
	 Same-Spin Energy          =      -0.3829453465209787 [Eh]
	 Opposite-Spin Energy      =      -1.2538787760486620 [Eh]
	 Correlation Energy        =      -1.6368241225696407 [Eh]
	 Total Energy              =    -384.5398500344384729 [Eh]

	 ================> DF-SCS-MP2 Energies <==================
	-----------------------------------------------------------
	 SCS Same-Spin Scale       =       0.3333333333333333 [-]
	 SCS Opposite-Spin Scale   =       1.2000000000000000 [-]
	 SCS Same-Spin Energy      =      -0.1276484488403262 [Eh]
	 SCS Opposite-Spin Energy  =      -1.5046545312583943 [Eh]
	 SCS Correlation Energy    =      -1.6323029800987205 [Eh]
	 SCS Total Energy          =    -384.5353288919675379 [Eh]
	-----------------------------------------------------------

  Dipole Moment: [D]
     X:     0.1574      Y:    -1.4277      Z:     0.2392     Total:     1.4561

*** Psi4 exiting successfully. Buy a developer a beer!
