                               Psi4 1.3.2 release

  ==> Input File <==

--------------------------------------------------------------------------
#psi4
#
memory 32 gb

molecule  {
0 1
  O        3.1501630     0.3869830     0.0122970
  O        1.7226580    -1.3643080    -0.2059640
  C       -2.9163610     0.3476720    -0.5022120
  C       -1.5077692     0.8638744    -0.4409240
  C        0.8585340     0.8235180     0.4136200
  C       -0.5245990     0.2621860     0.3264500
  C       -3.2976791    -0.8801038     0.3181029
  C        1.9107340    -0.1856640     0.0271730
  H       -3.5825680     1.1749950    -0.2170990
  H       -3.1475630     0.1432210    -1.5599470
  H       -1.2553160     1.7190160    -0.9933200
  H        0.9787830     1.7133270    -0.2211670
  H        1.0972480     1.1531100     1.4329360
  H       -0.7130820    -0.6444280     0.9033180
  H       -4.2956480    -1.1625270     0.2123440
  H       -2.6314050    -1.7369230     0.0388270
  H       -3.0739380    -0.6897760     1.4001060
  H        3.7686820    -0.3352680    -0.2293440
units angstrom
no_reorient  #important for SAPT in psi4, default
symmetry c1  #important for SAPT in psi4, default
}

set PROPERTIES_ORIGIN ["COM"]
properties('MP2/aug-cc-pvtz', properties = ['dipole'])
--------------------------------------------------------------------------

    Molecular point group: c1
  Charge       = 0
  Multiplicity = 1
  Basis Set: AUG-CC-PVTZ
    Blend: AUG-CC-PVTZ
  Basis Set: (AUG-CC-PVTZ AUX)
    Blend: AUG-CC-PVTZ-JKFIT

    Orbital Energies [Eh]
    ---------------------

    Doubly Occupied:

       1A    -20.615593     2A    -20.552679     3A    -11.390269
       4A    -11.254008     5A    -11.239680     6A    -11.238337
       7A    -11.230132     8A    -11.216408     9A     -1.458489
      10A     -1.358010    11A     -1.098499    12A     -1.045432
      13A     -0.957794    14A     -0.870863    15A     -0.803683
      16A     -0.747234    17A     -0.703286    18A     -0.682544
      19A     -0.653850    20A     -0.630267    21A     -0.607001
      22A     -0.598778    23A     -0.581554    24A     -0.556544
      25A     -0.533000    26A     -0.499471    27A     -0.487603
      28A     -0.484011    29A     -0.481014    30A     -0.455723
      31A     -0.344202

  @DF-RHF Final Energy:  -382.89364005718369

   => Energetics <=

    Nuclear Repulsion Energy =            354.0867328249775596
    One-Electron Energy =               -1223.2088311892114234
    Two-Electron Energy =                 486.2284583070501185
    Total Energy =                       -382.8936400571836884
  Basis Set: (AUG-CC-PVTZ AUX)
    Blend: AUG-CC-PVTZ-RI
    Molecular point group: c1

    Geometry (in Angstrom), charge = 0, multiplicity = 1:

       Center              X                  Y                   Z               Mass
    ------------   -----------------  -----------------  -----------------  -----------------
         O            3.156656701222     0.382680720961     0.017719334099    15.994914619570
         O            1.729151701222    -1.368610279039    -0.200541665901    15.994914619570
         C           -2.909867298778     0.343369720961    -0.496789665901    12.000000000000
         C           -1.501275498778     0.859572120961    -0.435501665901    12.000000000000
         C            0.865027701222     0.819215720961     0.419042334099    12.000000000000
         C           -0.518105298778     0.257883720961     0.331872334099    12.000000000000
         C           -3.291185398778    -0.884406079039     0.323525234099    12.000000000000
         C            1.917227701222    -0.189966279039     0.032595334099    12.000000000000
         H           -3.576074298778     1.170692720961    -0.211676665901     1.007825032230
         H           -3.141069298778     0.138918720961    -1.554524665901     1.007825032230
         H           -1.248822298778     1.714713720961    -0.987897665901     1.007825032230
         H            0.985276701222     1.709024720961    -0.215744665901     1.007825032230
         H            1.103741701222     1.148807720961     1.438358334099     1.007825032230
         H           -0.706588298778    -0.648730279039     0.908740334099     1.007825032230
         H           -4.289154298778    -1.166829279039     0.217766334099     1.007825032230
         H           -2.624911298778    -1.741225279039     0.044249334099     1.007825032230
         H           -3.067444298778    -0.694078279039     1.405528334099     1.007825032230
         H            3.775175701222    -0.339570279039    -0.223921665901     1.007825032230

  Basis Set: AUG-CC-PVTZ
    Blend: AUG-CC-PVTZ
  Basis Set: (AUG-CC-PVTZ AUX)
    Blend: AUG-CC-PVTZ-JKFIT
	 Reference Energy          =    -382.8936400571836884 [Eh]
	 Singles Energy            =      -0.0000000000000000 [Eh]
	 Same-Spin Energy          =      -0.3835904673454711 [Eh]
	 Opposite-Spin Energy      =      -1.2557968346714710 [Eh]
	 Correlation Energy        =      -1.6393873020169420 [Eh]
	 Total Energy              =    -384.5330273592006165 [Eh]

	 ================> DF-SCS-MP2 Energies <==================
	-----------------------------------------------------------
	 SCS Same-Spin Scale       =       0.3333333333333333 [-]
	 SCS Opposite-Spin Scale   =       1.2000000000000000 [-]
	 SCS Same-Spin Energy      =      -0.1278634891151570 [Eh]
	 SCS Opposite-Spin Energy  =      -1.5069562016057652 [Eh]
	 SCS Correlation Energy    =      -1.6348196907209223 [Eh]
	 SCS Total Energy          =    -384.5284597479046056 [Eh]
	-----------------------------------------------------------

  Dipole Moment: [D]
     X:    -0.1829      Y:     1.4076      Z:     0.1906     Total:     1.4322

*** Psi4 exiting successfully. Buy a developer a beer!
