                               Psi4 1.3.2 release

  ==> Input File <==

--------------------------------------------------------------------------
#psi4
#
memory 32 gb

molecule  {
0 1
  O        3.1501630     0.3869830     0.0122970
  O        1.7019566    -1.3615648    -0.2021661
  C       -2.9163610     0.3476720    -0.5022120
  C       -1.4960630     0.8252950    -0.4074400
  C        0.8402448     0.8046353     0.4122374
  C       -0.5245990     0.2621860     0.3264500
  C       -3.2476580    -0.8824200     0.3361610
  C        1.9107340    -0.1856640     0.0271730
  H       -3.5825680     1.1749950    -0.2170990
  H       -3.1475630     0.1432210    -1.5599470
  H       -1.2553160     1.7190160    -0.9933200
  H        0.9787830     1.7133270    -0.2211670
  H        1.0972480     1.1531100     1.4329360
  H       -0.7130820    -0.6444280     0.9033180
  H       -4.2956480    -1.1625270     0.2123440
  H       -2.6314050    -1.7369230     0.0388270
  H       -3.0739380    -0.6897760     1.4001060
  H        3.7686820    -0.3352680    -0.2293440
units angstrom
no_reorient  #important for SAPT in psi4, default
symmetry c1  #important for SAPT in psi4, default
}

set PROPERTIES_ORIGIN ["COM"]
properties('MP2/aug-cc-pvtz', properties = ['dipole'])
--------------------------------------------------------------------------

    Molecular point group: c1
  Charge       = 0
  Multiplicity = 1
  Basis Set: AUG-CC-PVTZ
    Blend: AUG-CC-PVTZ
  Basis Set: (AUG-CC-PVTZ AUX)
    Blend: AUG-CC-PVTZ-JKFIT

    Orbital Energies [Eh]
    ---------------------

    Doubly Occupied:

       1A    -20.618069     2A    -20.552222     3A    -11.390457
       4A    -11.254262     5A    -11.235505     6A    -11.230626
       7A    -11.229984     8A    -11.214614     9A     -1.458693
      10A     -1.359640    11A     -1.104805    12A     -1.045607
      13A     -0.959339    14A     -0.871079    15A     -0.806301
      16A     -0.738686    17A     -0.703667    18A     -0.683272
      19A     -0.653433    20A     -0.627251    21A     -0.612045
      22A     -0.599564    23A     -0.581925    24A     -0.552264
      25A     -0.525809    26A     -0.498062    27A     -0.491558
      28A     -0.484565    29A     -0.480968    30A     -0.454799
      31A     -0.353285

  @DF-RHF Final Energy:  -382.90162770929339

   => Energetics <=

    Nuclear Repulsion Energy =            355.4638412417954783
    One-Electron Energy =               -1225.9862335634809369
    Two-Electron Energy =                 487.6207646123920085
    Total Energy =                       -382.9016277092933933
  Basis Set: (AUG-CC-PVTZ AUX)
    Blend: AUG-CC-PVTZ-RI
    Molecular point group: c1

    Geometry (in Angstrom), charge = 0, multiplicity = 1:

       Center              X                  Y                   Z               Mass
    ------------   -----------------  -----------------  -----------------  -----------------
         O            3.154989801286     0.388584759609     0.011909986832    15.994914619570
         O            1.706783401286    -1.359963040391    -0.202553113168    15.994914619570
         C           -2.911534198714     0.349273759609    -0.502599013168    12.000000000000
         C           -1.491236198714     0.826896759609    -0.407827013168    12.000000000000
         C            0.845071601286     0.806237059609     0.411850386832    12.000000000000
         C           -0.519772198714     0.263787759609     0.326062986832    12.000000000000
         C           -3.242831198714    -0.880818240391     0.335773986832    12.000000000000
         C            1.915560801286    -0.184062240391     0.026785986832    12.000000000000
         H           -3.577741198714     1.176596759609    -0.217486013168     1.007825032230
         H           -3.142736198714     0.144822759609    -1.560334013168     1.007825032230
         H           -1.250489198714     1.720617759609    -0.993707013168     1.007825032230
         H            0.983609801286     1.714928759609    -0.221554013168     1.007825032230
         H            1.102074801286     1.154711759609     1.432548986832     1.007825032230
         H           -0.708255198714    -0.642826240391     0.902930986832     1.007825032230
         H           -4.290821198714    -1.160925240391     0.211956986832     1.007825032230
         H           -2.626578198714    -1.735321240391     0.038439986832     1.007825032230
         H           -3.069111198714    -0.688174240391     1.399718986832     1.007825032230
         H            3.773508801286    -0.333666240391    -0.229731013168     1.007825032230

  Basis Set: AUG-CC-PVTZ
    Blend: AUG-CC-PVTZ
  Basis Set: (AUG-CC-PVTZ AUX)
    Blend: AUG-CC-PVTZ-JKFIT
	 Reference Energy          =    -382.9016277092933933 [Eh]
	 Singles Energy            =      -0.0000000000000000 [Eh]
	 Same-Spin Energy          =      -0.3834075292873925 [Eh]
	 Opposite-Spin Energy      =      -1.2548181743295821 [Eh]
	 Correlation Energy        =      -1.6382257036169747 [Eh]
	 Total Energy              =    -384.5398534129103609 [Eh]

	 ================> DF-SCS-MP2 Energies <==================
	-----------------------------------------------------------
	 SCS Same-Spin Scale       =       0.3333333333333333 [-]
	 SCS Opposite-Spin Scale   =       1.2000000000000000 [-]
	 SCS Same-Spin Energy      =      -0.1278025097624642 [Eh]
	 SCS Opposite-Spin Energy  =      -1.5057818091954984 [Eh]
	 SCS Correlation Energy    =      -1.6335843189579626 [Eh]
	 SCS Total Energy          =    -384.5352120282513511 [Eh]
	-----------------------------------------------------------

  Dipole Moment: [D]
     X:    -0.1255      Y:     1.3760      Z:     0.1942     Total:     1.3953

*** Psi4 exiting successfully. Buy a developer a beer!
