                               Psi4 1.3.2 release

  ==> Input File <==

--------------------------------------------------------------------------
#psi4
#
memory 32 gb

molecule  {
0 1
  O        3.1501630     0.3869830     0.0122970
  O        1.7226580    -1.3643080    -0.2059640
  C       -2.9163610     0.3476720    -0.5022120
  C       -1.5138117     0.8721481    -0.3920664
  C        0.8585340     0.8235180     0.4136200
  C       -0.5245990     0.2621860     0.3264500
  C       -3.2476580    -0.8824200     0.3361610
  C        1.9107340    -0.1856640     0.0271730
  H       -3.5516554     1.1970288    -0.2113880
  H       -3.1475630     0.1432210    -1.5599470
  H       -1.2553160     1.7190160    -0.9933200
  H        0.9787830     1.7133270    -0.2211670
  H        1.0972480     1.1531100     1.4329360
  H       -0.7130820    -0.6444280     0.9033180
  H       -4.2956480    -1.1625270     0.2123440
  H       -2.6314050    -1.7369230     0.0388270
  H       -3.0739380    -0.6897760     1.4001060
  H        3.7686820    -0.3352680    -0.2293440
units angstrom
no_reorient  #important for SAPT in psi4, default
symmetry c1  #important for SAPT in psi4, default
}

set PROPERTIES_ORIGIN ["COM"]
properties('MP2/aug-cc-pvtz', properties = ['dipole'])
--------------------------------------------------------------------------

    Molecular point group: c1
  Charge       = 0
  Multiplicity = 1
  Basis Set: AUG-CC-PVTZ
    Blend: AUG-CC-PVTZ
  Basis Set: (AUG-CC-PVTZ AUX)
    Blend: AUG-CC-PVTZ-JKFIT

    Orbital Energies [Eh]
    ---------------------

    Doubly Occupied:

       1A    -20.615621     2A    -20.552747     3A    -11.390360
       4A    -11.253805     5A    -11.236995     6A    -11.235349
       7A    -11.230091     8A    -11.215641     9A     -1.458535
      10A     -1.358077    11A     -1.100462    12A     -1.045458
      13A     -0.957567    14A     -0.871257    15A     -0.804445
      16A     -0.742677    17A     -0.703088    18A     -0.682230
      19A     -0.653694    20A     -0.626024    21A     -0.612804
      22A     -0.598955    23A     -0.581378    24A     -0.551338
      25A     -0.528367    26A     -0.499903    27A     -0.490197
      28A     -0.487224    29A     -0.481899    30A     -0.455513
      31A     -0.347805

  @DF-RHF Final Energy:  -382.89995407920765

   => Energetics <=

    Nuclear Repulsion Energy =            354.6658460150009091
    One-Electron Energy =               -1224.3925880706165117
    Two-Electron Energy =                 486.8267879764080135
    Total Energy =                       -382.8999540792076459
  Basis Set: (AUG-CC-PVTZ AUX)
    Blend: AUG-CC-PVTZ-RI
    Molecular point group: c1

    Geometry (in Angstrom), charge = 0, multiplicity = 1:

       Center              X                  Y                   Z               Mass
    ------------   -----------------  -----------------  -----------------  -----------------
         O            3.151757015927     0.381859314871     0.010629321784    15.994914619570
         O            1.724252015927    -1.369431685129    -0.207631678216    15.994914619570
         C           -2.914766984073     0.342548314871    -0.503879678216    12.000000000000
         C           -1.512217684073     0.867024414871    -0.393734078216    12.000000000000
         C            0.860128015927     0.818394314871     0.411952321784    12.000000000000
         C           -0.523004984073     0.257062314871     0.324782321784    12.000000000000
         C           -3.246063984073    -0.887543685129     0.334493321784    12.000000000000
         C            1.912328015927    -0.190787685129     0.025505321784    12.000000000000
         H           -3.550061384073     1.191905114871    -0.213055678216     1.007825032230
         H           -3.145968984073     0.138097314871    -1.561614678216     1.007825032230
         H           -1.253721984073     1.713892314871    -0.994987678216     1.007825032230
         H            0.980377015927     1.708203314871    -0.222834678216     1.007825032230
         H            1.098842015927     1.147986314871     1.431268321784     1.007825032230
         H           -0.711487984073    -0.649551685129     0.901650321784     1.007825032230
         H           -4.294053984073    -1.167650685129     0.210676321784     1.007825032230
         H           -2.629810984073    -1.742046685129     0.037159321784     1.007825032230
         H           -3.072343984073    -0.694899685129     1.398438321784     1.007825032230
         H            3.770276015927    -0.340391685129    -0.231011678216     1.007825032230

  Basis Set: AUG-CC-PVTZ
    Blend: AUG-CC-PVTZ
  Basis Set: (AUG-CC-PVTZ AUX)
    Blend: AUG-CC-PVTZ-JKFIT
	 Reference Energy          =    -382.8999540792076459 [Eh]
	 Singles Energy            =      -0.0000000000000000 [Eh]
	 Same-Spin Energy          =      -0.3834114619187362 [Eh]
	 Opposite-Spin Energy      =      -1.2552440253871395 [Eh]
	 Correlation Energy        =      -1.6386554873058756 [Eh]
	 Total Energy              =    -384.5386095665135144 [Eh]

	 ================> DF-SCS-MP2 Energies <==================
	-----------------------------------------------------------
	 SCS Same-Spin Scale       =       0.3333333333333333 [-]
	 SCS Opposite-Spin Scale   =       1.2000000000000000 [-]
	 SCS Same-Spin Energy      =      -0.1278038206395787 [Eh]
	 SCS Opposite-Spin Energy  =      -1.5062928304645673 [Eh]
	 SCS Correlation Energy    =      -1.6340966511041461 [Eh]
	 SCS Total Energy          =    -384.5340507303117761 [Eh]
	-----------------------------------------------------------

  Dipole Moment: [D]
     X:    -0.1699      Y:     1.3708      Z:     0.1689     Total:     1.3916

*** Psi4 exiting successfully. Buy a developer a beer!
