                               Psi4 1.3.2 release

  ==> Input File <==

--------------------------------------------------------------------------
#psi4
#
memory 32 gb

molecule  {
0 1
  O        3.1501630     0.3869830     0.0122970
  O        1.7226580    -1.3643080    -0.2059640
  C       -2.9163610     0.3476720    -0.5022120
  C       -1.5003388     0.8370651    -0.4035850
  C        0.8585340     0.8235180     0.4136200
  C       -0.5245990     0.2621860     0.3264500
  C       -3.2476580    -0.8824200     0.3361610
  C        1.9107340    -0.1856640     0.0271730
  H       -3.5749145     1.1805990    -0.2156384
  H       -3.1475630     0.1432210    -1.5599470
  H       -1.2553160     1.7190160    -0.9933200
  H        0.9787830     1.7133270    -0.2211670
  H        1.0972480     1.1531100     1.4329360
  H       -0.7130820    -0.6444280     0.9033180
  H       -4.2956480    -1.1625270     0.2123440
  H       -2.6314050    -1.7369230     0.0388270
  H       -3.0739380    -0.6897760     1.4001060
  H        3.7686820    -0.3352680    -0.2293440
units angstrom
no_reorient  #important for SAPT in psi4, default
symmetry c1  #important for SAPT in psi4, default
}

set PROPERTIES_ORIGIN ["COM"]
properties('MP2/aug-cc-pvtz', properties = ['dipole'])
--------------------------------------------------------------------------

    Molecular point group: c1
  Charge       = 0
  Multiplicity = 1
  Basis Set: AUG-CC-PVTZ
    Blend: AUG-CC-PVTZ
  Basis Set: (AUG-CC-PVTZ AUX)
    Blend: AUG-CC-PVTZ-JKFIT

    Orbital Energies [Eh]
    ---------------------

    Doubly Occupied:

       1A    -20.615702     2A    -20.552774     3A    -11.390455
       4A    -11.254131     5A    -11.235806     6A    -11.233037
       7A    -11.230079     8A    -11.214981     9A     -1.458599
      10A     -1.358117    11A     -1.102449    12A     -1.045474
      13A     -0.959547    14A     -0.870500    15A     -0.805563
      16A     -0.739999    17A     -0.702983    18A     -0.682319
      19A     -0.654084    20A     -0.626124    21A     -0.612324
      22A     -0.599089    23A     -0.582041    24A     -0.552298
      25A     -0.528076    26A     -0.498518    27A     -0.490500
      28A     -0.485718    29A     -0.481240    30A     -0.455730
      31A     -0.352518

  @DF-RHF Final Energy:  -382.90277199528549

   => Energetics <=

    Nuclear Repulsion Energy =            354.9741012261038122
    One-Electron Energy =               -1225.0121925312580515
    Two-Electron Energy =                 487.1353193098687484
    Total Energy =                       -382.9027719952854909
  Basis Set: (AUG-CC-PVTZ AUX)
    Blend: AUG-CC-PVTZ-RI
    Molecular point group: c1

    Geometry (in Angstrom), charge = 0, multiplicity = 1:

       Center              X                  Y                   Z               Mass
    ------------   -----------------  -----------------  -----------------  -----------------
         O            3.150545163344     0.385695220283     0.011878635879    15.994914619570
         O            1.723040163344    -1.365595779717    -0.206382364121    15.994914619570
         C           -2.915978836656     0.346384220283    -0.502630364121    12.000000000000
         C           -1.499956636656     0.835777320283    -0.404003364121    12.000000000000
         C            0.858916163344     0.822230220283     0.413201635879    12.000000000000
         C           -0.524216836656     0.260898220283     0.326031635879    12.000000000000
         C           -3.247275836656    -0.883707779717     0.335742635879    12.000000000000
         C            1.911116163344    -0.186951779717     0.026754635879    12.000000000000
         H           -3.574532336656     1.179311220283    -0.216056764121     1.007825032230
         H           -3.147180836656     0.141933220283    -1.560365364121     1.007825032230
         H           -1.254933836656     1.717728220283    -0.993738364121     1.007825032230
         H            0.979165163344     1.712039220283    -0.221585364121     1.007825032230
         H            1.097630163344     1.151822220283     1.432517635879     1.007825032230
         H           -0.712699836656    -0.645715779717     0.902899635879     1.007825032230
         H           -4.295265836656    -1.163814779717     0.211925635879     1.007825032230
         H           -2.631022836656    -1.738210779717     0.038408635879     1.007825032230
         H           -3.073555836656    -0.691063779717     1.399687635879     1.007825032230
         H            3.769064163344    -0.336555779717    -0.229762364121     1.007825032230

  Basis Set: AUG-CC-PVTZ
    Blend: AUG-CC-PVTZ
  Basis Set: (AUG-CC-PVTZ AUX)
    Blend: AUG-CC-PVTZ-JKFIT
	 Reference Energy          =    -382.9027719952854909 [Eh]
	 Singles Energy            =      -0.0000000000000000 [Eh]
	 Same-Spin Energy          =      -0.3831850020861161 [Eh]
	 Opposite-Spin Energy      =      -1.2546619733525697 [Eh]
	 Correlation Energy        =      -1.6378469754386857 [Eh]
	 Total Energy              =    -384.5406189707241538 [Eh]

	 ================> DF-SCS-MP2 Energies <==================
	-----------------------------------------------------------
	 SCS Same-Spin Scale       =       0.3333333333333333 [-]
	 SCS Opposite-Spin Scale   =       1.2000000000000000 [-]
	 SCS Same-Spin Energy      =      -0.1277283340287053 [Eh]
	 SCS Opposite-Spin Energy  =      -1.5055943680230837 [Eh]
	 SCS Correlation Energy    =      -1.6333227020517891 [Eh]
	 SCS Total Energy          =    -384.5360946973372620 [Eh]
	-----------------------------------------------------------

  Dipole Moment: [D]
     X:    -0.1765      Y:     1.3869      Z:     0.1967     Total:     1.4118

*** Psi4 exiting successfully. Buy a developer a beer!
