                               Psi4 1.3.2 release

  ==> Input File <==

--------------------------------------------------------------------------
#psi4
#
memory 32 gb

molecule  {
0 1
  O        3.1501630     0.3869830     0.0122970
  O        1.7226580    -1.3643080    -0.2059640
  C       -2.9163610     0.3476720    -0.5022120
  C       -1.4960630     0.8252950    -0.4074400
  C        0.8585340     0.8235180     0.4136200
  C       -0.4521789     0.2202077     0.3811596
  C       -3.2476580    -0.8824200     0.3361610
  C        1.9107340    -0.1856640     0.0271730
  H       -3.5825680     1.1749950    -0.2170990
  H       -3.1475630     0.1432210    -1.5599470
  H       -1.2553160     1.7190160    -0.9933200
  H        0.9787830     1.7133270    -0.2211670
  H        1.0972480     1.1531100     1.4329360
  H       -0.7130820    -0.6444280     0.9033180
  H       -4.2956480    -1.1625270     0.2123440
  H       -2.6314050    -1.7369230     0.0388270
  H       -3.0739380    -0.6897760     1.4001060
  H        3.7686820    -0.3352680    -0.2293440
units angstrom
no_reorient  #important for SAPT in psi4, default
symmetry c1  #important for SAPT in psi4, default
}

set PROPERTIES_ORIGIN ["COM"]
properties('MP2/aug-cc-pvtz', properties = ['dipole'])
--------------------------------------------------------------------------

    Molecular point group: c1
  Charge       = 0
  Multiplicity = 1
  Basis Set: AUG-CC-PVTZ
    Blend: AUG-CC-PVTZ
  Basis Set: (AUG-CC-PVTZ AUX)
    Blend: AUG-CC-PVTZ-JKFIT

    Orbital Energies [Eh]
    ---------------------

    Doubly Occupied:

       1A    -20.615308     2A    -20.553115     3A    -11.389759
       4A    -11.252878     5A    -11.248929     6A    -11.238546
       7A    -11.231254     8A    -11.215348     9A     -1.458598
      10A     -1.358389    11A     -1.100564    12A     -1.050002
      13A     -0.947326    14A     -0.873671    15A     -0.802977
      16A     -0.748283    17A     -0.703907    18A     -0.684081
      19A     -0.655135    20A     -0.627283    21A     -0.611984
      22A     -0.594832    23A     -0.581895    24A     -0.553500
      25A     -0.540108    26A     -0.498106    27A     -0.491798
      28A     -0.484949    29A     -0.482511    30A     -0.456124
      31A     -0.330841

  @DF-RHF Final Energy:  -382.88376595435506

   => Energetics <=

    Nuclear Repulsion Energy =            354.8063353502579957
    One-Electron Energy =               -1224.6161983260844863
    Two-Electron Energy =                 486.9260970214714348
    Total Energy =                       -382.8837659543550558
  Basis Set: (AUG-CC-PVTZ AUX)
    Blend: AUG-CC-PVTZ-RI
    Molecular point group: c1

    Geometry (in Angstrom), charge = 0, multiplicity = 1:

       Center              X                  Y                   Z               Mass
    ------------   -----------------  -----------------  -----------------  -----------------
         O            3.142544350017     0.391399082871     0.006541619834    15.994914619570
         O            1.715039350017    -1.359891917129    -0.211719380166    15.994914619570
         C           -2.923979649983     0.352088082871    -0.507967380166    12.000000000000
         C           -1.503681649983     0.829711082871    -0.413195380166    12.000000000000
         C            0.850915350017     0.827934082871     0.407864619834    12.000000000000
         C           -0.459797549983     0.224623782871     0.375404219834    12.000000000000
         C           -3.255276649983    -0.878003917129     0.330405619834    12.000000000000
         C            1.903115350017    -0.181247917129     0.021417619834    12.000000000000
         H           -3.590186649983     1.179411082871    -0.222854380166     1.007825032230
         H           -3.155181649983     0.147637082871    -1.565702380166     1.007825032230
         H           -1.262934649983     1.723432082871    -0.999075380166     1.007825032230
         H            0.971164350017     1.717743082871    -0.226922380166     1.007825032230
         H            1.089629350017     1.157526082871     1.427180619834     1.007825032230
         H           -0.720700649983    -0.640011917129     0.897562619834     1.007825032230
         H           -4.303266649983    -1.158110917129     0.206588619834     1.007825032230
         H           -2.639023649983    -1.732506917129     0.033071619834     1.007825032230
         H           -3.081556649983    -0.685359917129     1.394350619834     1.007825032230
         H            3.761063350017    -0.330851917129    -0.235099380166     1.007825032230

  Basis Set: AUG-CC-PVTZ
    Blend: AUG-CC-PVTZ
  Basis Set: (AUG-CC-PVTZ AUX)
    Blend: AUG-CC-PVTZ-JKFIT
	 Reference Energy          =    -382.8837659543550558 [Eh]
	 Singles Energy            =      -0.0000000000000000 [Eh]
	 Same-Spin Energy          =      -0.3849373564995541 [Eh]
	 Opposite-Spin Energy      =      -1.2582513636167347 [Eh]
	 Correlation Energy        =      -1.6431887201162889 [Eh]
	 Total Energy              =    -384.5269546744713693 [Eh]

	 ================> DF-SCS-MP2 Energies <==================
	-----------------------------------------------------------
	 SCS Same-Spin Scale       =       0.3333333333333333 [-]
	 SCS Opposite-Spin Scale   =       1.2000000000000000 [-]
	 SCS Same-Spin Energy      =      -0.1283124521665180 [Eh]
	 SCS Opposite-Spin Energy  =      -1.5099016363400817 [Eh]
	 SCS Correlation Energy    =      -1.6382140885065997 [Eh]
	 SCS Total Energy          =    -384.5219800428616281 [Eh]
	-----------------------------------------------------------

  Dipole Moment: [D]
     X:    -0.1661      Y:     1.3835      Z:     0.2098     Total:     1.4091

*** Psi4 exiting successfully. Buy a developer a beer!
