                               Psi4 1.3.2 release

  ==> Input File <==

--------------------------------------------------------------------------
#psi4
#
memory 32 gb

molecule  {
0 1
  O        3.1501630     0.3869830     0.0122970
  O        1.7226580    -1.3643080    -0.2059640
  C       -2.9163610     0.3476720    -0.5022120
  C       -1.4960630     0.8252950    -0.4074400
  C        0.8585340     0.8235180     0.4136200
  C       -0.5294375     0.2736499     0.3303780
  C       -3.2476580    -0.8824200     0.3361610
  C        1.9200891    -0.1766767     0.0293989
  H       -3.5825680     1.1749950    -0.2170990
  H       -3.1475630     0.1432210    -1.5599470
  H       -1.2553160     1.7190160    -0.9933200
  H        0.9787830     1.7133270    -0.2211670
  H        1.0972480     1.1531100     1.4329360
  H       -0.7130820    -0.6444280     0.9033180
  H       -4.2956480    -1.1625270     0.2123440
  H       -2.6314050    -1.7369230     0.0388270
  H       -3.0739380    -0.6897760     1.4001060
  H        3.7686820    -0.3352680    -0.2293440
units angstrom
no_reorient  #important for SAPT in psi4, default
symmetry c1  #important for SAPT in psi4, default
}

set PROPERTIES_ORIGIN ["COM"]
properties('MP2/aug-cc-pvtz', properties = ['dipole'])
--------------------------------------------------------------------------

    Molecular point group: c1
  Charge       = 0
  Multiplicity = 1
  Basis Set: AUG-CC-PVTZ
    Blend: AUG-CC-PVTZ
  Basis Set: (AUG-CC-PVTZ AUX)
    Blend: AUG-CC-PVTZ-JKFIT

    Orbital Energies [Eh]
    ---------------------

    Doubly Occupied:

       1A    -20.619528     2A    -20.550382     3A    -11.391462
       4A    -11.254301     5A    -11.234537     6A    -11.231852
       7A    -11.229954     8A    -11.214496     9A     -1.461671
      10A     -1.354193    11A     -1.103479    12A     -1.045338
      13A     -0.961448    14A     -0.870782    15A     -0.809849
      16A     -0.737626    17A     -0.703463    18A     -0.682857
      19A     -0.655223    20A     -0.626838    21A     -0.611975
      22A     -0.598959    23A     -0.580656    24A     -0.553748
      25A     -0.526730    26A     -0.498028    27A     -0.491403
      28A     -0.482373    29A     -0.477989    30A     -0.454760
      31A     -0.355311

  @DF-RHF Final Energy:  -382.90264450313850

   => Energetics <=

    Nuclear Repulsion Energy =            355.0188363336347379
    One-Electron Energy =               -1225.1005418259799171
    Two-Electron Energy =                 487.1790609892067323
    Total Energy =                       -382.9026445031385038
  Basis Set: (AUG-CC-PVTZ AUX)
    Blend: AUG-CC-PVTZ-RI
    Molecular point group: c1

    Geometry (in Angstrom), charge = 0, multiplicity = 1:

       Center              X                  Y                   Z               Mass
    ------------   -----------------  -----------------  -----------------  -----------------
         O            3.149687820856     0.384831478657     0.011649695663    15.994914619570
         O            1.722182820856    -1.366459521343    -0.206611304337    15.994914619570
         C           -2.916836179144     0.345520478657    -0.502859304337    12.000000000000
         C           -1.496538179144     0.823143478657    -0.408087304337    12.000000000000
         C            0.858058820856     0.821366478657     0.412972695663    12.000000000000
         C           -0.529912679144     0.271498378657     0.329730695663    12.000000000000
         C           -3.248133179144    -0.884571521343     0.335513695663    12.000000000000
         C            1.919613920856    -0.178828221343     0.028751595663    12.000000000000
         H           -3.583043179144     1.172843478657    -0.217746304337     1.007825032230
         H           -3.148038179144     0.141069478657    -1.560594304337     1.007825032230
         H           -1.255791179144     1.716864478657    -0.993967304337     1.007825032230
         H            0.978307820856     1.711175478657    -0.221814304337     1.007825032230
         H            1.096772820856     1.150958478657     1.432288695663     1.007825032230
         H           -0.713557179144    -0.646579521343     0.902670695663     1.007825032230
         H           -4.296123179144    -1.164678521343     0.211696695663     1.007825032230
         H           -2.631880179144    -1.739074521343     0.038179695663     1.007825032230
         H           -3.074413179144    -0.691927521343     1.399458695663     1.007825032230
         H            3.768206820856    -0.337419521343    -0.229991304337     1.007825032230

  Basis Set: AUG-CC-PVTZ
    Blend: AUG-CC-PVTZ
  Basis Set: (AUG-CC-PVTZ AUX)
    Blend: AUG-CC-PVTZ-JKFIT
	 Reference Energy          =    -382.9026445031385038 [Eh]
	 Singles Energy            =      -0.0000000000000000 [Eh]
	 Same-Spin Energy          =      -0.3832073017215935 [Eh]
	 Opposite-Spin Energy      =      -1.2545518392124293 [Eh]
	 Correlation Energy        =      -1.6377591409340226 [Eh]
	 Total Energy              =    -384.5404036440725122 [Eh]

	 ================> DF-SCS-MP2 Energies <==================
	-----------------------------------------------------------
	 SCS Same-Spin Scale       =       0.3333333333333333 [-]
	 SCS Opposite-Spin Scale   =       1.2000000000000000 [-]
	 SCS Same-Spin Energy      =      -0.1277357672405312 [Eh]
	 SCS Opposite-Spin Energy  =      -1.5054622070549151 [Eh]
	 SCS Correlation Energy    =      -1.6331979742954461 [Eh]
	 SCS Total Energy          =    -384.5358424774339596 [Eh]
	-----------------------------------------------------------

  Dipole Moment: [D]
     X:    -0.0861      Y:     1.4540      Z:     0.2041     Total:     1.4707

*** Psi4 exiting successfully. Buy a developer a beer!
