                               Psi4 1.3.2 release

  ==> Input File <==

--------------------------------------------------------------------------
#psi4
#
memory 32 gb

molecule  {
0 1
  O        3.1501630     0.3869830     0.0122970
  O        1.7226580    -1.3643080    -0.2059640
  C       -2.9163610     0.3476720    -0.5022120
  C       -1.4960630     0.8252950    -0.4074400
  C        0.8585340     0.8235180     0.4136200
  C       -0.5245990     0.2621860     0.3264500
  C       -3.2476580    -0.8824200     0.3361610
  C        1.9059754    -0.1751624     0.0301810
  H       -3.5825680     1.1749950    -0.2170990
  H       -3.1475630     0.1432210    -1.5599470
  H       -1.2553160     1.7190160    -0.9933200
  H        0.9787830     1.7133270    -0.2211670
  H        1.0972480     1.1531100     1.4329360
  H       -0.7130820    -0.6444280     0.9033180
  H       -4.2956480    -1.1625270     0.2123440
  H       -2.6314050    -1.7369230     0.0388270
  H       -3.0739380    -0.6897760     1.4001060
  H        3.7752306    -0.3297747    -0.2288492
units angstrom
no_reorient  #important for SAPT in psi4, default
symmetry c1  #important for SAPT in psi4, default
}

set PROPERTIES_ORIGIN ["COM"]
properties('MP2/aug-cc-pvtz', properties = ['dipole'])
--------------------------------------------------------------------------

    Molecular point group: c1
  Charge       = 0
  Multiplicity = 1
  Basis Set: AUG-CC-PVTZ
    Blend: AUG-CC-PVTZ
  Basis Set: (AUG-CC-PVTZ AUX)
    Blend: AUG-CC-PVTZ-JKFIT

    Orbital Energies [Eh]
    ---------------------

    Doubly Occupied:

       1A    -20.615679     2A    -20.551243     3A    -11.391539
       4A    -11.254912     5A    -11.235999     6A    -11.232896
       7A    -11.230341     8A    -11.214900     9A     -1.456031
      10A     -1.352488    11A     -1.104299    12A     -1.047268
      13A     -0.961820    14A     -0.871033    15A     -0.807112
      16A     -0.739594    17A     -0.701179    18A     -0.681911
      19A     -0.654443    20A     -0.626535    21A     -0.612271
      22A     -0.598059    23A     -0.581047    24A     -0.553169
      25A     -0.528493    26A     -0.498370    27A     -0.491491
      28A     -0.483524    29A     -0.478394    30A     -0.455460
      31A     -0.354699

  @DF-RHF Final Energy:  -382.90202420463709

   => Energetics <=

    Nuclear Repulsion Energy =            355.0336169073666497
    One-Electron Energy =               -1225.1388817438266869
    Two-Electron Energy =                 487.2032406318229505
    Total Energy =                       -382.9020242046370868
  Basis Set: (AUG-CC-PVTZ AUX)
    Blend: AUG-CC-PVTZ-RI
    Molecular point group: c1

    Geometry (in Angstrom), charge = 0, multiplicity = 1:

       Center              X                  Y                   Z               Mass
    ------------   -----------------  -----------------  -----------------  -----------------
         O            3.150605716182     0.385829644973     0.011976273688    15.994914619570
         O            1.723100716182    -1.365461355027    -0.206284726312    15.994914619570
         C           -2.915918283818     0.346518644973    -0.502532726312    12.000000000000
         C           -1.495620283818     0.824141644973    -0.407760726312    12.000000000000
         C            0.858976716182     0.822364644973     0.413299273688    12.000000000000
         C           -0.524156283818     0.261032644973     0.326129273688    12.000000000000
         C           -3.247215283818    -0.883573355027     0.335840273688    12.000000000000
         C            1.906418116182    -0.176315755027     0.029860273688    12.000000000000
         H           -3.582125283818     1.173841644973    -0.217419726312     1.007825032230
         H           -3.147120283818     0.142067644973    -1.560267726312     1.007825032230
         H           -1.254873283818     1.717862644973    -0.993640726312     1.007825032230
         H            0.979225716182     1.712173644973    -0.221487726312     1.007825032230
         H            1.097690716182     1.151956644973     1.432615273688     1.007825032230
         H           -0.712639283818    -0.645581355027     0.902997273688     1.007825032230
         H           -4.295205283818    -1.163680355027     0.212023273688     1.007825032230
         H           -2.630962283818    -1.738076355027     0.038506273688     1.007825032230
         H           -3.073495283818    -0.690929355027     1.399785273688     1.007825032230
         H            3.775673316182    -0.330928055027    -0.229169926312     1.007825032230

  Basis Set: AUG-CC-PVTZ
    Blend: AUG-CC-PVTZ
  Basis Set: (AUG-CC-PVTZ AUX)
    Blend: AUG-CC-PVTZ-JKFIT
	 Reference Energy          =    -382.9020242046370868 [Eh]
	 Singles Energy            =      -0.0000000000000000 [Eh]
	 Same-Spin Energy          =      -0.3833593908880977 [Eh]
	 Opposite-Spin Energy      =      -1.2549628814455849 [Eh]
	 Correlation Energy        =      -1.6383222723336825 [Eh]
	 Total Energy              =    -384.5403464769707966 [Eh]

	 ================> DF-SCS-MP2 Energies <==================
	-----------------------------------------------------------
	 SCS Same-Spin Scale       =       0.3333333333333333 [-]
	 SCS Opposite-Spin Scale   =       1.2000000000000000 [-]
	 SCS Same-Spin Energy      =      -0.1277864636293659 [Eh]
	 SCS Opposite-Spin Energy  =      -1.5059554577347019 [Eh]
	 SCS Correlation Energy    =      -1.6337419213640678 [Eh]
	 SCS Total Energy          =    -384.5357661260011355 [Eh]
	-----------------------------------------------------------

  Dipole Moment: [D]
     X:    -0.1955      Y:     1.4557      Z:     0.2217     Total:     1.4854

*** Psi4 exiting successfully. Buy a developer a beer!
