                               Psi4 1.3.2 release

  ==> Input File <==

--------------------------------------------------------------------------
#psi4
#
memory 32 gb

molecule  {
0 1
  O        3.1549448     0.3764365     0.0094893
  O        1.7330865    -1.3656374    -0.2074147
  C       -2.9163610     0.3476720    -0.5022120
  C       -1.4960630     0.8252950    -0.4074400
  C        0.8585340     0.8235180     0.4136200
  C       -0.5245990     0.2621860     0.3264500
  C       -3.2476580    -0.8824200     0.3361610
  C        1.9107340    -0.1856640     0.0271730
  H       -3.5825680     1.1749950    -0.2170990
  H       -3.1475630     0.1432210    -1.5599470
  H       -1.2553160     1.7190160    -0.9933200
  H        0.9787830     1.7133270    -0.2211670
  H        1.0972480     1.1531100     1.4329360
  H       -0.7130820    -0.6444280     0.9033180
  H       -4.2956480    -1.1625270     0.2123440
  H       -2.6314050    -1.7369230     0.0388270
  H       -3.0739380    -0.6897760     1.4001060
  H        3.7686820    -0.3352680    -0.2293440
units angstrom
no_reorient  #important for SAPT in psi4, default
symmetry c1  #important for SAPT in psi4, default
}

set PROPERTIES_ORIGIN ["COM"]
properties('MP2/aug-cc-pvtz', properties = ['dipole'])
--------------------------------------------------------------------------

    Molecular point group: c1
  Charge       = 0
  Multiplicity = 1
  Basis Set: AUG-CC-PVTZ
    Blend: AUG-CC-PVTZ
  Basis Set: (AUG-CC-PVTZ AUX)
    Blend: AUG-CC-PVTZ-JKFIT

    Orbital Energies [Eh]
    ---------------------

    Doubly Occupied:

       1A    -20.613266     2A    -20.552040     3A    -11.390412
       4A    -11.255364     5A    -11.236088     6A    -11.232888
       7A    -11.230431     8A    -11.215027     9A     -1.459662
      10A     -1.357372    11A     -1.103762    12A     -1.046151
      13A     -0.960895    14A     -0.870975    15A     -0.808069
      16A     -0.739618    17A     -0.702741    18A     -0.682620
      19A     -0.654268    20A     -0.626763    21A     -0.612423
      22A     -0.599001    23A     -0.582337    24A     -0.553207
      25A     -0.528526    26A     -0.498498    27A     -0.491645
      28A     -0.484526    29A     -0.480219    30A     -0.455725
      31A     -0.354619

  @DF-RHF Final Energy:  -382.90401393938845

   => Energetics <=

    Nuclear Repulsion Energy =            355.0287343818948784
    One-Electron Energy =               -1225.1072240778687501
    Two-Electron Energy =                 487.1744757565854229
    Total Energy =                       -382.9040139393884488
  Basis Set: (AUG-CC-PVTZ AUX)
    Blend: AUG-CC-PVTZ-RI
    Molecular point group: c1

    Geometry (in Angstrom), charge = 0, multiplicity = 1:

       Center              X                  Y                   Z               Mass
    ------------   -----------------  -----------------  -----------------  -----------------
         O            3.152811941946     0.378101720450     0.010086511613    15.994914619570
         O            1.730953641946    -1.363972179550    -0.206817488387    15.994914619570
         C           -2.918493858054     0.349337220450    -0.501614788387    12.000000000000
         C           -1.498195858054     0.826960220450    -0.406842788387    12.000000000000
         C            0.856401141946     0.825183220450     0.414217211613    12.000000000000
         C           -0.526731858054     0.263851220450     0.327047211613    12.000000000000
         C           -3.249790858054    -0.880754779550     0.336758211613    12.000000000000
         C            1.908601141946    -0.183998779550     0.027770211613    12.000000000000
         H           -3.584700858054     1.176660220450    -0.216501788387     1.007825032230
         H           -3.149695858054     0.144886220450    -1.559349788387     1.007825032230
         H           -1.257448858054     1.720681220450    -0.992722788387     1.007825032230
         H            0.976650141946     1.714992220450    -0.220569788387     1.007825032230
         H            1.095115141946     1.154775220450     1.433533211613     1.007825032230
         H           -0.715214858054    -0.642762779550     0.903915211613     1.007825032230
         H           -4.297780858054    -1.160861779550     0.212941211613     1.007825032230
         H           -2.633537858054    -1.735257779550     0.039424211613     1.007825032230
         H           -3.076070858054    -0.688110779550     1.400703211613     1.007825032230
         H            3.766549141946    -0.333602779550    -0.228746788387     1.007825032230

  Basis Set: AUG-CC-PVTZ
    Blend: AUG-CC-PVTZ
  Basis Set: (AUG-CC-PVTZ AUX)
    Blend: AUG-CC-PVTZ-JKFIT
	 Reference Energy          =    -382.9040139393884488 [Eh]
	 Singles Energy            =      -0.0000000000000000 [Eh]
	 Same-Spin Energy          =      -0.3828870281250299 [Eh]
	 Opposite-Spin Energy      =      -1.2539951721784024 [Eh]
	 Correlation Energy        =      -1.6368822003034325 [Eh]
	 Total Energy              =    -384.5408961396918812 [Eh]

	 ================> DF-SCS-MP2 Energies <==================
	-----------------------------------------------------------
	 SCS Same-Spin Scale       =       0.3333333333333333 [-]
	 SCS Opposite-Spin Scale   =       1.2000000000000000 [-]
	 SCS Same-Spin Energy      =      -0.1276290093750100 [Eh]
	 SCS Opposite-Spin Energy  =      -1.5047942066140829 [Eh]
	 SCS Correlation Energy    =      -1.6324232159890930 [Eh]
	 SCS Total Energy          =    -384.5364371553775413 [Eh]
	-----------------------------------------------------------

  Dipole Moment: [D]
     X:    -0.2366      Y:     1.4156      Z:     0.2156     Total:     1.4513

*** Psi4 exiting successfully. Buy a developer a beer!
