                               Psi4 1.4a3.dev225

  ==> Input File <==

--------------------------------------------------------------------------
#psi4
#
memory 32 gb

molecule  {
0 1
  O       -3.2271830    -0.3786580    -0.1569640
  O       -1.8275510     1.3993140    -0.2614160
  C        2.8225670    -0.4310850    -0.3953020
  C        1.4009980    -0.8942070    -0.2419560
  C       -0.9807690    -0.7586230     0.4926230
  C        0.4143070    -0.2269140     0.3719860
  C        3.1298050     0.9339520     0.2103920
  C       -2.0113430     0.2195500    -0.0192140
  H        3.4859920    -1.1868430     0.0468460
  H        3.0699840    -0.4203720    -1.4654230
  H        1.1778760    -1.8495678    -0.6738399
  H       -1.0998220    -1.7054460    -0.0447970
  H       -1.2414610    -0.9681590     1.5400430
  H        0.5929560     0.7502750     0.8121930
  H        4.1791340     1.1958370     0.0500290
  H        2.5131630     1.7137800    -0.2445400
  H        2.9424530     0.9385920     1.2876810
  H       -3.8316340     0.3284440    -0.4642740
units angstrom
no_reorient  #important for SAPT in psi4, default
symmetry c1  #important for SAPT in psi4, default
}

set PROPERTIES_ORIGIN ["COM"]
properties('MP2/aug-cc-pvtz', properties = ['dipole'])
--------------------------------------------------------------------------

    Molecular point group: c1
  Charge       = 0
  Multiplicity = 1
  Basis Set: AUG-CC-PVTZ
    Blend: AUG-CC-PVTZ
  Basis Set: (AUG-CC-PVTZ AUX)
    Blend: AUG-CC-PVTZ-JKFIT

    Orbital Energies [Eh]
    ---------------------

    Doubly Occupied:

       1A    -20.616425     2A    -20.552236     3A    -11.391197
       4A    -11.254754     5A    -11.233113     6A    -11.231397
       7A    -11.229571     8A    -11.214229     9A     -1.460027
      10A     -1.357326    11A     -1.103591    12A     -1.045538
      13A     -0.961259    14A     -0.870785    15A     -0.807550
      16A     -0.742252    17A     -0.703375    18A     -0.682501
      19A     -0.655767    20A     -0.625381    21A     -0.612591
      22A     -0.601345    23A     -0.581552    24A     -0.553914
      25A     -0.528534    26A     -0.498604    27A     -0.492341
      28A     -0.484942    29A     -0.480026    30A     -0.455774
      31A     -0.354380

  @DF-RHF Final Energy:  -382.90391380682036

   => Energetics <=

    Nuclear Repulsion Energy =            355.0853582268617288
    One-Electron Energy =               -1225.2139909332465777
    Two-Electron Energy =                 487.2247188995645502
    Total Energy =                       -382.9039138068203556
  Basis Set: (AUG-CC-PVTZ AUX)
    Blend: AUG-CC-PVTZ-RI
    Molecular point group: c1

    Geometry (in Angstrom), charge = 0, multiplicity = 1:

       Center              X                  Y                   Z               Mass
    ------------   -----------------  -----------------  -----------------  -----------------
         O           -3.124942554612    -0.389392858244    -0.149783353185    15.994914619570
         O           -1.725310554612     1.388579141756    -0.254235353185    15.994914619570
         C            2.924807445388    -0.441819858244    -0.388121353185    12.000000000000
         C            1.503238445388    -0.904941858244    -0.234775353185    12.000000000000
         C           -0.878528554612    -0.769357858244     0.499803646815    12.000000000000
         C            0.516547445388    -0.237648858244     0.379166646815    12.000000000000
         C            3.232045445388     0.923217141756     0.217572646815    12.000000000000
         C           -1.909102554612     0.208815141756    -0.012033353185    12.000000000000
         H            3.588232445388    -1.197577858244     0.054026646815     1.007825032230
         H            3.172224445388    -0.431106858244    -1.458242353185     1.007825032230
         H            1.280116445388    -1.860302658244    -0.666659253185     1.007825032230
         H           -0.997581554612    -1.716180858244    -0.037616353185     1.007825032230
         H           -1.139220554612    -0.978893858244     1.547223646815     1.007825032230
         H            0.695196445388     0.739540141756     0.819373646815     1.007825032230
         H            4.281374445388     1.185102141756     0.057209646815     1.007825032230
         H            2.615403445388     1.703045141756    -0.237359353185     1.007825032230
         H            3.044693445388     0.927857141756     1.294861646815     1.007825032230
         H           -3.729393554612     0.317709141756    -0.457093353185     1.007825032230

  Basis Set: AUG-CC-PVTZ
    Blend: AUG-CC-PVTZ
  Basis Set: (AUG-CC-PVTZ AUX)
    Blend: AUG-CC-PVTZ-JKFIT
	 Reference Energy          =    -382.9039138068203556 [Eh]
	 Singles Energy            =      -0.0000000000000000 [Eh]
	 Same-Spin Energy          =      -0.3829800279478373 [Eh]
	 Opposite-Spin Energy      =      -1.2541029468035827 [Eh]
	 Correlation Energy        =      -1.6370829747514200 [Eh]
	 Total Energy              =    -384.5409967815717778 [Eh]

	 ================> DF-SCS-MP2 Energies <==================
	-----------------------------------------------------------
	 SCS Same-Spin Scale       =       0.3333333333333333 [-]
	 SCS Opposite-Spin Scale   =       1.2000000000000000 [-]
	 SCS Same-Spin Energy      =      -0.1276600093159458 [Eh]
	 SCS Opposite-Spin Energy  =      -1.5049235361642992 [Eh]
	 SCS Correlation Energy    =      -1.6325835454802449 [Eh]
	 SCS Total Energy          =    -384.5364973523006142 [Eh]
	-----------------------------------------------------------

  Dipole Moment: [D]
     X:     0.1596      Y:    -1.4273      Z:     0.2360     Total:     1.4554

*** Psi4 exiting successfully. Buy a developer a beer!
