                               Psi4 1.3.2 release

  ==> Input File <==

--------------------------------------------------------------------------
#psi4
#
memory 32 gb

molecule  {
0 1
  O        3.1501630     0.3869830     0.0122970
  O        1.7226580    -1.3643080    -0.2059640
  C       -2.9044202     0.3085403    -0.4694597
  C       -1.4960630     0.8252950    -0.4074400
  C        0.8585340     0.8235180     0.4136200
  C       -0.5245990     0.2621860     0.3264500
  C       -3.2476580    -0.8824200     0.3361610
  C        1.9107340    -0.1856640     0.0271730
  H       -3.5825680     1.1749950    -0.2170990
  H       -3.1475630     0.1432210    -1.5599470
  H       -1.2193726     1.7169565    -0.9804443
  H        0.9787830     1.7133270    -0.2211670
  H        1.0972480     1.1531100     1.4329360
  H       -0.7130820    -0.6444280     0.9033180
  H       -4.2956480    -1.1625270     0.2123440
  H       -2.6314050    -1.7369230     0.0388270
  H       -3.0739380    -0.6897760     1.4001060
  H        3.7686820    -0.3352680    -0.2293440
units angstrom
no_reorient  #important for SAPT in psi4, default
symmetry c1  #important for SAPT in psi4, default
}

set PROPERTIES_ORIGIN ["COM"]
properties('MP2/aug-cc-pvtz', properties = ['dipole'])
--------------------------------------------------------------------------

    Molecular point group: c1
  Charge       = 0
  Multiplicity = 1
  Basis Set: AUG-CC-PVTZ
    Blend: AUG-CC-PVTZ
  Basis Set: (AUG-CC-PVTZ AUX)
    Blend: AUG-CC-PVTZ-JKFIT

    Orbital Energies [Eh]
    ---------------------

    Doubly Occupied:

       1A    -20.615640     2A    -20.552686     3A    -11.390349
       4A    -11.253966     5A    -11.235744     6A    -11.233633
       7A    -11.230863     8A    -11.213915     9A     -1.458527
      10A     -1.358033    11A     -1.105203    12A     -1.049546
      13A     -0.964589    14A     -0.867148    15A     -0.804325
      16A     -0.738924    17A     -0.702949    18A     -0.681891
      19A     -0.653783    20A     -0.629378    21A     -0.610399
      22A     -0.598551    23A     -0.582151    24A     -0.553630
      25A     -0.534394    26A     -0.494358    27A     -0.488981
      28A     -0.485972    29A     -0.481232    30A     -0.455606
      31A     -0.351861

  @DF-RHF Final Energy:  -382.89907221086168

   => Energetics <=

    Nuclear Repulsion Energy =            355.5889154483956531
    One-Electron Energy =               -1226.2195232353674328
    Two-Electron Energy =                 487.7315355761100477
    Total Energy =                       -382.8990722108616751
  Basis Set: (AUG-CC-PVTZ AUX)
    Blend: AUG-CC-PVTZ-RI
    Molecular point group: c1

    Geometry (in Angstrom), charge = 0, multiplicity = 1:

       Center              X                  Y                   Z               Mass
    ------------   -----------------  -----------------  -----------------  -----------------
         O            3.148589222031     0.391117815890     0.008737774519    15.994914619570
         O            1.721084222031    -1.360173184110    -0.209523225481    15.994914619570
         C           -2.905993977969     0.312675115890    -0.473018925481    12.000000000000
         C           -1.497636777969     0.829429815890    -0.410999225481    12.000000000000
         C            0.856960222031     0.827652815890     0.410060774519    12.000000000000
         C           -0.526172777969     0.266320815890     0.322890774519    12.000000000000
         C           -3.249231777969    -0.878285184110     0.332601774519    12.000000000000
         C            1.909160222031    -0.181529184110     0.023613774519    12.000000000000
         H           -3.584141777969     1.179129815890    -0.220658225481     1.007825032230
         H           -3.149136777969     0.147355815890    -1.563506225481     1.007825032230
         H           -1.220946377969     1.721091315890    -0.984003525481     1.007825032230
         H            0.977209222031     1.717461815890    -0.224726225481     1.007825032230
         H            1.095674222031     1.157244815890     1.429376774519     1.007825032230
         H           -0.714655777969    -0.640293184110     0.899758774519     1.007825032230
         H           -4.297221777969    -1.158392184110     0.208784774519     1.007825032230
         H           -2.632978777969    -1.732788184110     0.035267774519     1.007825032230
         H           -3.075511777969    -0.685641184110     1.396546774519     1.007825032230
         H            3.767108222031    -0.331133184110    -0.232903225481     1.007825032230

  Basis Set: AUG-CC-PVTZ
    Blend: AUG-CC-PVTZ
  Basis Set: (AUG-CC-PVTZ AUX)
    Blend: AUG-CC-PVTZ-JKFIT
	 Reference Energy          =    -382.8990722108616751 [Eh]
	 Singles Energy            =      -0.0000000000000000 [Eh]
	 Same-Spin Energy          =      -0.3836503059181335 [Eh]
	 Opposite-Spin Energy      =      -1.2550303486718903 [Eh]
	 Correlation Energy        =      -1.6386806545900239 [Eh]
	 Total Energy              =    -384.5377528654516937 [Eh]

	 ================> DF-SCS-MP2 Energies <==================
	-----------------------------------------------------------
	 SCS Same-Spin Scale       =       0.3333333333333333 [-]
	 SCS Opposite-Spin Scale   =       1.2000000000000000 [-]
	 SCS Same-Spin Energy      =      -0.1278834353060445 [Eh]
	 SCS Opposite-Spin Energy  =      -1.5060364184062685 [Eh]
	 SCS Correlation Energy    =      -1.6339198537123130 [Eh]
	 SCS Total Energy          =    -384.5329920645739890 [Eh]
	-----------------------------------------------------------

  Dipole Moment: [D]
     X:    -0.1955      Y:     1.3630      Z:     0.2227     Total:     1.3948

*** Psi4 exiting successfully. Buy a developer a beer!
