                               Psi4 1.3.2 release

  ==> Input File <==

--------------------------------------------------------------------------
#psi4
#
memory 32 gb

molecule  {
0 1
  O        3.1195036     0.4493181     0.0291594
  O        1.6604153    -1.3544509    -0.1968911
  C       -2.9163610     0.3476720    -0.5022120
  C       -1.4960630     0.8252950    -0.4074400
  C        0.8585340     0.8235180     0.4136200
  C       -0.5245990     0.2621860     0.3264500
  C       -3.2476580    -0.8824200     0.3361610
  C        1.9107340    -0.1856640     0.0271730
  H       -3.5825680     1.1749950    -0.2170990
  H       -3.1475630     0.1432210    -1.5599470
  H       -1.2553160     1.7190160    -0.9933200
  H        0.9787830     1.7133270    -0.2211670
  H        1.0972480     1.1531100     1.4329360
  H       -0.7130820    -0.6444280     0.9033180
  H       -4.2956480    -1.1625270     0.2123440
  H       -2.6314050    -1.7369230     0.0388270
  H       -3.0739380    -0.6897760     1.4001060
  H        3.7686820    -0.3352680    -0.2293440
units angstrom
no_reorient  #important for SAPT in psi4, default
symmetry c1  #important for SAPT in psi4, default
}

set PROPERTIES_ORIGIN ["COM"]
properties('MP2/aug-cc-pvtz', properties = ['dipole'])
--------------------------------------------------------------------------

    Molecular point group: c1
  Charge       = 0
  Multiplicity = 1
  Basis Set: AUG-CC-PVTZ
    Blend: AUG-CC-PVTZ
  Basis Set: (AUG-CC-PVTZ AUX)
    Blend: AUG-CC-PVTZ-JKFIT

    Orbital Energies [Eh]
    ---------------------

    Doubly Occupied:

       1A    -20.629620     2A    -20.557232     3A    -11.391525
       4A    -11.247672     5A    -11.232164     6A    -11.228942
       7A    -11.228033     8A    -11.213208     9A     -1.453555
      10A     -1.362975    11A     -1.099410    12A     -1.041647
      13A     -0.956349    14A     -0.866359    15A     -0.794740
      16A     -0.736364    17A     -0.703319    18A     -0.681347
      19A     -0.654576    20A     -0.622870    21A     -0.610412
      22A     -0.599566    23A     -0.580582    24A     -0.548963
      25A     -0.524716    26A     -0.496483    27A     -0.490572
      28A     -0.487585    29A     -0.478689    30A     -0.454761
      31A     -0.350693

  @DF-RHF Final Energy:  -382.89013708630432

   => Energetics <=

    Nuclear Repulsion Energy =            355.4389157606190679
    One-Electron Energy =               -1226.0082471219307081
    Two-Electron Energy =                 487.6791942750073758
    Total Energy =                       -382.8901370863043212
  Basis Set: (AUG-CC-PVTZ AUX)
    Blend: AUG-CC-PVTZ-RI
    Molecular point group: c1

    Geometry (in Angstrom), charge = 0, multiplicity = 1:

       Center              X                  Y                   Z               Mass
    ------------   -----------------  -----------------  -----------------  -----------------
         O            3.132530536114     0.439195078841     0.025522774632    15.994914619570
         O            1.673442236114    -1.364573921159    -0.200527725368    15.994914619570
         C           -2.903334063886     0.337548978841    -0.505848625368    12.000000000000
         C           -1.483036063886     0.815171978841    -0.411076625368    12.000000000000
         C            0.871560936114     0.813394978841     0.409983374632    12.000000000000
         C           -0.511572063886     0.252062978841     0.322813374632    12.000000000000
         C           -3.234631063886    -0.892543021159     0.332524374632    12.000000000000
         C            1.923760936114    -0.195787021159     0.023536374632    12.000000000000
         H           -3.569541063886     1.164871978841    -0.220735625368     1.007825032230
         H           -3.134536063886     0.133097978841    -1.563583625368     1.007825032230
         H           -1.242289063886     1.708892978841    -0.996956625368     1.007825032230
         H            0.991809936114     1.703203978841    -0.224803625368     1.007825032230
         H            1.110274936114     1.142986978841     1.429299374632     1.007825032230
         H           -0.700055063886    -0.654551021159     0.899681374632     1.007825032230
         H           -4.282621063886    -1.172650021159     0.208707374632     1.007825032230
         H           -2.618378063886    -1.747046021159     0.035190374632     1.007825032230
         H           -3.060911063886    -0.699899021159     1.396469374632     1.007825032230
         H            3.781708936114    -0.345391021159    -0.232980625368     1.007825032230

  Basis Set: AUG-CC-PVTZ
    Blend: AUG-CC-PVTZ
  Basis Set: (AUG-CC-PVTZ AUX)
    Blend: AUG-CC-PVTZ-JKFIT
	 Reference Energy          =    -382.8901370863043212 [Eh]
	 Singles Energy            =      -0.0000000000000000 [Eh]
	 Same-Spin Energy          =      -0.3847677340173373 [Eh]
	 Opposite-Spin Energy      =      -1.2580978644704843 [Eh]
	 Correlation Energy        =      -1.6428655984878215 [Eh]
	 Total Energy              =    -384.5330026847921658 [Eh]

	 ================> DF-SCS-MP2 Energies <==================
	-----------------------------------------------------------
	 SCS Same-Spin Scale       =       0.3333333333333333 [-]
	 SCS Opposite-Spin Scale   =       1.2000000000000000 [-]
	 SCS Same-Spin Energy      =      -0.1282559113391124 [Eh]
	 SCS Opposite-Spin Energy  =      -1.5097174373645812 [Eh]
	 SCS Correlation Energy    =      -1.6379733487036936 [Eh]
	 SCS Total Energy          =    -384.5281104350079886 [Eh]
	-----------------------------------------------------------

  Dipole Moment: [D]
     X:     0.1631      Y:     1.2448      Z:     0.1544     Total:     1.2648

*** Psi4 exiting successfully. Buy a developer a beer!
