                               Psi4 1.3.2 release

  ==> Input File <==

--------------------------------------------------------------------------
#psi4
#
memory 32 gb

molecule  {
0 1
  O        3.1501630     0.3869830     0.0122970
  O        1.7226580    -1.3643080    -0.2059640
  C       -2.9163610     0.3476720    -0.5022120
  C       -1.4918954     0.8134885    -0.4113022
  C        0.8585340     0.8235180     0.4136200
  C       -0.5245990     0.2621860     0.3264500
  C       -3.2476580    -0.8824200     0.3361610
  C        1.9107340    -0.1856640     0.0271730
  H       -3.5901708     1.1693280    -0.2185813
  H       -3.1475630     0.1432210    -1.5599470
  H       -1.2553160     1.7190160    -0.9933200
  H        0.9787830     1.7133270    -0.2211670
  H        1.0972480     1.1531100     1.4329360
  H       -0.7130820    -0.6444280     0.9033180
  H       -4.2956480    -1.1625270     0.2123440
  H       -2.6314050    -1.7369230     0.0388270
  H       -3.0739380    -0.6897760     1.4001060
  H        3.7686820    -0.3352680    -0.2293440
units angstrom
no_reorient  #important for SAPT in psi4, default
symmetry c1  #important for SAPT in psi4, default
}

set PROPERTIES_ORIGIN ["COM"]
properties('MP2/aug-cc-pvtz', properties = ['dipole'])
--------------------------------------------------------------------------

    Molecular point group: c1
  Charge       = 0
  Multiplicity = 1
  Basis Set: AUG-CC-PVTZ
    Blend: AUG-CC-PVTZ
  Basis Set: (AUG-CC-PVTZ AUX)
    Blend: AUG-CC-PVTZ-JKFIT

    Orbital Energies [Eh]
    ---------------------

    Doubly Occupied:

       1A    -20.615796     2A    -20.552839     3A    -11.390579
       4A    -11.254417     5A    -11.235294     6A    -11.231652
       7A    -11.230102     8A    -11.214549     9A     -1.458685
      10A     -1.358189    11A     -1.103827    12A     -1.045551
      13A     -0.960920    14A     -0.869986    15A     -0.806343
      16A     -0.738265    17A     -0.702935    18A     -0.682439
      19A     -0.654460    20A     -0.626372    21A     -0.611937
      22A     -0.598929    23A     -0.582512    24A     -0.552947
      25A     -0.527917    26A     -0.497964    27A     -0.492093
      28A     -0.484383    29A     -0.478905    30A     -0.455859
      31A     -0.355579

  @DF-RHF Final Energy:  -382.90317261907182

   => Energetics <=

    Nuclear Repulsion Energy =            355.1702861535576403
    One-Electron Energy =               -1225.4024631150498408
    Two-Electron Energy =                 487.3290043424203759
    Total Energy =                       -382.9031726190718246
  Basis Set: (AUG-CC-PVTZ AUX)
    Blend: AUG-CC-PVTZ-RI
    Molecular point group: c1

    Geometry (in Angstrom), charge = 0, multiplicity = 1:

       Center              X                  Y                   Z               Mass
    ------------   -----------------  -----------------  -----------------  -----------------
         O            3.149791708747     0.388275069064     0.012716489279    15.994914619570
         O            1.722286708747    -1.363015930936    -0.205544510721    15.994914619570
         C           -2.916732291253     0.348964069064    -0.501792510721    12.000000000000
         C           -1.492266691253     0.814780569064    -0.410882710721    12.000000000000
         C            0.858162708747     0.824810069064     0.414039489279    12.000000000000
         C           -0.524970291253     0.263478069064     0.326869489279    12.000000000000
         C           -3.248029291253    -0.881127930936     0.336580489279    12.000000000000
         C            1.910362708747    -0.184371930936     0.027592489279    12.000000000000
         H           -3.590542091253     1.170620069064    -0.218161810721     1.007825032230
         H           -3.147934291253     0.144513069064    -1.559527510721     1.007825032230
         H           -1.255687291253     1.720308069064    -0.992900510721     1.007825032230
         H            0.978411708747     1.714619069064    -0.220747510721     1.007825032230
         H            1.096876708747     1.154402069064     1.433355489279     1.007825032230
         H           -0.713453291253    -0.643135930936     0.903737489279     1.007825032230
         H           -4.296019291253    -1.161234930936     0.212763489279     1.007825032230
         H           -2.631776291253    -1.735630930936     0.039246489279     1.007825032230
         H           -3.074309291253    -0.688483930936     1.400525489279     1.007825032230
         H            3.768310708747    -0.333975930936    -0.228924510721     1.007825032230

  Basis Set: AUG-CC-PVTZ
    Blend: AUG-CC-PVTZ
  Basis Set: (AUG-CC-PVTZ AUX)
    Blend: AUG-CC-PVTZ-JKFIT
	 Reference Energy          =    -382.9031726190718246 [Eh]
	 Singles Energy            =      -0.0000000000000000 [Eh]
	 Same-Spin Energy          =      -0.3830940837185910 [Eh]
	 Opposite-Spin Energy      =      -1.2544124225359417 [Eh]
	 Correlation Energy        =      -1.6375065062545326 [Eh]
	 Total Energy              =    -384.5406791253263350 [Eh]

	 ================> DF-SCS-MP2 Energies <==================
	-----------------------------------------------------------
	 SCS Same-Spin Scale       =       0.3333333333333333 [-]
	 SCS Opposite-Spin Scale   =       1.2000000000000000 [-]
	 SCS Same-Spin Energy      =      -0.1276980279061970 [Eh]
	 SCS Opposite-Spin Energy  =      -1.5052949070431298 [Eh]
	 SCS Correlation Energy    =      -1.6329929349493268 [Eh]
	 SCS Total Energy          =    -384.5361655540211245 [Eh]
	-----------------------------------------------------------

  Dipole Moment: [D]
     X:    -0.1783      Y:     1.3947      Z:     0.2172     Total:     1.4228

*** Psi4 exiting successfully. Buy a developer a beer!
