                               Psi4 1.3.2 release

  ==> Input File <==

--------------------------------------------------------------------------
#psi4
#
memory 32 gb

molecule  {
0 1
  O        3.1501630     0.3869830     0.0122970
  O        1.7226580    -1.3643080    -0.2059640
  C       -2.9163610     0.3476720    -0.5022120
  C       -1.4960630     0.8252950    -0.4074400
  C        0.8585340     0.8235180     0.4136200
  C       -0.5041954     0.2167667     0.3108072
  C       -3.2476580    -0.8824200     0.3361610
  C        1.8725197    -0.2208379     0.0185653
  H       -3.5825680     1.1749950    -0.2170990
  H       -3.1475630     0.1432210    -1.5599470
  H       -1.2553160     1.7190160    -0.9933200
  H        0.9787830     1.7133270    -0.2211670
  H        1.0972480     1.1531100     1.4329360
  H       -0.7130820    -0.6444280     0.9033180
  H       -4.2956480    -1.1625270     0.2123440
  H       -2.6314050    -1.7369230     0.0388270
  H       -3.0739380    -0.6897760     1.4001060
  H        3.7686820    -0.3352680    -0.2293440
units angstrom
no_reorient  #important for SAPT in psi4, default
symmetry c1  #important for SAPT in psi4, default
}

set PROPERTIES_ORIGIN ["COM"]
properties('MP2/aug-cc-pvtz', properties = ['dipole'])
--------------------------------------------------------------------------

    Molecular point group: c1
  Charge       = 0
  Multiplicity = 1
  Basis Set: AUG-CC-PVTZ
    Blend: AUG-CC-PVTZ
  Basis Set: (AUG-CC-PVTZ AUX)
    Blend: AUG-CC-PVTZ-JKFIT

    Orbital Energies [Eh]
    ---------------------

    Doubly Occupied:

       1A    -20.599934     2A    -20.562217     3A    -11.386707
       4A    -11.254630     5A    -11.240330     6A    -11.234459
       7A    -11.230882     8A    -11.215960     9A     -1.459951
      10A     -1.361728    11A     -1.102127    12A     -1.046575
      13A     -0.955629    14A     -0.869002    15A     -0.791205
      16A     -0.745564    17A     -0.703068    18A     -0.681861
      19A     -0.652720    20A     -0.624328    21A     -0.612957
      22A     -0.601424    23A     -0.584853    24A     -0.548674
      25A     -0.532756    26A     -0.499158    27A     -0.494597
      28A     -0.490699    29A     -0.486316    30A     -0.456985
      31A     -0.349091

  @DF-RHF Final Energy:  -382.89726431797436

   => Energetics <=

    Nuclear Repulsion Energy =            355.3208246913478092
    One-Electron Energy =               -1225.6834043857888901
    Two-Electron Energy =                 487.4653153764667763
    Total Energy =                       -382.8972643179743613
  Basis Set: (AUG-CC-PVTZ AUX)
    Blend: AUG-CC-PVTZ-RI
    Molecular point group: c1

    Geometry (in Angstrom), charge = 0, multiplicity = 1:

       Center              X                  Y                   Z               Mass
    ------------   -----------------  -----------------  -----------------  -----------------
         O            3.152036660260     0.395461383225     0.014848248680    15.994914619570
         O            1.724531660260    -1.355829616775    -0.203412751320    15.994914619570
         C           -2.914487339740     0.356150383225    -0.499660751320    12.000000000000
         C           -1.494189339740     0.833773383225    -0.404888751320    12.000000000000
         C            0.860407660260     0.831996383225     0.416171248680    12.000000000000
         C           -0.502321739740     0.225245083225     0.313358448680    12.000000000000
         C           -3.245784339740    -0.873941616775     0.338712248680    12.000000000000
         C            1.874393360260    -0.212359516775     0.021116548680    12.000000000000
         H           -3.580694339740     1.183473383225    -0.214547751320     1.007825032230
         H           -3.145689339740     0.151699383225    -1.557395751320     1.007825032230
         H           -1.253442339740     1.727494383225    -0.990768751320     1.007825032230
         H            0.980656660260     1.721805383225    -0.218615751320     1.007825032230
         H            1.099121660260     1.161588383225     1.435487248680     1.007825032230
         H           -0.711208339740    -0.635949616775     0.905869248680     1.007825032230
         H           -4.293774339740    -1.154048616775     0.214895248680     1.007825032230
         H           -2.629531339740    -1.728444616775     0.041378248680     1.007825032230
         H           -3.072064339740    -0.681297616775     1.402657248680     1.007825032230
         H            3.770555660260    -0.326789616775    -0.226792751320     1.007825032230

  Basis Set: AUG-CC-PVTZ
    Blend: AUG-CC-PVTZ
  Basis Set: (AUG-CC-PVTZ AUX)
    Blend: AUG-CC-PVTZ-JKFIT
	 Reference Energy          =    -382.8972643179743613 [Eh]
	 Singles Energy            =      -0.0000000000000000 [Eh]
	 Same-Spin Energy          =      -0.3830568658047651 [Eh]
	 Opposite-Spin Energy      =      -1.2548505172801945 [Eh]
	 Correlation Energy        =      -1.6379073830849595 [Eh]
	 Total Energy              =    -384.5351717010593120 [Eh]

	 ================> DF-SCS-MP2 Energies <==================
	-----------------------------------------------------------
	 SCS Same-Spin Scale       =       0.3333333333333333 [-]
	 SCS Opposite-Spin Scale   =       1.2000000000000000 [-]
	 SCS Same-Spin Energy      =      -0.1276856219349217 [Eh]
	 SCS Opposite-Spin Energy  =      -1.5058206207362332 [Eh]
	 SCS Correlation Energy    =      -1.6335062426711549 [Eh]
	 SCS Total Energy          =    -384.5307705606455215 [Eh]
	-----------------------------------------------------------

  Dipole Moment: [D]
     X:    -0.5716      Y:     1.1429      Z:     0.2149     Total:     1.2958

*** Psi4 exiting successfully. Buy a developer a beer!
