                               Psi4 1.3.2 release

  ==> Input File <==

--------------------------------------------------------------------------
#psi4
#
memory 32 gb

molecule  {
0 1
  O        3.1501630     0.3869830     0.0122970
  O        1.7226580    -1.3643080    -0.2059640
  C       -2.9163610     0.3476720    -0.5022120
  C       -1.4960630     0.8252950    -0.4074400
  C        0.8585340     0.8235180     0.4136200
  C       -0.5245990     0.2621860     0.3264500
  C       -3.2476580    -0.8824200     0.3361610
  C        1.9107340    -0.1856640     0.0271730
  H       -3.5825680     1.1749950    -0.2170990
  H       -3.1475630     0.1432210    -1.5599470
  H       -1.2553160     1.7190160    -0.9933200
  H        0.9787830     1.7133270    -0.2211670
  H        1.0972480     1.1531100     1.4329360
  H       -0.7303584    -0.7275284     0.9561938
  H       -4.2956480    -1.1625270     0.2123440
  H       -2.6314050    -1.7369230     0.0388270
  H       -3.0739380    -0.6897760     1.4001060
  H        3.7686820    -0.3352680    -0.2293440
units angstrom
no_reorient  #important for SAPT in psi4, default
symmetry c1  #important for SAPT in psi4, default
}

set PROPERTIES_ORIGIN ["COM"]
properties('MP2/aug-cc-pvtz', properties = ['dipole'])
--------------------------------------------------------------------------

    Molecular point group: c1
  Charge       = 0
  Multiplicity = 1
  Basis Set: AUG-CC-PVTZ
    Blend: AUG-CC-PVTZ
  Basis Set: (AUG-CC-PVTZ AUX)
    Blend: AUG-CC-PVTZ-JKFIT

    Orbital Energies [Eh]
    ---------------------

    Doubly Occupied:

       1A    -20.615824     2A    -20.552641     3A    -11.390565
       4A    -11.255453     5A    -11.243436     6A    -11.235986
       7A    -11.230193     8A    -11.214393     9A     -1.458643
      10A     -1.358049    11A     -1.101733    12A     -1.045580
      13A     -0.959637    14A     -0.868177    15A     -0.806176
      16A     -0.727729    17A     -0.701472    18A     -0.682575
      19A     -0.654426    20A     -0.626281    21A     -0.612006
      22A     -0.596949    23A     -0.581786    24A     -0.553149
      25A     -0.519968    26A     -0.498050    27A     -0.490931
      28A     -0.483538    29A     -0.476921    30A     -0.455574
      31A     -0.354664

  @DF-RHF Final Energy:  -382.89523816804376

   => Energetics <=

    Nuclear Repulsion Energy =            354.6551022983432517
    One-Electron Energy =               -1224.3956724755428240
    Two-Electron Energy =                 486.8453320091557543
    Total Energy =                       -382.8952381680437611
  Basis Set: (AUG-CC-PVTZ AUX)
    Blend: AUG-CC-PVTZ-RI
    Molecular point group: c1

    Geometry (in Angstrom), charge = 0, multiplicity = 1:

       Center              X                  Y                   Z               Mass
    ------------   -----------------  -----------------  -----------------  -----------------
         O            3.150315610757     0.387717168191     0.011829914750    15.994914619570
         O            1.722810610757    -1.363573831809    -0.206431085250    15.994914619570
         C           -2.916208389243     0.348406168191    -0.502679085250    12.000000000000
         C           -1.495910389243     0.826029168191    -0.407907085250    12.000000000000
         C            0.858686610757     0.824252168191     0.413152914750    12.000000000000
         C           -0.524446389243     0.262920168191     0.325982914750    12.000000000000
         C           -3.247505389243    -0.881685831809     0.335693914750    12.000000000000
         C            1.910886610757    -0.184929831809     0.026705914750    12.000000000000
         H           -3.582415389243     1.175729168191    -0.217566085250     1.007825032230
         H           -3.147410389243     0.143955168191    -1.560414085250     1.007825032230
         H           -1.255163389243     1.719750168191    -0.993787085250     1.007825032230
         H            0.978935610757     1.714061168191    -0.221634085250     1.007825032230
         H            1.097400610757     1.153844168191     1.432468914750     1.007825032230
         H           -0.730205789243    -0.726794231809     0.955726714750     1.007825032230
         H           -4.295495389243    -1.161792831809     0.211876914750     1.007825032230
         H           -2.631252389243    -1.736188831809     0.038359914750     1.007825032230
         H           -3.073785389243    -0.689041831809     1.399638914750     1.007825032230
         H            3.768834610757    -0.334533831809    -0.229811085250     1.007825032230

  Basis Set: AUG-CC-PVTZ
    Blend: AUG-CC-PVTZ
  Basis Set: (AUG-CC-PVTZ AUX)
    Blend: AUG-CC-PVTZ-JKFIT
	 Reference Energy          =    -382.8952381680437611 [Eh]
	 Singles Energy            =      -0.0000000000000000 [Eh]
	 Same-Spin Energy          =      -0.3834693364174043 [Eh]
	 Opposite-Spin Energy      =      -1.2555336181962717 [Eh]
	 Correlation Energy        =      -1.6390029546136762 [Eh]
	 Total Energy              =    -384.5342411226574200 [Eh]

	 ================> DF-SCS-MP2 Energies <==================
	-----------------------------------------------------------
	 SCS Same-Spin Scale       =       0.3333333333333333 [-]
	 SCS Opposite-Spin Scale   =       1.2000000000000000 [-]
	 SCS Same-Spin Energy      =      -0.1278231121391348 [Eh]
	 SCS Opposite-Spin Energy  =      -1.5066403418355261 [Eh]
	 SCS Correlation Energy    =      -1.6344634539746608 [Eh]
	 SCS Total Energy          =    -384.5297016220184219 [Eh]
	-----------------------------------------------------------

  Dipole Moment: [D]
     X:    -0.1630      Y:     1.4079      Z:     0.1905     Total:     1.4301

*** Psi4 exiting successfully. Buy a developer a beer!
