                               Psi4 1.3.2 release

  ==> Input File <==

--------------------------------------------------------------------------
#psi4
#
memory 32 gb

molecule  {
0 1
  O        3.1501630     0.3869830     0.0122970
  O        1.7226580    -1.3643080    -0.2059640
  C       -2.9163610     0.3476720    -0.5022120
  C       -1.4960630     0.8252950    -0.4074400
  C        0.8585340     0.8235180     0.4136200
  C       -0.5245990     0.2621860     0.3264500
  C       -3.2476580    -0.8824200     0.3361610
  C        1.9205340    -0.2065355     0.0211537
  H       -3.5825680     1.1749950    -0.2170990
  H       -3.1475630     0.1432210    -1.5599470
  H       -1.2553160     1.7190160    -0.9933200
  H        0.9787830     1.7133270    -0.2211670
  H        1.0972480     1.1531100     1.4329360
  H       -0.7130820    -0.6444280     0.9033180
  H       -4.2956480    -1.1625270     0.2123440
  H       -2.6314050    -1.7369230     0.0388270
  H       -3.0739380    -0.6897760     1.4001060
  H        3.7554439    -0.3460892    -0.2302783
units angstrom
no_reorient  #important for SAPT in psi4, default
symmetry c1  #important for SAPT in psi4, default
}

set PROPERTIES_ORIGIN ["COM"]
properties('MP2/aug-cc-pvtz', properties = ['dipole'])
--------------------------------------------------------------------------

    Molecular point group: c1
  Charge       = 0
  Multiplicity = 1
  Basis Set: AUG-CC-PVTZ
    Blend: AUG-CC-PVTZ
  Basis Set: (AUG-CC-PVTZ AUX)
    Blend: AUG-CC-PVTZ-JKFIT

    Orbital Energies [Eh]
    ---------------------

    Doubly Occupied:

       1A    -20.615936     2A    -20.555923     3A    -11.388549
       4A    -11.252838     5A    -11.234563     6A    -11.231177
       7A    -11.229567     8A    -11.214483     9A     -1.464629
      10A     -1.368996    11A     -1.100958    12A     -1.042056
      13A     -0.956985    14A     -0.868624    15A     -0.803611
      16A     -0.738210    17A     -0.706832    18A     -0.683854
      19A     -0.654310    20A     -0.625688    21A     -0.611873
      22A     -0.601269    23A     -0.584071    24A     -0.551529
      25A     -0.526915    26A     -0.497883    27A     -0.492217
      28A     -0.489583    29A     -0.480797    30A     -0.455722
      31A     -0.352700

  @DF-RHF Final Energy:  -382.90369554036590

   => Energetics <=

    Nuclear Repulsion Energy =            355.1584532415233184
    One-Electron Energy =               -1225.3596038223638516
    Two-Electron Energy =                 487.2974550404745742
    Total Energy =                       -382.9036955403659022
  Basis Set: (AUG-CC-PVTZ AUX)
    Blend: AUG-CC-PVTZ-RI
    Molecular point group: c1

    Geometry (in Angstrom), charge = 0, multiplicity = 1:

       Center              X                  Y                   Z               Mass
    ------------   -----------------  -----------------  -----------------  -----------------
         O            3.149248967922     0.389274248959     0.012938575177    15.994914619570
         O            1.721743967922    -1.362016751041    -0.205322424823    15.994914619570
         C           -2.917275032078     0.349963248959    -0.501570424823    12.000000000000
         C           -1.496977032078     0.827586248959    -0.406798424823    12.000000000000
         C            0.857619967922     0.825809248959     0.414261575177    12.000000000000
         C           -0.525513032078     0.264477248959     0.327091575177    12.000000000000
         C           -3.248572032078    -0.880128751041     0.336802575177    12.000000000000
         C            1.919619967922    -0.204244251041     0.021795275177    12.000000000000
         H           -3.583482032078     1.177286248959    -0.216457424823     1.007825032230
         H           -3.148477032078     0.145512248959    -1.559305424823     1.007825032230
         H           -1.256230032078     1.721307248959    -0.992678424823     1.007825032230
         H            0.977868967922     1.715618248959    -0.220525424823     1.007825032230
         H            1.096333967922     1.155401248959     1.433577575177     1.007825032230
         H           -0.713996032078    -0.642136751041     0.903959575177     1.007825032230
         H           -4.296562032078    -1.160235751041     0.212985575177     1.007825032230
         H           -2.632319032078    -1.734631751041     0.039468575177     1.007825032230
         H           -3.074852032078    -0.687484751041     1.400747575177     1.007825032230
         H            3.754529867922    -0.343797951041    -0.229636724823     1.007825032230

  Basis Set: AUG-CC-PVTZ
    Blend: AUG-CC-PVTZ
  Basis Set: (AUG-CC-PVTZ AUX)
    Blend: AUG-CC-PVTZ-JKFIT
	 Reference Energy          =    -382.9036955403659022 [Eh]
	 Singles Energy            =      -0.0000000000000000 [Eh]
	 Same-Spin Energy          =      -0.3827365110550836 [Eh]
	 Opposite-Spin Energy      =      -1.2537397299121564 [Eh]
	 Correlation Energy        =      -1.6364762409672400 [Eh]
	 Total Energy              =    -384.5401717813331288 [Eh]

	 ================> DF-SCS-MP2 Energies <==================
	-----------------------------------------------------------
	 SCS Same-Spin Scale       =       0.3333333333333333 [-]
	 SCS Opposite-Spin Scale   =       1.2000000000000000 [-]
	 SCS Same-Spin Energy      =      -0.1275788370183612 [Eh]
	 SCS Opposite-Spin Energy  =      -1.5044876758945878 [Eh]
	 SCS Correlation Energy    =      -1.6320665129129490 [Eh]
	 SCS Total Energy          =    -384.5357620532788587 [Eh]
	-----------------------------------------------------------

  Dipole Moment: [D]
     X:    -0.1392      Y:     1.2596      Z:     0.1762     Total:     1.2795

*** Psi4 exiting successfully. Buy a developer a beer!
