                               Psi4 1.3.2 release

  ==> Input File <==

--------------------------------------------------------------------------
#psi4
#
memory 32 gb

molecule  {
0 1
  O        3.1501630     0.3869830     0.0122970
  O        1.7226580    -1.3643080    -0.2059640
  C       -2.9163610     0.3476720    -0.5022120
  C       -1.4960630     0.8252950    -0.4074400
  C        0.8585340     0.8235180     0.4136200
  C       -0.5245990     0.2621860     0.3264500
  C       -3.2476580    -0.8824200     0.3361610
  C        1.9107340    -0.1856640     0.0271730
  H       -3.5825680     1.1749950    -0.2170990
  H       -3.1475630     0.1432210    -1.5599470
  H       -1.2553160     1.7190160    -0.9933200
  H        0.9897185     1.7942463    -0.2788946
  H        1.0972480     1.1531100     1.4329360
  H       -0.7130820    -0.6444280     0.9033180
  H       -4.2956480    -1.1625270     0.2123440
  H       -2.6314050    -1.7369230     0.0388270
  H       -3.0739380    -0.6897760     1.4001060
  H        3.7686820    -0.3352680    -0.2293440
units angstrom
no_reorient  #important for SAPT in psi4, default
symmetry c1  #important for SAPT in psi4, default
}

set PROPERTIES_ORIGIN ["COM"]
properties('MP2/aug-cc-pvtz', properties = ['dipole'])
--------------------------------------------------------------------------

    Molecular point group: c1
  Charge       = 0
  Multiplicity = 1
  Basis Set: AUG-CC-PVTZ
    Blend: AUG-CC-PVTZ
  Basis Set: (AUG-CC-PVTZ AUX)
    Blend: AUG-CC-PVTZ-JKFIT

    Orbital Energies [Eh]
    ---------------------

    Doubly Occupied:

       1A    -20.615479     2A    -20.553316     3A    -11.391216
       4A    -11.265136     5A    -11.235836     6A    -11.232950
       7A    -11.230218     8A    -11.214961     9A     -1.458638
      10A     -1.358379    11A     -1.101688    12A     -1.042971
      13A     -0.959188    14A     -0.870484    15A     -0.804299
      16A     -0.734762    17A     -0.703076    18A     -0.680972
      19A     -0.652856    20A     -0.623723    21A     -0.612310
      22A     -0.596830    23A     -0.582601    24A     -0.550489
      25A     -0.519752    26A     -0.498366    27A     -0.491396
      28A     -0.484161    29A     -0.480668    30A     -0.455486
      31A     -0.354341

  @DF-RHF Final Energy:  -382.89593340882277

   => Energetics <=

    Nuclear Repulsion Energy =            354.6204250870391661
    One-Electron Energy =               -1224.3196186063341884
    Two-Electron Energy =                 486.8032601104722517
    Total Energy =                       -382.8959334088227706
  Basis Set: (AUG-CC-PVTZ AUX)
    Blend: AUG-CC-PVTZ-RI
    Molecular point group: c1

    Geometry (in Angstrom), charge = 0, multiplicity = 1:

       Center              X                  Y                   Z               Mass
    ------------   -----------------  -----------------  -----------------  -----------------
         O            3.150066350323     0.386268005900     0.012807128319    15.994914619570
         O            1.722561350323    -1.365022994100    -0.205453871681    15.994914619570
         C           -2.916457649677     0.346957005900    -0.501701871681    12.000000000000
         C           -1.496159649677     0.824580005900    -0.406929871681    12.000000000000
         C            0.858437350323     0.822803005900     0.414130128319    12.000000000000
         C           -0.524695649677     0.261471005900     0.326960128319    12.000000000000
         C           -3.247754649677    -0.883134994100     0.336671128319    12.000000000000
         C            1.910637350323    -0.186378994100     0.027683128319    12.000000000000
         H           -3.582664649677     1.174280005900    -0.216588871681     1.007825032230
         H           -3.147659649677     0.142506005900    -1.559436871681     1.007825032230
         H           -1.255412649677     1.718301005900    -0.992809871681     1.007825032230
         H            0.989621850323     1.793531305900    -0.278384471681     1.007825032230
         H            1.097151350323     1.152395005900     1.433446128319     1.007825032230
         H           -0.713178649677    -0.645142994100     0.903828128319     1.007825032230
         H           -4.295744649677    -1.163241994100     0.212854128319     1.007825032230
         H           -2.631501649677    -1.737637994100     0.039337128319     1.007825032230
         H           -3.074034649677    -0.690490994100     1.400616128319     1.007825032230
         H            3.768585350323    -0.335982994100    -0.228833871681     1.007825032230

  Basis Set: AUG-CC-PVTZ
    Blend: AUG-CC-PVTZ
  Basis Set: (AUG-CC-PVTZ AUX)
    Blend: AUG-CC-PVTZ-JKFIT
	 Reference Energy          =    -382.8959334088227706 [Eh]
	 Singles Energy            =      -0.0000000000000000 [Eh]
	 Same-Spin Energy          =      -0.3832990040198589 [Eh]
	 Opposite-Spin Energy      =      -1.2554405416649161 [Eh]
	 Correlation Energy        =      -1.6387395456847751 [Eh]
	 Total Energy              =    -384.5346729545075277 [Eh]

	 ================> DF-SCS-MP2 Energies <==================
	-----------------------------------------------------------
	 SCS Same-Spin Scale       =       0.3333333333333333 [-]
	 SCS Opposite-Spin Scale   =       1.2000000000000000 [-]
	 SCS Same-Spin Energy      =      -0.1277663346732863 [Eh]
	 SCS Opposite-Spin Energy  =      -1.5065286499978994 [Eh]
	 SCS Correlation Energy    =      -1.6342949846711856 [Eh]
	 SCS Total Energy          =    -384.5302283934939283 [Eh]
	-----------------------------------------------------------

  Dipole Moment: [D]
     X:    -0.1968      Y:     1.3623      Z:     0.2141     Total:     1.3930

*** Psi4 exiting successfully. Buy a developer a beer!
