                               Psi4 1.3.2 release

  ==> Input File <==

--------------------------------------------------------------------------
#psi4
#
memory 32 gb

molecule  {
0 1
  O        3.1501630     0.3869830     0.0122970
  O        1.7642263    -1.3687166    -0.2133456
  C       -2.9163610     0.3476720    -0.5022120
  C       -1.4960630     0.8252950    -0.4074400
  C        0.8960682     0.8603555     0.4160317
  C       -0.5245990     0.2621860     0.3264500
  C       -3.2476580    -0.8824200     0.3361610
  C        1.9107340    -0.1856640     0.0271730
  H       -3.5825680     1.1749950    -0.2170990
  H       -3.1475630     0.1432210    -1.5599470
  H       -1.2553160     1.7190160    -0.9933200
  H        0.9787830     1.7133270    -0.2211670
  H        1.0972480     1.1531100     1.4329360
  H       -0.7130820    -0.6444280     0.9033180
  H       -4.2956480    -1.1625270     0.2123440
  H       -2.6314050    -1.7369230     0.0388270
  H       -3.0739380    -0.6897760     1.4001060
  H        3.7686820    -0.3352680    -0.2293440
units angstrom
no_reorient  #important for SAPT in psi4, default
symmetry c1  #important for SAPT in psi4, default
}

set PROPERTIES_ORIGIN ["COM"]
properties('MP2/aug-cc-pvtz', properties = ['dipole'])
--------------------------------------------------------------------------

    Molecular point group: c1
  Charge       = 0
  Multiplicity = 1
  Basis Set: AUG-CC-PVTZ
    Blend: AUG-CC-PVTZ
  Basis Set: (AUG-CC-PVTZ AUX)
    Blend: AUG-CC-PVTZ-JKFIT

    Orbital Energies [Eh]
    ---------------------

    Doubly Occupied:

       1A    -20.611079     2A    -20.553916     3A    -11.390868
       4A    -11.254778     5A    -11.236490     6A    -11.234739
       7A    -11.230342     8A    -11.215097     9A     -1.458775
      10A     -1.355190    11A     -1.100307    12A     -1.045552
      13A     -0.961900    14A     -0.868848    15A     -0.805714
      16A     -0.739946    17A     -0.701594    18A     -0.681021
      19A     -0.657012    20A     -0.624179    21A     -0.612365
      22A     -0.598401    23A     -0.583167    24A     -0.556612
      25A     -0.528261    26A     -0.498540    27A     -0.491184
      28A     -0.484199    29A     -0.478191    30A     -0.456957
      31A     -0.355382

  @DF-RHF Final Energy:  -382.90067229867839

   => Energetics <=

    Nuclear Repulsion Energy =            354.3337658673449369
    One-Electron Energy =               -1223.7276624324099430
    Two-Electron Energy =                 486.4932242663866191
    Total Energy =                       -382.9006722986783871
  Basis Set: (AUG-CC-PVTZ AUX)
    Blend: AUG-CC-PVTZ-RI
    Molecular point group: c1

    Geometry (in Angstrom), charge = 0, multiplicity = 1:

       Center              X                  Y                   Z               Mass
    ------------   -----------------  -----------------  -----------------  -----------------
         O            3.140385546167     0.383725819476     0.013078442972    15.994914619570
         O            1.754448846167    -1.371973780524    -0.212564157028    15.994914619570
         C           -2.926138453833     0.344414819476    -0.501430557028    12.000000000000
         C           -1.505840453833     0.822037819476    -0.406658557028    12.000000000000
         C            0.886290746167     0.857098319476     0.416813142972    12.000000000000
         C           -0.534376453833     0.258928819476     0.327231442972    12.000000000000
         C           -3.257435453833    -0.885677180524     0.336942442972    12.000000000000
         C            1.900956546167    -0.188921180524     0.027954442972    12.000000000000
         H           -3.592345453833     1.171737819476    -0.216317557028     1.007825032230
         H           -3.157340453833     0.139963819476    -1.559165557028     1.007825032230
         H           -1.265093453833     1.715758819476    -0.992538557028     1.007825032230
         H            0.969005546167     1.710069819476    -0.220385557028     1.007825032230
         H            1.087470546167     1.149852819476     1.433717442972     1.007825032230
         H           -0.722859453833    -0.647685180524     0.904099442972     1.007825032230
         H           -4.305425453833    -1.165784180524     0.213125442972     1.007825032230
         H           -2.641182453833    -1.740180180524     0.039608442972     1.007825032230
         H           -3.083715453833    -0.693033180524     1.400887442972     1.007825032230
         H            3.758904546167    -0.338525180524    -0.228562557028     1.007825032230

  Basis Set: AUG-CC-PVTZ
    Blend: AUG-CC-PVTZ
  Basis Set: (AUG-CC-PVTZ AUX)
    Blend: AUG-CC-PVTZ-JKFIT
	 Reference Energy          =    -382.9006722986783871 [Eh]
	 Singles Energy            =      -0.0000000000000000 [Eh]
	 Same-Spin Energy          =      -0.3827978469741978 [Eh]
	 Opposite-Spin Energy      =      -1.2543484645620362 [Eh]
	 Correlation Energy        =      -1.6371463115362339 [Eh]
	 Total Energy              =    -384.5378186102146287 [Eh]

	 ================> DF-SCS-MP2 Energies <==================
	-----------------------------------------------------------
	 SCS Same-Spin Scale       =       0.3333333333333333 [-]
	 SCS Opposite-Spin Scale   =       1.2000000000000000 [-]
	 SCS Same-Spin Energy      =      -0.1275992823247326 [Eh]
	 SCS Opposite-Spin Energy  =      -1.5052181574744434 [Eh]
	 SCS Correlation Energy    =      -1.6328174397991759 [Eh]
	 SCS Total Energy          =    -384.5334897384775559 [Eh]
	-----------------------------------------------------------

  Dipole Moment: [D]
     X:    -0.2871      Y:     1.4142      Z:     0.2298     Total:     1.4613

*** Psi4 exiting successfully. Buy a developer a beer!
