                               Psi4 1.4a3.dev225

  ==> Input File <==

--------------------------------------------------------------------------
#psi4
#
memory 32 gb

molecule  {
0 1
  O       -3.2271830    -0.3786580    -0.1569640
  O       -1.8275510     1.3993140    -0.2614160
  C        2.8225670    -0.4310850    -0.3953020
  C        1.4009980    -0.8942070    -0.2419560
  C       -0.9807690    -0.7586230     0.4926230
  C        0.4143070    -0.2269140     0.3719860
  C        3.1298050     0.9339520     0.2103920
  C       -2.0113430     0.2195500    -0.0192140
  H        3.4859920    -1.1868430     0.0468460
  H        3.0699840    -0.4203720    -1.4654230
  H        1.1737130    -1.8673930    -0.6818980
  H       -1.0998220    -1.7054460    -0.0447970
  H       -1.2414610    -0.9681590     1.5400430
  H        0.5962444     0.7682620     0.8202958
  H        4.1791340     1.1958370     0.0500290
  H        2.5131630     1.7137800    -0.2445400
  H        2.9424530     0.9385920     1.2876810
  H       -3.8316340     0.3284440    -0.4642740
units angstrom
no_reorient  #important for SAPT in psi4, default
symmetry c1  #important for SAPT in psi4, default
}

set PROPERTIES_ORIGIN ["COM"]
properties('MP2/aug-cc-pvtz', properties = ['dipole'])
--------------------------------------------------------------------------

    Molecular point group: c1
  Charge       = 0
  Multiplicity = 1
  Basis Set: AUG-CC-PVTZ
    Blend: AUG-CC-PVTZ
  Basis Set: (AUG-CC-PVTZ AUX)
    Blend: AUG-CC-PVTZ-JKFIT

    Orbital Energies [Eh]
    ---------------------

    Doubly Occupied:

       1A    -20.616439     2A    -20.552207     3A    -11.391209
       4A    -11.254968     5A    -11.235616     6A    -11.233852
       7A    -11.229845     8A    -11.214333     9A     -1.460029
      10A     -1.357311    11A     -1.102911    12A     -1.045582
      13A     -0.960658    14A     -0.870147    15A     -0.807543
      16A     -0.737545    17A     -0.702928    18A     -0.682343
      19A     -0.655785    20A     -0.624581    21A     -0.612707
      22A     -0.599923    23A     -0.581430    24A     -0.554096
      25A     -0.526939    26A     -0.498700    27A     -0.492326
      28A     -0.484024    29A     -0.479152    30A     -0.455672
      31A     -0.354631

  @DF-RHF Final Energy:  -382.90315520233980

   => Energetics <=

    Nuclear Repulsion Energy =            354.9041423653593483
    One-Electron Energy =               -1224.8637283694531561
    Two-Electron Energy =                 487.0564308017540043
    Total Energy =                       -382.9031552023398035
  Basis Set: (AUG-CC-PVTZ AUX)
    Blend: AUG-CC-PVTZ-RI
    Molecular point group: c1

    Geometry (in Angstrom), charge = 0, multiplicity = 1:

       Center              X                  Y                   Z               Mass
    ------------   -----------------  -----------------  -----------------  -----------------
         O           -3.124934827264    -0.389394287794    -0.149783748123    15.994914619570
         O           -1.725302827264     1.388577712206    -0.254235748123    15.994914619570
         C            2.924815172736    -0.441821287794    -0.388121748123    12.000000000000
         C            1.503246172736    -0.904943287794    -0.234775748123    12.000000000000
         C           -0.878520827264    -0.769359287794     0.499803251877    12.000000000000
         C            0.516555172736    -0.237650287794     0.379166251877    12.000000000000
         C            3.232053172736     0.923215712206     0.217572251877    12.000000000000
         C           -1.909094827264     0.208813712206    -0.012033748123    12.000000000000
         H            3.588240172736    -1.197579287794     0.054026251877     1.007825032230
         H            3.172232172736    -0.431108287794    -1.458242748123     1.007825032230
         H            1.275961172736    -1.878129287794    -0.674717748123     1.007825032230
         H           -0.997573827264    -1.716182287794    -0.037616748123     1.007825032230
         H           -1.139212827264    -0.978895287794     1.547223251877     1.007825032230
         H            0.698492572736     0.757525712206     0.827476051877     1.007825032230
         H            4.281382172736     1.185100712206     0.057209251877     1.007825032230
         H            2.615411172736     1.703043712206    -0.237359748123     1.007825032230
         H            3.044701172736     0.927855712206     1.294861251877     1.007825032230
         H           -3.729385827264     0.317707712206    -0.457093748123     1.007825032230

  Basis Set: AUG-CC-PVTZ
    Blend: AUG-CC-PVTZ
  Basis Set: (AUG-CC-PVTZ AUX)
    Blend: AUG-CC-PVTZ-JKFIT
	 Reference Energy          =    -382.9031552023398035 [Eh]
	 Singles Energy            =      -0.0000000000000000 [Eh]
	 Same-Spin Energy          =      -0.3830774392814906 [Eh]
	 Opposite-Spin Energy      =      -1.2544035605876747 [Eh]
	 Correlation Energy        =      -1.6374809998691653 [Eh]
	 Total Energy              =    -384.5406362022089866 [Eh]

	 ================> DF-SCS-MP2 Energies <==================
	-----------------------------------------------------------
	 SCS Same-Spin Scale       =       0.3333333333333333 [-]
	 SCS Opposite-Spin Scale   =       1.2000000000000000 [-]
	 SCS Same-Spin Energy      =      -0.1276924797604969 [Eh]
	 SCS Opposite-Spin Energy  =      -1.5052842727052096 [Eh]
	 SCS Correlation Energy    =      -1.6329767524657064 [Eh]
	 SCS Total Energy          =    -384.5361319548055121 [Eh]
	-----------------------------------------------------------

  Dipole Moment: [D]
     X:     0.1622      Y:    -1.4193      Z:     0.2379     Total:     1.4482

*** Psi4 exiting successfully. Buy a developer a beer!
