                               Psi4 1.3.2 release

  ==> Input File <==

--------------------------------------------------------------------------
#psi4
#
memory 32 gb

molecule  {
0 1
  O        3.1774252     0.3230784    -0.0045246
  O        1.7854162    -1.3709345    -0.2143979
  C       -2.9163610     0.3476720    -0.5022120
  C       -1.4960630     0.8252950    -0.4074400
  C        0.8585340     0.8235180     0.4136200
  C       -0.5245990     0.2621860     0.3264500
  C       -3.2476580    -0.8824200     0.3361610
  C        1.9107340    -0.1856640     0.0271730
  H       -3.5825680     1.1749950    -0.2170990
  H       -3.1475630     0.1432210    -1.5599470
  H       -1.2553160     1.7190160    -0.9933200
  H        0.9787830     1.7133270    -0.2211670
  H        1.0972480     1.1531100     1.4329360
  H       -0.7130820    -0.6444280     0.9033180
  H       -4.2956480    -1.1625270     0.2123440
  H       -2.6314050    -1.7369230     0.0388270
  H       -3.0739380    -0.6897760     1.4001060
  H        3.7686820    -0.3352680    -0.2293440
units angstrom
no_reorient  #important for SAPT in psi4, default
symmetry c1  #important for SAPT in psi4, default
}

set PROPERTIES_ORIGIN ["COM"]
properties('MP2/aug-cc-pvtz', properties = ['dipole'])
--------------------------------------------------------------------------

    Molecular point group: c1
  Charge       = 0
  Multiplicity = 1
  Basis Set: AUG-CC-PVTZ
    Blend: AUG-CC-PVTZ
  Basis Set: (AUG-CC-PVTZ AUX)
    Blend: AUG-CC-PVTZ-JKFIT

    Orbital Energies [Eh]
    ---------------------

    Doubly Occupied:

       1A    -20.600134     2A    -20.548118     3A    -11.390246
       4A    -11.260824     5A    -11.238904     6A    -11.235711
       7A    -11.232157     8A    -11.216351     9A     -1.465602
      10A     -1.353646    11A     -1.106928    12A     -1.049379
      13A     -0.964315    14A     -0.875123    15A     -0.819362
      16A     -0.742184    17A     -0.701259    18A     -0.683983
      19A     -0.654546    20A     -0.629243    21A     -0.613883
      22A     -0.599213    23A     -0.581653    24A     -0.556035
      25A     -0.531135    26A     -0.499956    27A     -0.493383
      28A     -0.485069    29A     -0.477163    30A     -0.454179
      31A     -0.357419

  @DF-RHF Final Energy:  -382.90186370041351

   => Energetics <=

    Nuclear Repulsion Energy =            354.8800379292585490
    One-Electron Energy =               -1224.7295937449218854
    Two-Electron Energy =                 486.9476921152497653
    Total Energy =                       -382.9018637004135144
  Basis Set: (AUG-CC-PVTZ AUX)
    Blend: AUG-CC-PVTZ-RI
    Molecular point group: c1

    Geometry (in Angstrom), charge = 0, multiplicity = 1:

       Center              X                  Y                   Z               Mass
    ------------   -----------------  -----------------  -----------------  -----------------
         O            3.164802280513     0.332968400946    -0.000983121919    15.994914619570
         O            1.772793280513    -1.361044499054    -0.210856421919    15.994914619570
         C           -2.928983919487     0.357562000946    -0.498670521919    12.000000000000
         C           -1.508685919487     0.835185000946    -0.403898521919    12.000000000000
         C            0.845911080513     0.833408000946     0.417161478081    12.000000000000
         C           -0.537221919487     0.272076000946     0.329991478081    12.000000000000
         C           -3.260280919487    -0.872529999054     0.339702478081    12.000000000000
         C            1.898111080513    -0.175773999054     0.030714478081    12.000000000000
         H           -3.595190919487     1.184885000946    -0.213557521919     1.007825032230
         H           -3.160185919487     0.153111000946    -1.556405521919     1.007825032230
         H           -1.267938919487     1.728906000946    -0.989778521919     1.007825032230
         H            0.966160080513     1.723217000946    -0.217625521919     1.007825032230
         H            1.084625080513     1.163000000946     1.436477478081     1.007825032230
         H           -0.725704919487    -0.634537999054     0.906859478081     1.007825032230
         H           -4.308270919487    -1.152636999054     0.215885478081     1.007825032230
         H           -2.644027919487    -1.727032999054     0.042368478081     1.007825032230
         H           -3.086560919487    -0.679885999054     1.403647478081     1.007825032230
         H            3.756059080513    -0.325377999054    -0.225802521919     1.007825032230

  Basis Set: AUG-CC-PVTZ
    Blend: AUG-CC-PVTZ
  Basis Set: (AUG-CC-PVTZ AUX)
    Blend: AUG-CC-PVTZ-JKFIT
	 Reference Energy          =    -382.9018637004135144 [Eh]
	 Singles Energy            =      -0.0000000000000000 [Eh]
	 Same-Spin Energy          =      -0.3817752301777537 [Eh]
	 Opposite-Spin Energy      =      -1.2516530771455416 [Eh]
	 Correlation Energy        =      -1.6334283073232954 [Eh]
	 Total Energy              =    -384.5352920077368140 [Eh]

	 ================> DF-SCS-MP2 Energies <==================
	-----------------------------------------------------------
	 SCS Same-Spin Scale       =       0.3333333333333333 [-]
	 SCS Opposite-Spin Scale   =       1.2000000000000000 [-]
	 SCS Same-Spin Energy      =      -0.1272584100592512 [Eh]
	 SCS Opposite-Spin Energy  =      -1.5019836925746499 [Eh]
	 SCS Correlation Energy    =      -1.6292421026339012 [Eh]
	 SCS Total Energy          =    -384.5311058030474101 [Eh]
	-----------------------------------------------------------

  Dipole Moment: [D]
     X:    -0.5395      Y:     1.5383      Z:     0.2609     Total:     1.6509

*** Psi4 exiting successfully. Buy a developer a beer!
