                               Psi4 1.4a3.dev225

  ==> Input File <==

--------------------------------------------------------------------------
#psi4
#
memory 32 gb

molecule  {
0 1
  O       -3.2271830    -0.3786580    -0.1569640
  O       -1.8275510     1.3993140    -0.2614160
  C        2.8225670    -0.4310850    -0.3953020
  C        1.4009980    -0.8942070    -0.2419560
  C       -0.9807690    -0.7586230     0.4926230
  C        0.4143070    -0.2269140     0.3719860
  C        3.1298050     0.9339520     0.2103920
  C       -2.0454621     0.2519343    -0.0361593
  H        3.4859920    -1.1868430     0.0468460
  H        3.0699840    -0.4203720    -1.4654230
  H        1.1737130    -1.8673930    -0.6818980
  H       -1.0998220    -1.7054460    -0.0447970
  H       -1.2414610    -0.9681590     1.5400430
  H        0.5929560     0.7502750     0.8121930
  H        4.1791340     1.1958370     0.0500290
  H        2.5131630     1.7137800    -0.2445400
  H        2.9424530     0.9385920     1.2876810
  H       -3.8316340     0.3284440    -0.4642740
units angstrom
no_reorient  #important for SAPT in psi4, default
symmetry c1  #important for SAPT in psi4, default
}

set PROPERTIES_ORIGIN ["COM"]
properties('MP2/aug-cc-pvtz', properties = ['dipole'])
--------------------------------------------------------------------------

    Molecular point group: c1
  Charge       = 0
  Multiplicity = 1
  Basis Set: AUG-CC-PVTZ
    Blend: AUG-CC-PVTZ
  Basis Set: (AUG-CC-PVTZ AUX)
    Blend: AUG-CC-PVTZ-JKFIT

    Orbital Energies [Eh]
    ---------------------

    Doubly Occupied:

       1A    -20.621134     2A    -20.555015     3A    -11.387732
       4A    -11.251341     5A    -11.232528     6A    -11.229149
       7A    -11.228271     8A    -11.213330     9A     -1.473856
      10A     -1.376767    11A     -1.098166    12A     -1.037762
      13A     -0.953956    14A     -0.868314    15A     -0.809115
      16A     -0.737444    17A     -0.711082    18A     -0.685310
      19A     -0.657139    20A     -0.624038    21A     -0.611632
      22A     -0.603233    23A     -0.581781    24A     -0.552129
      25A     -0.525998    26A     -0.497548    27A     -0.494602
      28A     -0.489797    29A     -0.479109    30A     -0.452857
      31A     -0.351007

  @DF-RHF Final Energy:  -382.90370241407055

   => Energetics <=

    Nuclear Repulsion Energy =            355.0318766959686627
    One-Electron Energy =               -1225.0888742585025284
    Two-Electron Energy =                 487.1532951484633145
    Total Energy =                       -382.9037024140705512
  Basis Set: (AUG-CC-PVTZ AUX)
    Blend: AUG-CC-PVTZ-RI
    Molecular point group: c1

    Geometry (in Angstrom), charge = 0, multiplicity = 1:

       Center              X                  Y                   Z               Mass
    ------------   -----------------  -----------------  -----------------  -----------------
         O           -3.121316432588    -0.392642206516    -0.147929506292    15.994914619570
         O           -1.721684432588     1.385329793484    -0.252381506292    15.994914619570
         C            2.928433567412    -0.445069206516    -0.386267506292    12.000000000000
         C            1.506864567412    -0.908191206516    -0.232921506292    12.000000000000
         C           -0.874902432588    -0.772607206516     0.501657493708    12.000000000000
         C            0.520173567412    -0.240898206516     0.381020493708    12.000000000000
         C            3.235671567412     0.919967793484     0.219426493708    12.000000000000
         C           -1.939595532588     0.237950093484    -0.027124806292    12.000000000000
         H            3.591858567412    -1.200827206516     0.055880493708     1.007825032230
         H            3.175850567412    -0.434356206516    -1.456388506292     1.007825032230
         H            1.279579567412    -1.881377206516    -0.672863506292     1.007825032230
         H           -0.993955432588    -1.719430206516    -0.035762506292     1.007825032230
         H           -1.135594432588    -0.982143206516     1.549077493708     1.007825032230
         H            0.698822567412     0.736290793484     0.821227493708     1.007825032230
         H            4.285000567412     1.181852793484     0.059063493708     1.007825032230
         H            2.619029567412     1.699795793484    -0.235505506292     1.007825032230
         H            3.048319567412     0.924607793484     1.296715493708     1.007825032230
         H           -3.725767432588     0.314459793484    -0.455239506292     1.007825032230

  Basis Set: AUG-CC-PVTZ
    Blend: AUG-CC-PVTZ
  Basis Set: (AUG-CC-PVTZ AUX)
    Blend: AUG-CC-PVTZ-JKFIT
	 Reference Energy          =    -382.9037024140705512 [Eh]
	 Singles Energy            =      -0.0000000000000000 [Eh]
	 Same-Spin Energy          =      -0.3822660237191147 [Eh]
	 Opposite-Spin Energy      =      -1.2526853031783349 [Eh]
	 Correlation Energy        =      -1.6349513268974496 [Eh]
	 Total Energy              =    -384.5386537409680159 [Eh]

	 ================> DF-SCS-MP2 Energies <==================
	-----------------------------------------------------------
	 SCS Same-Spin Scale       =       0.3333333333333333 [-]
	 SCS Opposite-Spin Scale   =       1.2000000000000000 [-]
	 SCS Same-Spin Energy      =      -0.1274220079063715 [Eh]
	 SCS Opposite-Spin Energy  =      -1.5032223638140019 [Eh]
	 SCS Correlation Energy    =      -1.6306443717203734 [Eh]
	 SCS Total Energy          =    -384.5343467857909445 [Eh]
	-----------------------------------------------------------

  Dipole Moment: [D]
     X:    -0.0944      Y:    -1.2444      Z:     0.1503     Total:     1.2570

*** Psi4 exiting successfully. Buy a developer a beer!
