                               Psi4 1.3.2 release

  ==> Input File <==

--------------------------------------------------------------------------
#psi4
#
memory 32 gb

molecule  {
0 1
  O        3.1501630     0.3869830     0.0122970
  O        1.7226580    -1.3643080    -0.2059640
  C       -2.9163610     0.3476720    -0.5022120
  C       -1.4960630     0.8252950    -0.4074400
  C        0.8585340     0.8235180     0.4136200
  C       -0.5245990     0.2621860     0.3264500
  C       -3.2476580    -0.8824200     0.3361610
  C        1.9107340    -0.1856640     0.0271730
  H       -3.5825680     1.1749950    -0.2170990
  H       -3.1475630     0.1432210    -1.5599470
  H       -1.2553160     1.7190160    -0.9933200
  H        0.9569121     1.5514883    -0.1057118
  H        1.0972480     1.1531100     1.4329360
  H       -0.7130820    -0.6444280     0.9033180
  H       -4.2956480    -1.1625270     0.2123440
  H       -2.6314050    -1.7369230     0.0388270
  H       -3.0739380    -0.6897760     1.4001060
  H        3.7686820    -0.3352680    -0.2293440
units angstrom
no_reorient  #important for SAPT in psi4, default
symmetry c1  #important for SAPT in psi4, default
}

set PROPERTIES_ORIGIN ["COM"]
properties('MP2/aug-cc-pvtz', properties = ['dipole'])
--------------------------------------------------------------------------

    Molecular point group: c1
  Charge       = 0
  Multiplicity = 1
  Basis Set: AUG-CC-PVTZ
    Blend: AUG-CC-PVTZ
  Basis Set: (AUG-CC-PVTZ AUX)
    Blend: AUG-CC-PVTZ-JKFIT

    Orbital Energies [Eh]
    ---------------------

    Doubly Occupied:

       1A    -20.616471     2A    -20.552345     3A    -11.389744
       4A    -11.235196     5A    -11.231702     6A    -11.230862
       7A    -11.229967     8A    -11.214517     9A     -1.458964
      10A     -1.358059    11A     -1.110101    12A     -1.053995
      13A     -0.963868    14A     -0.870055    15A     -0.813615
      16A     -0.752446    17A     -0.703043    18A     -0.687550
      19A     -0.658230    20A     -0.632095    21A     -0.611931
      22A     -0.603402    23A     -0.582155    24A     -0.559401
      25A     -0.536377    26A     -0.498005    27A     -0.491217
      28A     -0.485404    29A     -0.479856    30A     -0.456274
      31A     -0.353769

  @DF-RHF Final Energy:  -382.87178262086894

   => Energetics <=

    Nuclear Repulsion Energy =            356.1482070674663873
    One-Electron Energy =               -1227.1987470656315509
    Two-Electron Energy =                 488.1787573772962219
    Total Energy =                       -382.8717826208689416
  Basis Set: (AUG-CC-PVTZ AUX)
    Blend: AUG-CC-PVTZ-RI
    Molecular point group: c1

    Geometry (in Angstrom), charge = 0, multiplicity = 1:

       Center              X                  Y                   Z               Mass
    ------------   -----------------  -----------------  -----------------  -----------------
         O            3.150356204516     0.388412844229     0.011277007345    15.994914619570
         O            1.722851204516    -1.362878155771    -0.206983992655    15.994914619570
         C           -2.916167795484     0.349101844229    -0.503231992655    12.000000000000
         C           -1.495869795484     0.826724844229    -0.408459992655    12.000000000000
         C            0.858727204516     0.824947844229     0.412600007345    12.000000000000
         C           -0.524405795484     0.263615844229     0.325430007345    12.000000000000
         C           -3.247464795484    -0.880990155771     0.335141007345    12.000000000000
         C            1.910927204516    -0.184234155771     0.026153007345    12.000000000000
         H           -3.582374795484     1.176424844229    -0.218118992655     1.007825032230
         H           -3.147369795484     0.144650844229    -1.560966992655     1.007825032230
         H           -1.255122795484     1.720445844229    -0.994339992655     1.007825032230
         H            0.957105304516     1.552918144229    -0.106731792655     1.007825032230
         H            1.097441204516     1.154539844229     1.431916007345     1.007825032230
         H           -0.712888795484    -0.642998155771     0.902298007345     1.007825032230
         H           -4.295454795484    -1.161097155771     0.211324007345     1.007825032230
         H           -2.631211795484    -1.735493155771     0.037807007345     1.007825032230
         H           -3.073744795484    -0.688346155771     1.399086007345     1.007825032230
         H            3.768875204516    -0.333838155771    -0.230363992655     1.007825032230

  Basis Set: AUG-CC-PVTZ
    Blend: AUG-CC-PVTZ
  Basis Set: (AUG-CC-PVTZ AUX)
    Blend: AUG-CC-PVTZ-JKFIT
	 Reference Energy          =    -382.8717826208689416 [Eh]
	 Singles Energy            =      -0.0000000000000000 [Eh]
	 Same-Spin Energy          =      -0.3829786168948500 [Eh]
	 Opposite-Spin Energy      =      -1.2537014867429908 [Eh]
	 Correlation Energy        =      -1.6366801036378407 [Eh]
	 Total Energy              =    -384.5084627245067850 [Eh]

	 ================> DF-SCS-MP2 Energies <==================
	-----------------------------------------------------------
	 SCS Same-Spin Scale       =       0.3333333333333333 [-]
	 SCS Opposite-Spin Scale   =       1.2000000000000000 [-]
	 SCS Same-Spin Energy      =      -0.1276595389649500 [Eh]
	 SCS Opposite-Spin Energy  =      -1.5044417840915889 [Eh]
	 SCS Correlation Energy    =      -1.6321013230565389 [Eh]
	 SCS Total Energy          =    -384.5038839439254730 [Eh]
	-----------------------------------------------------------

  Dipole Moment: [D]
     X:    -0.1444      Y:     1.4163      Z:     0.2041     Total:     1.4382

*** Psi4 exiting successfully. Buy a developer a beer!
