                               Psi4 1.3.2 release

  ==> Input File <==

--------------------------------------------------------------------------
#psi4
#
memory 32 gb

molecule  {
0 1
  O        3.1501630     0.3869830     0.0122970
  O        1.7226580    -1.3643080    -0.2059640
  C       -2.9163610     0.3476720    -0.5022120
  C       -1.4960630     0.8252950    -0.4074400
  C        0.8440209     0.8618668     0.3813298
  C       -0.5245990     0.2621860     0.3264500
  C       -3.2476580    -0.8824200     0.3361610
  C        1.9107340    -0.1856640     0.0271730
  H       -3.5825680     1.1749950    -0.2170990
  H       -3.1475630     0.1432210    -1.5599470
  H       -1.2553160     1.7190160    -0.9933200
  H        0.9787830     1.7133270    -0.2211670
  H        1.0972480     1.1531100     1.4329360
  H       -0.7489766    -0.6442566     0.8906025
  H       -4.2956480    -1.1625270     0.2123440
  H       -2.6314050    -1.7369230     0.0388270
  H       -3.0739380    -0.6897760     1.4001060
  H        3.7686820    -0.3352680    -0.2293440
units angstrom
no_reorient  #important for SAPT in psi4, default
symmetry c1  #important for SAPT in psi4, default
}

set PROPERTIES_ORIGIN ["COM"]
properties('MP2/aug-cc-pvtz', properties = ['dipole'])
--------------------------------------------------------------------------

    Molecular point group: c1
  Charge       = 0
  Multiplicity = 1
  Basis Set: AUG-CC-PVTZ
    Blend: AUG-CC-PVTZ
  Basis Set: (AUG-CC-PVTZ AUX)
    Blend: AUG-CC-PVTZ-JKFIT

    Orbital Energies [Eh]
    ---------------------

    Doubly Occupied:

       1A    -20.615542     2A    -20.553216     3A    -11.391215
       4A    -11.255015     5A    -11.233992     6A    -11.231747
       7A    -11.229561     8A    -11.215020     9A     -1.457994
      10A     -1.357826    11A     -1.103222    12A     -1.043885
      13A     -0.958385    14A     -0.869298    15A     -0.806148
      16A     -0.741449    17A     -0.702792    18A     -0.678987
      19A     -0.651359    20A     -0.629359    21A     -0.612081
      22A     -0.599670    23A     -0.577158    24A     -0.551833
      25A     -0.537379    26A     -0.498269    27A     -0.489977
      28A     -0.486092    29A     -0.480368    30A     -0.454114
      31A     -0.352388

  @DF-RHF Final Energy:  -382.90032341317379

   => Energetics <=

    Nuclear Repulsion Energy =            354.8083438847926914
    One-Electron Energy =               -1224.6866519069519654
    Two-Electron Energy =                 486.9779846089854232
    Total Energy =                       -382.9003234131737941
  Basis Set: (AUG-CC-PVTZ AUX)
    Blend: AUG-CC-PVTZ-RI
    Molecular point group: c1

    Geometry (in Angstrom), charge = 0, multiplicity = 1:

       Center              X                  Y                   Z               Mass
    ------------   -----------------  -----------------  -----------------  -----------------
         O            3.152006890989     0.382947130801     0.015806372982    15.994914619570
         O            1.724501890989    -1.368343869199    -0.202454627018    15.994914619570
         C           -2.914517109011     0.343636130801    -0.498702627018    12.000000000000
         C           -1.494219109011     0.821259130801    -0.403930627018    12.000000000000
         C            0.845864790989     0.857830930801     0.384839172982    12.000000000000
         C           -0.522755109011     0.258150130801     0.329959372982    12.000000000000
         C           -3.245814109011    -0.886455869199     0.339670372982    12.000000000000
         C            1.912577890989    -0.189699869199     0.030682372982    12.000000000000
         H           -3.580724109011     1.170959130801    -0.213589627018     1.007825032230
         H           -3.145719109011     0.139185130801    -1.556437627018     1.007825032230
         H           -1.253472109011     1.714980130801    -0.989810627018     1.007825032230
         H            0.980626890989     1.709291130801    -0.217657627018     1.007825032230
         H            1.099091890989     1.149074130801     1.436445372982     1.007825032230
         H           -0.747132709011    -0.648292469199     0.894111872982     1.007825032230
         H           -4.293804109011    -1.166562869199     0.215853372982     1.007825032230
         H           -2.629561109011    -1.740958869199     0.042336372982     1.007825032230
         H           -3.072094109011    -0.693811869199     1.403615372982     1.007825032230
         H            3.770525890989    -0.339303869199    -0.225834627018     1.007825032230

  Basis Set: AUG-CC-PVTZ
    Blend: AUG-CC-PVTZ
  Basis Set: (AUG-CC-PVTZ AUX)
    Blend: AUG-CC-PVTZ-JKFIT
	 Reference Energy          =    -382.9003234131737941 [Eh]
	 Singles Energy            =      -0.0000000000000000 [Eh]
	 Same-Spin Energy          =      -0.3831333375913770 [Eh]
	 Opposite-Spin Energy      =      -1.2545108933604541 [Eh]
	 Correlation Energy        =      -1.6376442309518311 [Eh]
	 Total Energy              =    -384.5379676441256152 [Eh]

	 ================> DF-SCS-MP2 Energies <==================
	-----------------------------------------------------------
	 SCS Same-Spin Scale       =       0.3333333333333333 [-]
	 SCS Opposite-Spin Scale   =       1.2000000000000000 [-]
	 SCS Same-Spin Energy      =      -0.1277111125304590 [Eh]
	 SCS Opposite-Spin Energy  =      -1.5054130720325449 [Eh]
	 SCS Correlation Energy    =      -1.6331241845630040 [Eh]
	 SCS Total Energy          =    -384.5334475977368243 [Eh]
	-----------------------------------------------------------

  Dipole Moment: [D]
     X:    -0.1666      Y:     1.3798      Z:     0.1791     Total:     1.4013

*** Psi4 exiting successfully. Buy a developer a beer!
