                               Psi4 1.3.2 release

  ==> Input File <==

--------------------------------------------------------------------------
#psi4
#
memory 32 gb

molecule  {
0 1
  O        3.1501630     0.3869830     0.0122970
  O        1.7226580    -1.3643080    -0.2059640
  C       -2.9163610     0.3476720    -0.5022120
  C       -1.4960630     0.8252950    -0.4074400
  C        0.8585340     0.8235180     0.4136200
  C       -0.5245990     0.2621860     0.3264500
  C       -3.2476580    -0.8824200     0.3361610
  C        1.9804955    -0.2525734     0.0015513
  H       -3.5825680     1.1749950    -0.2170990
  H       -3.1475630     0.1432210    -1.5599470
  H       -1.2553160     1.7190160    -0.9933200
  H        0.9787830     1.7133270    -0.2211670
  H        1.0972480     1.1531100     1.4329360
  H       -0.7130820    -0.6444280     0.9033180
  H       -4.2956480    -1.1625270     0.2123440
  H       -2.6314050    -1.7369230     0.0388270
  H       -3.0739380    -0.6897760     1.4001060
  H        3.7686820    -0.3352680    -0.2293440
units angstrom
no_reorient  #important for SAPT in psi4, default
symmetry c1  #important for SAPT in psi4, default
}

set PROPERTIES_ORIGIN ["COM"]
properties('MP2/aug-cc-pvtz', properties = ['dipole'])
--------------------------------------------------------------------------

    Molecular point group: c1
  Charge       = 0
  Multiplicity = 1
  Basis Set: AUG-CC-PVTZ
    Blend: AUG-CC-PVTZ
  Basis Set: (AUG-CC-PVTZ AUX)
    Blend: AUG-CC-PVTZ-JKFIT

    Orbital Energies [Eh]
    ---------------------

    Doubly Occupied:

       1A    -20.625480     2A    -20.558882     3A    -11.384780
       4A    -11.246417     5A    -11.230351     6A    -11.227021
       7A    -11.226668     8A    -11.212598     9A     -1.486629
      10A     -1.396754    11A     -1.093725    12A     -1.030606
      13A     -0.946511    14A     -0.865486    15A     -0.808753
      16A     -0.733979    17A     -0.718720    18A     -0.690745
      19A     -0.660094    20A     -0.624183    21A     -0.610016
      22A     -0.604097    23A     -0.583527    24A     -0.547951
      25A     -0.522410    26A     -0.505230    27A     -0.495843
      28A     -0.488134    29A     -0.477493    30A     -0.446206
      31A     -0.346631

  @DF-RHF Final Energy:  -382.89554888164076

   => Energetics <=

    Nuclear Repulsion Energy =            355.1555042633264634
    One-Electron Energy =               -1225.3102650996086140
    Two-Electron Energy =                 487.2592119546413301
    Total Energy =                       -382.8955488816407637
  Basis Set: (AUG-CC-PVTZ AUX)
    Blend: AUG-CC-PVTZ-RI
    Molecular point group: c1

    Geometry (in Angstrom), charge = 0, multiplicity = 1:

       Center              X                  Y                   Z               Mass
    ------------   -----------------  -----------------  -----------------  -----------------
         O            3.142824035624     0.394021842903     0.014992499377    15.994914619570
         O            1.715319035624    -1.357269157097    -0.203268500623    15.994914619570
         C           -2.923699964376     0.354710842903    -0.499516500623    12.000000000000
         C           -1.503401964376     0.832333842903    -0.404744500623    12.000000000000
         C            0.851195035624     0.830556842903     0.416315499377    12.000000000000
         C           -0.531937964376     0.269224842903     0.329145499377    12.000000000000
         C           -3.254996964376    -0.875381157097     0.338856499377    12.000000000000
         C            1.973156535624    -0.245534557097     0.004246799377    12.000000000000
         H           -3.589906964376     1.182033842903    -0.214403500623     1.007825032230
         H           -3.154901964376     0.150259842903    -1.557251500623     1.007825032230
         H           -1.262654964376     1.726054842903    -0.990624500623     1.007825032230
         H            0.971444035624     1.720365842903    -0.218471500623     1.007825032230
         H            1.089909035624     1.160148842903     1.435631499377     1.007825032230
         H           -0.720420964376    -0.637389157097     0.906013499377     1.007825032230
         H           -4.302986964376    -1.155488157097     0.215039499377     1.007825032230
         H           -2.638743964376    -1.729884157097     0.041522499377     1.007825032230
         H           -3.081276964376    -0.682737157097     1.402801499377     1.007825032230
         H            3.761343035624    -0.328229157097    -0.226648500623     1.007825032230

  Basis Set: AUG-CC-PVTZ
    Blend: AUG-CC-PVTZ
  Basis Set: (AUG-CC-PVTZ AUX)
    Blend: AUG-CC-PVTZ-JKFIT
	 Reference Energy          =    -382.8955488816407637 [Eh]
	 Singles Energy            =      -0.0000000000000000 [Eh]
	 Same-Spin Energy          =      -0.3819661596437510 [Eh]
	 Opposite-Spin Energy      =      -1.2520316424180362 [Eh]
	 Correlation Energy        =      -1.6339978020617871 [Eh]
	 Total Energy              =    -384.5295466837025629 [Eh]

	 ================> DF-SCS-MP2 Energies <==================
	-----------------------------------------------------------
	 SCS Same-Spin Scale       =       0.3333333333333333 [-]
	 SCS Opposite-Spin Scale   =       1.2000000000000000 [-]
	 SCS Same-Spin Energy      =      -0.1273220532145836 [Eh]
	 SCS Opposite-Spin Energy  =      -1.5024379709016433 [Eh]
	 SCS Correlation Energy    =      -1.6297600241162269 [Eh]
	 SCS Total Energy          =    -384.5253089057570151 [Eh]
	-----------------------------------------------------------

  Dipole Moment: [D]
     X:     0.3511      Y:     1.0201      Z:     0.0773     Total:     1.0816

*** Psi4 exiting successfully. Buy a developer a beer!
