                               Psi4 1.3.2 release

  ==> Input File <==

--------------------------------------------------------------------------
#psi4
#
memory 32 gb

molecule  {
0 1
  O        3.1501630     0.3869830     0.0122970
  O        1.7226580    -1.3643080    -0.2059640
  C       -2.9163610     0.3476720    -0.5022120
  C       -1.4960630     0.8252950    -0.4074400
  C        0.8585340     0.8235180     0.4136200
  C       -0.5245990     0.2621860     0.3264500
  C       -3.2476580    -0.8824200     0.3361610
  C        2.0502570    -0.3194827    -0.0240703
  H       -3.5825680     1.1749950    -0.2170990
  H       -3.1475630     0.1432210    -1.5599470
  H       -1.2553160     1.7190160    -0.9933200
  H        0.9787830     1.7133270    -0.2211670
  H        1.0972480     1.1531100     1.4329360
  H       -0.7130820    -0.6444280     0.9033180
  H       -4.2956480    -1.1625270     0.2123440
  H       -2.6314050    -1.7369230     0.0388270
  H       -3.0739380    -0.6897760     1.4001060
  H        3.7686820    -0.3352680    -0.2293440
units angstrom
no_reorient  #important for SAPT in psi4, default
symmetry c1  #important for SAPT in psi4, default
}

set PROPERTIES_ORIGIN ["COM"]
properties('MP2/aug-cc-pvtz', properties = ['dipole'])
--------------------------------------------------------------------------

    Molecular point group: c1
  Charge       = 0
  Multiplicity = 1
  Basis Set: AUG-CC-PVTZ
    Blend: AUG-CC-PVTZ
  Basis Set: (AUG-CC-PVTZ AUX)
    Blend: AUG-CC-PVTZ-JKFIT

    Orbital Energies [Eh]
    ---------------------

    Doubly Occupied:

       1A    -20.637244     2A    -20.568887     3A    -11.385240
       4A    -11.234014     5A    -11.224509     6A    -11.223423
       7A    -11.220746     8A    -11.210158     9A     -1.516679
      10A     -1.435539    11A     -1.086217    12A     -1.018379
      13A     -0.933085    14A     -0.860763    15A     -0.810229
      16A     -0.739710    17A     -0.725891    18A     -0.707054
      19A     -0.676525    20A     -0.619987    21A     -0.611848
      22A     -0.605851    23A     -0.583866    24A     -0.542166
      25A     -0.527736    26A     -0.515239    27A     -0.493137
      28A     -0.485047    29A     -0.472376    30A     -0.424226
      31A     -0.336112

  @DF-RHF Final Energy:  -382.86135137294389

   => Energetics <=

    Nuclear Repulsion Energy =            355.2550638043937852
    One-Electron Energy =               -1225.3690668416184053
    Two-Electron Energy =                 487.2526516642807337
    Total Energy =                       -382.8613513729438864
  Basis Set: (AUG-CC-PVTZ AUX)
    Blend: AUG-CC-PVTZ-RI
    Molecular point group: c1

    Geometry (in Angstrom), charge = 0, multiplicity = 1:

       Center              X                  Y                   Z               Mass
    ------------   -----------------  -----------------  -----------------  -----------------
         O            3.135485102565     0.401060723570     0.017687900239    15.994914619570
         O            1.707980102565    -1.350230276430    -0.200573099761    15.994914619570
         C           -2.931038897435     0.361749723570    -0.496821099761    12.000000000000
         C           -1.510740897435     0.839372723570    -0.402049099761    12.000000000000
         C            0.843856102565     0.837595723570     0.419010900239    12.000000000000
         C           -0.539276897435     0.276263723570     0.331840900239    12.000000000000
         C           -3.262335897435    -0.868342276430     0.341551900239    12.000000000000
         C            2.035579102565    -0.305404976430    -0.018679399761    12.000000000000
         H           -3.597245897435     1.189072723570    -0.211708099761     1.007825032230
         H           -3.162240897435     0.157298723570    -1.554556099761     1.007825032230
         H           -1.269993897435     1.733093723570    -0.987929099761     1.007825032230
         H            0.964105102565     1.727404723570    -0.215776099761     1.007825032230
         H            1.082570102565     1.167187723570     1.438326900239     1.007825032230
         H           -0.727759897435    -0.630350276430     0.908708900239     1.007825032230
         H           -4.310325897435    -1.148449276430     0.217734900239     1.007825032230
         H           -2.646082897435    -1.722845276430     0.044217900239     1.007825032230
         H           -3.088615897435    -0.675698276430     1.405496900239     1.007825032230
         H            3.754004102565    -0.321190276430    -0.223953099761     1.007825032230

  Basis Set: AUG-CC-PVTZ
    Blend: AUG-CC-PVTZ
  Basis Set: (AUG-CC-PVTZ AUX)
    Blend: AUG-CC-PVTZ-JKFIT
	 Reference Energy          =    -382.8613513729438864 [Eh]
	 Singles Energy            =      -0.0000000000000000 [Eh]
	 Same-Spin Energy          =      -0.3820329814573944 [Eh]
	 Opposite-Spin Energy      =      -1.2517657184782249 [Eh]
	 Correlation Energy        =      -1.6337986999356193 [Eh]
	 Total Energy              =    -384.4951500728794827 [Eh]

	 ================> DF-SCS-MP2 Energies <==================
	-----------------------------------------------------------
	 SCS Same-Spin Scale       =       0.3333333333333333 [-]
	 SCS Opposite-Spin Scale   =       1.2000000000000000 [-]
	 SCS Same-Spin Energy      =      -0.1273443271524648 [Eh]
	 SCS Opposite-Spin Energy  =      -1.5021188621738699 [Eh]
	 SCS Correlation Energy    =      -1.6294631893263347 [Eh]
	 SCS Total Energy          =    -384.4908145622702023 [Eh]
	-----------------------------------------------------------

  Dipole Moment: [D]
     X:     0.9330      Y:     0.5700      Z:    -0.0689     Total:     1.0955

*** Psi4 exiting successfully. Buy a developer a beer!
