                               Psi4 1.3.2 release

  ==> Input File <==

--------------------------------------------------------------------------
#psi4
#
memory 32 gb

molecule  {
0 1
  O        3.1501630     0.3869830     0.0122970
  O        1.7226580    -1.3643080    -0.2059640
  C       -2.9106527     0.3281400    -0.4857010
  C       -1.4960630     0.8252950    -0.4074400
  C        0.8585340     0.8235180     0.4136200
  C       -0.5398155     0.2459725     0.3337784
  C       -3.2476580    -0.8824200     0.3361610
  C        1.9107340    -0.1856640     0.0271730
  H       -3.5825680     1.1749950    -0.2170990
  H       -3.1475630     0.1432210    -1.5599470
  H       -1.2553160     1.7190160    -0.9933200
  H        0.9787830     1.7133270    -0.2211670
  H        1.0972480     1.1531100     1.4329360
  H       -0.7130820    -0.6444280     0.9033180
  H       -4.2956480    -1.1625270     0.2123440
  H       -2.6314050    -1.7369230     0.0388270
  H       -3.0739380    -0.6897760     1.4001060
  H        3.7686820    -0.3352680    -0.2293440
units angstrom
no_reorient  #important for SAPT in psi4, default
symmetry c1  #important for SAPT in psi4, default
}

set PROPERTIES_ORIGIN ["COM"]
properties('MP2/aug-cc-pvtz', properties = ['dipole'])
--------------------------------------------------------------------------

    Molecular point group: c1
  Charge       = 0
  Multiplicity = 1
  Basis Set: AUG-CC-PVTZ
    Blend: AUG-CC-PVTZ
  Basis Set: (AUG-CC-PVTZ AUX)
    Blend: AUG-CC-PVTZ-JKFIT

    Orbital Energies [Eh]
    ---------------------

    Doubly Occupied:

       1A    -20.615375     2A    -20.552411     3A    -11.389993
       4A    -11.254506     5A    -11.235911     6A    -11.231597
       7A    -11.230819     8A    -11.214119     9A     -1.458258
      10A     -1.357782    11A     -1.102692    12A     -1.045546
      13A     -0.962076    14A     -0.868940    15A     -0.803920
      16A     -0.741771    17A     -0.702917    18A     -0.681128
      19A     -0.652890    20A     -0.626907    21A     -0.610813
      22A     -0.600723    23A     -0.581930    24A     -0.551090
      25A     -0.531988    26A     -0.493617    27A     -0.493401
      28A     -0.485594    29A     -0.480105    30A     -0.455135
      31A     -0.353513

  @DF-RHF Final Energy:  -382.90170116880608

   => Energetics <=

    Nuclear Repulsion Energy =            355.1838000987040687
    One-Electron Energy =               -1225.4360616175952146
    Two-Electron Energy =                 487.3505603500850611
    Total Energy =                       -382.9017011688060848
  Basis Set: (AUG-CC-PVTZ AUX)
    Blend: AUG-CC-PVTZ-RI
    Molecular point group: c1

    Geometry (in Angstrom), charge = 0, multiplicity = 1:

       Center              X                  Y                   Z               Mass
    ------------   -----------------  -----------------  -----------------  -----------------
         O            3.151163234492     0.390743390233     0.009789175167    15.994914619570
         O            1.723658234492    -1.360547609767    -0.208471824833    15.994914619570
         C           -2.909652465508     0.331900390233    -0.488208824833    12.000000000000
         C           -1.495062765508     0.829055390233    -0.409947824833    12.000000000000
         C            0.859534234492     0.827278390233     0.411112175167    12.000000000000
         C           -0.538815265508     0.249732890233     0.331270575167    12.000000000000
         C           -3.246657765508    -0.878659609767     0.333653175167    12.000000000000
         C            1.911734234492    -0.181903609767     0.024665175167    12.000000000000
         H           -3.581567765508     1.178755390233    -0.219606824833     1.007825032230
         H           -3.146562765508     0.146981390233    -1.562454824833     1.007825032230
         H           -1.254315765508     1.722776390233    -0.995827824833     1.007825032230
         H            0.979783234492     1.717087390233    -0.223674824833     1.007825032230
         H            1.098248234492     1.156870390233     1.430428175167     1.007825032230
         H           -0.712081765508    -0.640667609767     0.900810175167     1.007825032230
         H           -4.294647765508    -1.158766609767     0.209836175167     1.007825032230
         H           -2.630404765508    -1.733162609767     0.036319175167     1.007825032230
         H           -3.072937765508    -0.686015609767     1.397598175167     1.007825032230
         H            3.769682234492    -0.331507609767    -0.231851824833     1.007825032230

  Basis Set: AUG-CC-PVTZ
    Blend: AUG-CC-PVTZ
  Basis Set: (AUG-CC-PVTZ AUX)
    Blend: AUG-CC-PVTZ-JKFIT
	 Reference Energy          =    -382.9017011688060848 [Eh]
	 Singles Energy            =      -0.0000000000000000 [Eh]
	 Same-Spin Energy          =      -0.3831823807284981 [Eh]
	 Opposite-Spin Energy      =      -1.2545599577429221 [Eh]
	 Correlation Energy        =      -1.6377423384714200 [Eh]
	 Total Energy              =    -384.5394435072774968 [Eh]

	 ================> DF-SCS-MP2 Energies <==================
	-----------------------------------------------------------
	 SCS Same-Spin Scale       =       0.3333333333333333 [-]
	 SCS Opposite-Spin Scale   =       1.2000000000000000 [-]
	 SCS Same-Spin Energy      =      -0.1277274602428327 [Eh]
	 SCS Opposite-Spin Energy  =      -1.5054719492915065 [Eh]
	 SCS Correlation Energy    =      -1.6331994095343392 [Eh]
	 SCS Total Energy          =    -384.5349005783403982 [Eh]
	-----------------------------------------------------------

  Dipole Moment: [D]
     X:    -0.1985      Y:     1.3852      Z:     0.2088     Total:     1.4149

*** Psi4 exiting successfully. Buy a developer a beer!
