                               Psi4 1.3.2 release

  ==> Input File <==

--------------------------------------------------------------------------
#psi4
#
memory 32 gb

molecule  {
0 1
  O        3.1501630     0.3869830     0.0122970
  O        1.7226580    -1.3643080    -0.2059640
  C       -2.9163610     0.3476720    -0.5022120
  C       -1.4960630     0.8252950    -0.4074400
  C        0.8585340     0.8235180     0.4136200
  C       -0.5171231     0.2704075     0.3227689
  C       -3.2476580    -0.8824200     0.3361610
  C        1.9107340    -0.1856640     0.0271730
  H       -3.5825680     1.1749950    -0.2170990
  H       -3.1475630     0.1432210    -1.5599470
  H       -1.2463168     1.7186398    -0.9901180
  H        0.9787830     1.7133270    -0.2211670
  H        1.0972480     1.1531100     1.4329360
  H       -0.7130820    -0.6444280     0.9033180
  H       -4.2956480    -1.1625270     0.2123440
  H       -2.6314050    -1.7369230     0.0388270
  H       -3.0739380    -0.6897760     1.4001060
  H        3.7686820    -0.3352680    -0.2293440
units angstrom
no_reorient  #important for SAPT in psi4, default
symmetry c1  #important for SAPT in psi4, default
}

set PROPERTIES_ORIGIN ["COM"]
properties('MP2/aug-cc-pvtz', properties = ['dipole'])
--------------------------------------------------------------------------

    Molecular point group: c1
  Charge       = 0
  Multiplicity = 1
  Basis Set: AUG-CC-PVTZ
    Blend: AUG-CC-PVTZ
  Basis Set: (AUG-CC-PVTZ AUX)
    Blend: AUG-CC-PVTZ-JKFIT

    Orbital Energies [Eh]
    ---------------------

    Doubly Occupied:

       1A    -20.615899     2A    -20.552960     3A    -11.390727
       4A    -11.254051     5A    -11.235413     6A    -11.232363
       7A    -11.230571     8A    -11.214889     9A     -1.458794
      10A     -1.358295    11A     -1.103969    12A     -1.046377
      13A     -0.960401    14A     -0.870157    15A     -0.806618
      16A     -0.737786    17A     -0.702933    18A     -0.682890
      19A     -0.654843    20A     -0.626676    21A     -0.612263
      22A     -0.598223    23A     -0.582421    24A     -0.553804
      25A     -0.526987    26A     -0.498329    27A     -0.491831
      28A     -0.484472    29A     -0.480315    30A     -0.456085
      31A     -0.353817

  @DF-RHF Final Energy:  -382.90275730850408

   => Energetics <=

    Nuclear Repulsion Energy =            355.1459887352148144
    One-Electron Energy =               -1225.3471690182325347
    Two-Electron Energy =                 487.2984229745136417
    Total Energy =                       -382.9027573085040785
  Basis Set: (AUG-CC-PVTZ AUX)
    Blend: AUG-CC-PVTZ-RI
    Molecular point group: c1

    Geometry (in Angstrom), charge = 0, multiplicity = 1:

       Center              X                  Y                   Z               Mass
    ------------   -----------------  -----------------  -----------------  -----------------
         O            3.149296990931     0.386121371012     0.012656050330    15.994914619570
         O            1.721791990931    -1.365169628988    -0.205604949670    15.994914619570
         C           -2.917227009069     0.346810371012    -0.501852949670    12.000000000000
         C           -1.496929009069     0.824433371012    -0.407080949670    12.000000000000
         C            0.857667990931     0.822656371012     0.413979050330    12.000000000000
         C           -0.517989109069     0.269545871012     0.323127950330    12.000000000000
         C           -3.248524009069    -0.883281628988     0.336520050330    12.000000000000
         C            1.909867990931    -0.186525628988     0.027532050330    12.000000000000
         H           -3.583434009069     1.174133371012    -0.216739949670     1.007825032230
         H           -3.148429009069     0.142359371012    -1.559587949670     1.007825032230
         H           -1.247182809069     1.717778171012    -0.989758949670     1.007825032230
         H            0.977916990931     1.712465371012    -0.220807949670     1.007825032230
         H            1.096381990931     1.152248371012     1.433295050330     1.007825032230
         H           -0.713948009069    -0.645289628988     0.903677050330     1.007825032230
         H           -4.296514009069    -1.163388628988     0.212703050330     1.007825032230
         H           -2.632271009069    -1.737784628988     0.039186050330     1.007825032230
         H           -3.074804009069    -0.690637628988     1.400465050330     1.007825032230
         H            3.767815990931    -0.336129628988    -0.228984949670     1.007825032230

  Basis Set: AUG-CC-PVTZ
    Blend: AUG-CC-PVTZ
  Basis Set: (AUG-CC-PVTZ AUX)
    Blend: AUG-CC-PVTZ-JKFIT
	 Reference Energy          =    -382.9027573085040785 [Eh]
	 Singles Energy            =      -0.0000000000000000 [Eh]
	 Same-Spin Energy          =      -0.3832386692481096 [Eh]
	 Opposite-Spin Energy      =      -1.2546384213948918 [Eh]
	 Correlation Energy        =      -1.6378770906430014 [Eh]
	 Total Energy              =    -384.5406343991470521 [Eh]

	 ================> DF-SCS-MP2 Energies <==================
	-----------------------------------------------------------
	 SCS Same-Spin Scale       =       0.3333333333333333 [-]
	 SCS Opposite-Spin Scale   =       1.2000000000000000 [-]
	 SCS Same-Spin Energy      =      -0.1277462230827032 [Eh]
	 SCS Opposite-Spin Energy  =      -1.5055661056738701 [Eh]
	 SCS Correlation Energy    =      -1.6333123287565732 [Eh]
	 SCS Total Energy          =    -384.5360696372606526 [Eh]
	-----------------------------------------------------------

  Dipole Moment: [D]
     X:    -0.1725      Y:     1.3876      Z:     0.2090     Total:     1.4138

*** Psi4 exiting successfully. Buy a developer a beer!
