                               Psi4 1.4a3.dev225

  ==> Input File <==

--------------------------------------------------------------------------
#psi4
#
memory 32 gb

molecule  {
0 1
  O       -3.2271830    -0.3786580    -0.1569640
  O       -1.8275510     1.3993140    -0.2614160
  C        2.8225670    -0.4310850    -0.3953020
  C        1.4009980    -0.8942070    -0.2419560
  C       -0.9807690    -0.7586230     0.4926230
  C        0.4143070    -0.2269140     0.3719860
  C        3.1298050     0.9339520     0.2103920
  C       -2.0559768     0.1975897    -0.0242708
  H        3.4859920    -1.1868430     0.0468460
  H        3.0699840    -0.4203720    -1.4654230
  H        1.1737130    -1.8673930    -0.6818980
  H       -1.0998220    -1.7054460    -0.0447970
  H       -1.2414610    -0.9681590     1.5400430
  H        0.5929560     0.7502750     0.8121930
  H        4.1791340     1.1958370     0.0500290
  H        2.5131630     1.7137800    -0.2445400
  H        2.9424530     0.9385920     1.2876810
  H       -3.8316340     0.3284440    -0.4642740
units angstrom
no_reorient  #important for SAPT in psi4, default
symmetry c1  #important for SAPT in psi4, default
}

set PROPERTIES_ORIGIN ["COM"]
properties('MP2/aug-cc-pvtz', properties = ['dipole'])
--------------------------------------------------------------------------

    Molecular point group: c1
  Charge       = 0
  Multiplicity = 1
  Basis Set: AUG-CC-PVTZ
    Blend: AUG-CC-PVTZ
  Basis Set: (AUG-CC-PVTZ AUX)
    Blend: AUG-CC-PVTZ-JKFIT

    Orbital Energies [Eh]
    ---------------------

    Doubly Occupied:

       1A    -20.630803     2A    -20.544082     3A    -11.392170
       4A    -11.253939     5A    -11.233563     6A    -11.230562
       7A    -11.228657     8A    -11.213178     9A     -1.480214
      10A     -1.346020    11A     -1.100305    12A     -1.042255
      13A     -0.959700    14A     -0.873042    15A     -0.820440
      16A     -0.738137    17A     -0.710001    18A     -0.682638
      19A     -0.660818    20A     -0.626284    21A     -0.611588
      22A     -0.600554    23A     -0.574626    24A     -0.554506
      25A     -0.527225    26A     -0.497475    27A     -0.491035
      28A     -0.480586    29A     -0.471857    30A     -0.450049
      31A     -0.352732

  @DF-RHF Final Energy:  -382.90017975656002

   => Energetics <=

    Nuclear Repulsion Energy =            354.8314688154625287
    One-Electron Energy =               -1224.7052154191196678
    Two-Electron Energy =                 486.9735668470970609
    Total Energy =                       -382.9001797565600214
  Basis Set: (AUG-CC-PVTZ AUX)
    Blend: AUG-CC-PVTZ-RI
    Molecular point group: c1

    Geometry (in Angstrom), charge = 0, multiplicity = 1:

       Center              X                  Y                   Z               Mass
    ------------   -----------------  -----------------  -----------------  -----------------
         O           -3.120210282642    -0.386925136478    -0.149180180455    15.994914619570
         O           -1.720578282642     1.391046863522    -0.253632180455    15.994914619570
         C            2.929539717358    -0.439352136478    -0.387518180455    12.000000000000
         C            1.507970717358    -0.902474136478    -0.234172180455    12.000000000000
         C           -0.873796282642    -0.766890136478     0.500406819545    12.000000000000
         C            0.521279717358    -0.235181136478     0.379769819545    12.000000000000
         C            3.236777717358     0.925684863522     0.218175819545    12.000000000000
         C           -1.949004082642     0.189322563522    -0.016486980455    12.000000000000
         H            3.592964717358    -1.195110136478     0.054629819545     1.007825032230
         H            3.176956717358    -0.428639136478    -1.457639180455     1.007825032230
         H            1.280685717358    -1.875660136478    -0.674114180455     1.007825032230
         H           -0.992849282642    -1.713713136478    -0.037013180455     1.007825032230
         H           -1.134488282642    -0.976426136478     1.547826819545     1.007825032230
         H            0.699928717358     0.742007863522     0.819976819545     1.007825032230
         H            4.286106717358     1.187569863522     0.057812819545     1.007825032230
         H            2.620135717358     1.705512863522    -0.236756180455     1.007825032230
         H            3.049425717358     0.930324863522     1.295464819545     1.007825032230
         H           -3.724661282642     0.320176863522    -0.456490180455     1.007825032230

  Basis Set: AUG-CC-PVTZ
    Blend: AUG-CC-PVTZ
  Basis Set: (AUG-CC-PVTZ AUX)
    Blend: AUG-CC-PVTZ-JKFIT
	 Reference Energy          =    -382.9001797565600214 [Eh]
	 Singles Energy            =      -0.0000000000000000 [Eh]
	 Same-Spin Energy          =      -0.3832067796695063 [Eh]
	 Opposite-Spin Energy      =      -1.2543148407488509 [Eh]
	 Correlation Energy        =      -1.6375216204183571 [Eh]
	 Total Energy              =    -384.5377013769783616 [Eh]

	 ================> DF-SCS-MP2 Energies <==================
	-----------------------------------------------------------
	 SCS Same-Spin Scale       =       0.3333333333333333 [-]
	 SCS Opposite-Spin Scale   =       1.2000000000000000 [-]
	 SCS Same-Spin Energy      =      -0.1277355932231687 [Eh]
	 SCS Opposite-Spin Energy  =      -1.5051778088986210 [Eh]
	 SCS Correlation Energy    =      -1.6329134021217897 [Eh]
	 SCS Total Energy          =    -384.5330931586818224 [Eh]
	-----------------------------------------------------------

  Dipole Moment: [D]
     X:    -0.2235      Y:    -1.6110      Z:     0.2024     Total:     1.6390

*** Psi4 exiting successfully. Buy a developer a beer!
