                               Psi4 1.3.2 release

  ==> Input File <==

--------------------------------------------------------------------------
#psi4
#
memory 32 gb

molecule  {
0 1
  O        3.1501630     0.3869830     0.0122970
  O        1.7226580    -1.3643080    -0.2059640
  C       -2.9106060     0.3280304    -0.4858478
  C       -1.4960630     0.8252950    -0.4074400
  C        0.8585340     0.8235180     0.4136200
  C       -0.5245990     0.2621860     0.3264500
  C       -3.2476580    -0.8824200     0.3361610
  C        1.9107340    -0.1856640     0.0271730
  H       -3.5825680     1.1749950    -0.2170990
  H       -3.1475630     0.1432210    -1.5599470
  H       -1.2373049     1.7181222    -0.9869704
  H        0.9787830     1.7133270    -0.2211670
  H        1.0972480     1.1531100     1.4329360
  H       -0.7130820    -0.6444280     0.9033180
  H       -4.2956480    -1.1625270     0.2123440
  H       -2.6314050    -1.7369230     0.0388270
  H       -3.0739380    -0.6897760     1.4001060
  H        3.7686820    -0.3352680    -0.2293440
units angstrom
no_reorient  #important for SAPT in psi4, default
symmetry c1  #important for SAPT in psi4, default
}

set PROPERTIES_ORIGIN ["COM"]
properties('MP2/aug-cc-pvtz', properties = ['dipole'])
--------------------------------------------------------------------------

    Molecular point group: c1
  Charge       = 0
  Multiplicity = 1
  Basis Set: AUG-CC-PVTZ
    Blend: AUG-CC-PVTZ
  Basis Set: (AUG-CC-PVTZ AUX)
    Blend: AUG-CC-PVTZ-JKFIT

    Orbital Energies [Eh]
    ---------------------

    Doubly Occupied:

       1A    -20.615688     2A    -20.552738     3A    -11.390424
       4A    -11.254109     5A    -11.235572     6A    -11.231794
       7A    -11.231554     8A    -11.214349     9A     -1.458578
      10A     -1.358086    11A     -1.104078    12A     -1.047415
      13A     -0.962375    14A     -0.868702    15A     -0.805157
      16A     -0.738976    17A     -0.702943    18A     -0.682119
      19A     -0.654000    20A     -0.627802    21A     -0.611033
      22A     -0.598689    23A     -0.582181    24A     -0.553095
      25A     -0.530914    26A     -0.493724    27A     -0.490942
      28A     -0.487063    29A     -0.481620    30A     -0.455721
      31A     -0.352997

  @DF-RHF Final Energy:  -382.90192934907282

   => Energetics <=

    Nuclear Repulsion Energy =            355.3277531966435276
    One-Electron Energy =               -1225.7104949552781363
    Two-Electron Energy =                 487.4808124095618496
    Total Energy =                       -382.9019293490728160
  Basis Set: (AUG-CC-PVTZ AUX)
    Blend: AUG-CC-PVTZ-RI
    Molecular point group: c1

    Geometry (in Angstrom), charge = 0, multiplicity = 1:

       Center              X                  Y                   Z               Mass
    ------------   -----------------  -----------------  -----------------  -----------------
         O            3.149398407398     0.389057151570     0.010519468115    15.994914619570
         O            1.721893407398    -1.362233848430    -0.207741531885    15.994914619570
         C           -2.911370592602     0.330104551570    -0.487625331885    12.000000000000
         C           -1.496827592602     0.827369151570    -0.409217531885    12.000000000000
         C            0.857769407398     0.825592151570     0.411842468115    12.000000000000
         C           -0.525363592602     0.264260151570     0.324672468115    12.000000000000
         C           -3.248422592602    -0.880345848430     0.334383468115    12.000000000000
         C            1.909969407398    -0.183589848430     0.025395468115    12.000000000000
         H           -3.583332592602     1.177069151570    -0.218876531885     1.007825032230
         H           -3.148327592602     0.145295151570    -1.561724531885     1.007825032230
         H           -1.238069492602     1.720196351570    -0.988747931885     1.007825032230
         H            0.978018407398     1.715401151570    -0.222944531885     1.007825032230
         H            1.096483407398     1.155184151570     1.431158468115     1.007825032230
         H           -0.713846592602    -0.642353848430     0.901540468115     1.007825032230
         H           -4.296412592602    -1.160452848430     0.210566468115     1.007825032230
         H           -2.632169592602    -1.734848848430     0.037049468115     1.007825032230
         H           -3.074702592602    -0.687701848430     1.398328468115     1.007825032230
         H            3.767917407398    -0.333193848430    -0.231121531885     1.007825032230

  Basis Set: AUG-CC-PVTZ
    Blend: AUG-CC-PVTZ
  Basis Set: (AUG-CC-PVTZ AUX)
    Blend: AUG-CC-PVTZ-JKFIT
	 Reference Energy          =    -382.9019293490728160 [Eh]
	 Singles Energy            =      -0.0000000000000000 [Eh]
	 Same-Spin Energy          =      -0.3833639205213646 [Eh]
	 Opposite-Spin Energy      =      -1.2547226203605737 [Eh]
	 Correlation Energy        =      -1.6380865408819383 [Eh]
	 Total Energy              =    -384.5400158899547591 [Eh]

	 ================> DF-SCS-MP2 Energies <==================
	-----------------------------------------------------------
	 SCS Same-Spin Scale       =       0.3333333333333333 [-]
	 SCS Opposite-Spin Scale   =       1.2000000000000000 [-]
	 SCS Same-Spin Energy      =      -0.1277879735071215 [Eh]
	 SCS Opposite-Spin Energy  =      -1.5056671444326883 [Eh]
	 SCS Correlation Energy    =      -1.6334551179398098 [Eh]
	 SCS Total Energy          =    -384.5353844670126477 [Eh]
	-----------------------------------------------------------

  Dipole Moment: [D]
     X:    -0.1872      Y:     1.3776      Z:     0.2142     Total:     1.4066

*** Psi4 exiting successfully. Buy a developer a beer!
