                               Psi4 1.4a3.dev225

  ==> Input File <==

--------------------------------------------------------------------------
#psi4
#
memory 32 gb

molecule  {
0 1
  O       -3.2271830    -0.3786580    -0.1569640
  O       -1.8275510     1.3993140    -0.2614160
  C        2.8225670    -0.4310850    -0.3953020
  C        1.4009980    -0.8942070    -0.2419560
  C       -0.9807690    -0.7586230     0.4926230
  C        0.4143070    -0.2269140     0.3719860
  C        3.1298050     0.9339520     0.2103920
  C       -2.0291965     0.2107659    -0.0212367
  H        3.4859920    -1.1868430     0.0468460
  H        3.0699840    -0.4203720    -1.4654230
  H        1.1737130    -1.8673930    -0.6818980
  H       -1.0998220    -1.7054460    -0.0447970
  H       -1.2414610    -0.9681590     1.5400430
  H        0.5929560     0.7502750     0.8121930
  H        4.1791340     1.1958370     0.0500290
  H        2.5131630     1.7137800    -0.2445400
  H        2.9424530     0.9385920     1.2876810
  H       -3.8316340     0.3284440    -0.4642740
units angstrom
no_reorient  #important for SAPT in psi4, default
symmetry c1  #important for SAPT in psi4, default
}

set PROPERTIES_ORIGIN ["COM"]
properties('MP2/aug-cc-pvtz', properties = ['dipole'])
--------------------------------------------------------------------------

    Molecular point group: c1
  Charge       = 0
  Multiplicity = 1
  Basis Set: AUG-CC-PVTZ
    Blend: AUG-CC-PVTZ
  Basis Set: (AUG-CC-PVTZ AUX)
    Blend: AUG-CC-PVTZ-JKFIT

    Orbital Energies [Eh]
    ---------------------

    Doubly Occupied:

       1A    -20.622206     2A    -20.549008     3A    -11.391576
       4A    -11.254381     5A    -11.234503     6A    -11.231400
       7A    -11.229359     8A    -11.213907     9A     -1.466739
      10A     -1.353865    11A     -1.102049    12A     -1.044231
      13A     -0.960311    14A     -0.871347    15A     -0.812677
      16A     -0.739256    17A     -0.705300    18A     -0.682725
      19A     -0.657229    20A     -0.625271    21A     -0.612274
      22A     -0.600330    23A     -0.579069    24A     -0.554473
      25A     -0.528099    26A     -0.498226    27A     -0.491887
      28A     -0.482452    29A     -0.477058    30A     -0.453787
      31A     -0.353820

  @DF-RHF Final Energy:  -382.90312520122836

   => Energetics <=

    Nuclear Repulsion Energy =            354.9216359248313211
    One-Electron Energy =               -1224.8918970096285648
    Two-Electron Energy =                 487.0671358835688807
    Total Energy =                       -382.9031252012283630
  Basis Set: (AUG-CC-PVTZ AUX)
    Blend: AUG-CC-PVTZ-RI
    Molecular point group: c1

    Geometry (in Angstrom), charge = 0, multiplicity = 1:

       Center              X                  Y                   Z               Mass
    ------------   -----------------  -----------------  -----------------  -----------------
         O           -3.123027579131    -0.388311277110    -0.149499368787    15.994914619570
         O           -1.723395579131     1.389660722890    -0.253951368787    15.994914619570
         C            2.926722420869    -0.440738277110    -0.387837368787    12.000000000000
         C            1.505153420869    -0.903860277110    -0.234491368787    12.000000000000
         C           -0.876613579131    -0.768276277110     0.500087631213    12.000000000000
         C            0.518462420869    -0.236567277110     0.379450631213    12.000000000000
         C            3.233960420869     0.924298722890     0.217856631213    12.000000000000
         C           -1.925041079131     0.201112622890    -0.013772068787    12.000000000000
         H            3.590147420869    -1.196496277110     0.054310631213     1.007825032230
         H            3.174139420869    -0.430025277110    -1.457958368787     1.007825032230
         H            1.277868420869    -1.877046277110    -0.674433368787     1.007825032230
         H           -0.995666579131    -1.715099277110    -0.037332368787     1.007825032230
         H           -1.137305579131    -0.977812277110     1.547507631213     1.007825032230
         H            0.697111420869     0.740621722890     0.819657631213     1.007825032230
         H            4.283289420869     1.186183722890     0.057493631213     1.007825032230
         H            2.617318420869     1.704126722890    -0.237075368787     1.007825032230
         H            3.046608420869     0.928938722890     1.295145631213     1.007825032230
         H           -3.727478579131     0.318790722890    -0.456809368787     1.007825032230

  Basis Set: AUG-CC-PVTZ
    Blend: AUG-CC-PVTZ
  Basis Set: (AUG-CC-PVTZ AUX)
    Blend: AUG-CC-PVTZ-JKFIT
	 Reference Energy          =    -382.9031252012283630 [Eh]
	 Singles Energy            =      -0.0000000000000000 [Eh]
	 Same-Spin Energy          =      -0.3830758679716098 [Eh]
	 Opposite-Spin Energy      =      -1.2542390686774971 [Eh]
	 Correlation Energy        =      -1.6373149366491069 [Eh]
	 Total Energy              =    -384.5404401378774537 [Eh]

	 ================> DF-SCS-MP2 Energies <==================
	-----------------------------------------------------------
	 SCS Same-Spin Scale       =       0.3333333333333333 [-]
	 SCS Opposite-Spin Scale   =       1.2000000000000000 [-]
	 SCS Same-Spin Energy      =      -0.1276919559905366 [Eh]
	 SCS Opposite-Spin Energy  =      -1.5050868824129966 [Eh]
	 SCS Correlation Energy    =      -1.6327788384035331 [Eh]
	 SCS Total Energy          =    -384.5359040396318733 [Eh]
	-----------------------------------------------------------

  Dipole Moment: [D]
     X:     0.0079      Y:    -1.4938      Z:     0.2245     Total:     1.5106

*** Psi4 exiting successfully. Buy a developer a beer!
