                               Psi4 1.3.2 release

  ==> Input File <==

--------------------------------------------------------------------------
#psi4
#
memory 32 gb

molecule  {
0 1
  O        3.1596318     0.3658473     0.0066830
  O        1.7435286    -1.3668769    -0.2088475
  C       -2.9163610     0.3476720    -0.5022120
  C       -1.4960630     0.8252950    -0.4074400
  C        0.8585340     0.8235180     0.4136200
  C       -0.5245990     0.2621860     0.3264500
  C       -3.2476580    -0.8824200     0.3361610
  C        1.9107340    -0.1856640     0.0271730
  H       -3.5825680     1.1749950    -0.2170990
  H       -3.1475630     0.1432210    -1.5599470
  H       -1.2553160     1.7190160    -0.9933200
  H        0.9787830     1.7133270    -0.2211670
  H        1.0972480     1.1531100     1.4329360
  H       -0.7130820    -0.6444280     0.9033180
  H       -4.2956480    -1.1625270     0.2123440
  H       -2.6314050    -1.7369230     0.0388270
  H       -3.0739380    -0.6897760     1.4001060
  H        3.7686820    -0.3352680    -0.2293440
units angstrom
no_reorient  #important for SAPT in psi4, default
symmetry c1  #important for SAPT in psi4, default
}

set PROPERTIES_ORIGIN ["COM"]
properties('MP2/aug-cc-pvtz', properties = ['dipole'])
--------------------------------------------------------------------------

    Molecular point group: c1
  Charge       = 0
  Multiplicity = 1
  Basis Set: AUG-CC-PVTZ
    Blend: AUG-CC-PVTZ
  Basis Set: (AUG-CC-PVTZ AUX)
    Blend: AUG-CC-PVTZ-JKFIT

    Orbital Energies [Eh]
    ---------------------

    Doubly Occupied:

       1A    -20.610739     2A    -20.551271     3A    -11.390335
       4A    -11.256459     5A    -11.236651     6A    -11.233453
       7A    -11.230776     8A    -11.215290     9A     -1.460740
      10A     -1.356604    11A     -1.104392    12A     -1.046797
      13A     -0.961567    14A     -0.871735    15A     -0.810244
      16A     -0.740118    17A     -0.702489    18A     -0.682882
      19A     -0.654292    20A     -0.627283    21A     -0.612714
      22A     -0.598990    23A     -0.582333    24A     -0.553785
      25A     -0.529055    26A     -0.498788    27A     -0.491982
      28A     -0.484361    29A     -0.479924    30A     -0.455576
      31A     -0.355179

  @DF-RHF Final Energy:  -382.90449578999863

   => Energetics <=

    Nuclear Repulsion Energy =            354.9891348080136595
    One-Electron Energy =               -1225.0136540322382643
    Two-Electron Energy =                 487.1200234342259705
    Total Energy =                       -382.9044957899986343
  Basis Set: (AUG-CC-PVTZ AUX)
    Blend: AUG-CC-PVTZ-RI
    Molecular point group: c1

    Geometry (in Angstrom), charge = 0, multiplicity = 1:

       Center              X                  Y                   Z               Mass
    ------------   -----------------  -----------------  -----------------  -----------------
         O            3.155377501279     0.369171170682     0.007874628937    15.994914619570
         O            1.739274301279    -1.363553029318    -0.207655871063    15.994914619570
         C           -2.920615298721     0.350995870682    -0.501020371063    12.000000000000
         C           -1.500317298721     0.828618870682    -0.406248371063    12.000000000000
         C            0.854279701279     0.826841870682     0.414811628937    12.000000000000
         C           -0.528853298721     0.265509870682     0.327641628937    12.000000000000
         C           -3.251912298721    -0.879096129318     0.337352628937    12.000000000000
         C            1.906479701279    -0.182340129318     0.028364628937    12.000000000000
         H           -3.586822298721     1.178318870682    -0.215907371063     1.007825032230
         H           -3.151817298721     0.146544870682    -1.558755371063     1.007825032230
         H           -1.259570298721     1.722339870682    -0.992128371063     1.007825032230
         H            0.974528701279     1.716650870682    -0.219975371063     1.007825032230
         H            1.092993701279     1.156433870682     1.434127628937     1.007825032230
         H           -0.717336298721    -0.641104129318     0.904509628937     1.007825032230
         H           -4.299902298721    -1.159203129318     0.213535628937     1.007825032230
         H           -2.635659298721    -1.733599129318     0.040018628937     1.007825032230
         H           -3.078192298721    -0.686452129318     1.401297628937     1.007825032230
         H            3.764427701279    -0.331944129318    -0.228152371063     1.007825032230

  Basis Set: AUG-CC-PVTZ
    Blend: AUG-CC-PVTZ
  Basis Set: (AUG-CC-PVTZ AUX)
    Blend: AUG-CC-PVTZ-JKFIT
	 Reference Energy          =    -382.9044957899986343 [Eh]
	 Singles Energy            =      -0.0000000000000000 [Eh]
	 Same-Spin Energy          =      -0.3826482263722195 [Eh]
	 Opposite-Spin Energy      =      -1.2534864382238140 [Eh]
	 Correlation Energy        =      -1.6361346645960335 [Eh]
	 Total Energy              =    -384.5406304545946909 [Eh]

	 ================> DF-SCS-MP2 Energies <==================
	-----------------------------------------------------------
	 SCS Same-Spin Scale       =       0.3333333333333333 [-]
	 SCS Opposite-Spin Scale   =       1.2000000000000000 [-]
	 SCS Same-Spin Energy      =      -0.1275494087907398 [Eh]
	 SCS Opposite-Spin Energy  =      -1.5041837258685768 [Eh]
	 SCS Correlation Energy    =      -1.6317331346593167 [Eh]
	 SCS Total Energy          =    -384.5362289246579621 [Eh]
	-----------------------------------------------------------

  Dipole Moment: [D]
     X:    -0.2961      Y:     1.4401      Z:     0.2246     Total:     1.4873

*** Psi4 exiting successfully. Buy a developer a beer!
