                               Psi4 1.3.2 release

  ==> Input File <==

--------------------------------------------------------------------------
#psi4
#
memory 32 gb

molecule  {
0 1
  O        3.1501630     0.3869830     0.0122970
  O        1.7226580    -1.3643080    -0.2059640
  C       -2.8979453     0.2895363    -0.4526124
  C       -1.4960630     0.8252950    -0.4074400
  C        0.8585340     0.8235180     0.4136200
  C       -0.5711176     0.2140799     0.3477557
  C       -3.2476580    -0.8824200     0.3361610
  C        1.9107340    -0.1856640     0.0271730
  H       -3.5825680     1.1749950    -0.2170990
  H       -3.1475630     0.1432210    -1.5599470
  H       -1.2553160     1.7190160    -0.9933200
  H        0.9787830     1.7133270    -0.2211670
  H        1.0972480     1.1531100     1.4329360
  H       -0.7130820    -0.6444280     0.9033180
  H       -4.2956480    -1.1625270     0.2123440
  H       -2.6314050    -1.7369230     0.0388270
  H       -3.0739380    -0.6897760     1.4001060
  H        3.7686820    -0.3352680    -0.2293440
units angstrom
no_reorient  #important for SAPT in psi4, default
symmetry c1  #important for SAPT in psi4, default
}

set PROPERTIES_ORIGIN ["COM"]
properties('MP2/aug-cc-pvtz', properties = ['dipole'])
--------------------------------------------------------------------------

    Molecular point group: c1
  Charge       = 0
  Multiplicity = 1
  Basis Set: AUG-CC-PVTZ
    Blend: AUG-CC-PVTZ
  Basis Set: (AUG-CC-PVTZ AUX)
    Blend: AUG-CC-PVTZ-JKFIT

    Orbital Energies [Eh]
    ---------------------

    Doubly Occupied:

       1A    -20.614621     2A    -20.551603     3A    -11.388962
       4A    -11.254821     5A    -11.237447     6A    -11.233083
       7A    -11.230536     8A    -11.212897     9A     -1.457477
      10A     -1.357019    11A     -1.103694    12A     -1.045599
      13A     -0.966131    14A     -0.866542    15A     -0.800232
      16A     -0.747619    17A     -0.702611    18A     -0.678854
      19A     -0.650476    20A     -0.628626    21A     -0.609737
      22A     -0.606129    23A     -0.581374    24A     -0.549845
      25A     -0.537704    26A     -0.506274    27A     -0.483470
      28A     -0.483163    29A     -0.471350    30A     -0.453542
      31A     -0.352285

  @DF-RHF Final Energy:  -382.89017710367693

   => Energetics <=

    Nuclear Repulsion Energy =            355.4353780366805609
    One-Electron Energy =               -1225.9236614407918751
    Two-Electron Energy =                 487.5981063004344378
    Total Energy =                       -382.8901771036769333
  Basis Set: (AUG-CC-PVTZ AUX)
    Blend: AUG-CC-PVTZ-RI
    Molecular point group: c1

    Geometry (in Angstrom), charge = 0, multiplicity = 1:

       Center              X                  Y                   Z               Mass
    ------------   -----------------  -----------------  -----------------  -----------------
         O            3.153119403132     0.398159624496     0.004837826795    15.994914619570
         O            1.725614403132    -1.353131375504    -0.213423173205    15.994914619570
         C           -2.894988896868     0.300712924496    -0.460071573205    12.000000000000
         C           -1.493106596868     0.836471624496    -0.414899173205    12.000000000000
         C            0.861490403132     0.834694624496     0.406160826795    12.000000000000
         C           -0.568161196868     0.225256524496     0.340296526795    12.000000000000
         C           -3.244701596868    -0.871243375504     0.328701826795    12.000000000000
         C            1.913690403132    -0.174487375504     0.019713826795    12.000000000000
         H           -3.579611596868     1.186171624496    -0.224558173205     1.007825032230
         H           -3.144606596868     0.154397624496    -1.567406173205     1.007825032230
         H           -1.252359596868     1.730192624496    -1.000779173205     1.007825032230
         H            0.981739403132     1.724503624496    -0.228626173205     1.007825032230
         H            1.100204403132     1.164286624496     1.425476826795     1.007825032230
         H           -0.710125596868    -0.633251375504     0.895858826795     1.007825032230
         H           -4.292691596868    -1.151350375504     0.204884826795     1.007825032230
         H           -2.628448596868    -1.725746375504     0.031367826795     1.007825032230
         H           -3.070981596868    -0.678599375504     1.392646826795     1.007825032230
         H            3.771638403132    -0.324091375504    -0.236803173205     1.007825032230

  Basis Set: AUG-CC-PVTZ
    Blend: AUG-CC-PVTZ
  Basis Set: (AUG-CC-PVTZ AUX)
    Blend: AUG-CC-PVTZ-JKFIT
	 Reference Energy          =    -382.8901771036769333 [Eh]
	 Singles Energy            =      -0.0000000000000000 [Eh]
	 Same-Spin Energy          =      -0.3835550990831543 [Eh]
	 Opposite-Spin Energy      =      -1.2552131160948559 [Eh]
	 Correlation Energy        =      -1.6387682151780103 [Eh]
	 Total Energy              =    -384.5289453188549373 [Eh]

	 ================> DF-SCS-MP2 Energies <==================
	-----------------------------------------------------------
	 SCS Same-Spin Scale       =       0.3333333333333333 [-]
	 SCS Opposite-Spin Scale   =       1.2000000000000000 [-]
	 SCS Same-Spin Energy      =      -0.1278516996943848 [Eh]
	 SCS Opposite-Spin Energy  =      -1.5062557393138269 [Eh]
	 SCS Correlation Energy    =      -1.6341074390082118 [Eh]
	 SCS Total Energy          =    -384.5242845426851659 [Eh]
	-----------------------------------------------------------

  Dipole Moment: [D]
     X:    -0.2422      Y:     1.3724      Z:     0.2129     Total:     1.4098

*** Psi4 exiting successfully. Buy a developer a beer!
