                               Psi4 1.3.2 release

  ==> Input File <==

--------------------------------------------------------------------------
#psi4
#
memory 32 gb

molecule  {
0 1
  O        3.1501630     0.3869830     0.0122970
  O        1.7226580    -1.3643080    -0.2059640
  C       -2.9163610     0.3476720    -0.5022120
  C       -1.4960630     0.8252950    -0.4074400
  C        0.8585340     0.8235180     0.4136200
  C       -0.5196552     0.2507649     0.3225286
  C       -3.2476580    -0.8824200     0.3361610
  C        1.9012988    -0.1945744     0.0249765
  H       -3.5825680     1.1749950    -0.2170990
  H       -3.1475630     0.1432210    -1.5599470
  H       -1.2553160     1.7190160    -0.9933200
  H        0.9787830     1.7133270    -0.2211670
  H        1.0972480     1.1531100     1.4329360
  H       -0.7130820    -0.6444280     0.9033180
  H       -4.2956480    -1.1625270     0.2123440
  H       -2.6314050    -1.7369230     0.0388270
  H       -3.0739380    -0.6897760     1.4001060
  H        3.7686820    -0.3352680    -0.2293440
units angstrom
no_reorient  #important for SAPT in psi4, default
symmetry c1  #important for SAPT in psi4, default
}

set PROPERTIES_ORIGIN ["COM"]
properties('MP2/aug-cc-pvtz', properties = ['dipole'])
--------------------------------------------------------------------------

    Molecular point group: c1
  Charge       = 0
  Multiplicity = 1
  Basis Set: AUG-CC-PVTZ
    Blend: AUG-CC-PVTZ
  Basis Set: (AUG-CC-PVTZ AUX)
    Blend: AUG-CC-PVTZ-JKFIT

    Orbital Energies [Eh]
    ---------------------

    Doubly Occupied:

       1A    -20.611901     2A    -20.555192     3A    -11.389556
       4A    -11.254282     5A    -11.236606     6A    -11.232814
       7A    -11.230245     8A    -11.215044     9A     -1.456843
      10A     -1.360997    11A     -1.102823    12A     -1.045712
      13A     -0.959036    14A     -0.869808    15A     -0.802106
      16A     -0.740675    17A     -0.702715    18A     -0.681976
      19A     -0.653539    20A     -0.625653    21A     -0.612311
      22A     -0.599399    23A     -0.583416    24A     -0.551521
      25A     -0.529219    26A     -0.498409    27A     -0.491298
      28A     -0.487497    29A     -0.482123    30A     -0.456549
      31A     -0.352806

  @DF-RHF Final Energy:  -382.90282039937608

   => Energetics <=

    Nuclear Repulsion Energy =            355.1305480823771745
    One-Electron Energy =               -1225.3225988150250032
    Two-Electron Energy =                 487.2892303332718029
    Total Energy =                       -382.9028203993760826
  Basis Set: (AUG-CC-PVTZ AUX)
    Blend: AUG-CC-PVTZ-RI
    Molecular point group: c1

    Geometry (in Angstrom), charge = 0, multiplicity = 1:

       Center              X                  Y                   Z               Mass
    ------------   -----------------  -----------------  -----------------  -----------------
         O            3.150635465460     0.389121832294     0.012940693114    15.994914619570
         O            1.723130465460    -1.362169167706    -0.205320306886    15.994914619570
         C           -2.915888534540     0.349810832294    -0.501568306886    12.000000000000
         C           -1.495590534540     0.827433832294    -0.406796306886    12.000000000000
         C            0.859006465460     0.825656832294     0.414263693114    12.000000000000
         C           -0.519182734540     0.252903732294     0.323172293114    12.000000000000
         C           -3.247185534540    -0.880281167706     0.336804693114    12.000000000000
         C            1.901771265460    -0.192435567706     0.025620193114    12.000000000000
         H           -3.582095534540     1.177133832294    -0.216455306886     1.007825032230
         H           -3.147090534540     0.145359832294    -1.559303306886     1.007825032230
         H           -1.254843534540     1.721154832294    -0.992676306886     1.007825032230
         H            0.979255465460     1.715465832294    -0.220523306886     1.007825032230
         H            1.097720465460     1.155248832294     1.433579693114     1.007825032230
         H           -0.712609534540    -0.642289167706     0.903961693114     1.007825032230
         H           -4.295175534540    -1.160388167706     0.212987693114     1.007825032230
         H           -2.630932534540    -1.734784167706     0.039470693114     1.007825032230
         H           -3.073465534540    -0.687637167706     1.400749693114     1.007825032230
         H            3.769154465460    -0.333129167706    -0.228700306886     1.007825032230

  Basis Set: AUG-CC-PVTZ
    Blend: AUG-CC-PVTZ
  Basis Set: (AUG-CC-PVTZ AUX)
    Blend: AUG-CC-PVTZ-JKFIT
	 Reference Energy          =    -382.9028203993760826 [Eh]
	 Singles Energy            =      -0.0000000000000000 [Eh]
	 Same-Spin Energy          =      -0.3830811662998852 [Eh]
	 Opposite-Spin Energy      =      -1.2545382978045985 [Eh]
	 Correlation Energy        =      -1.6376194641044837 [Eh]
	 Total Energy              =    -384.5404398634805716 [Eh]

	 ================> DF-SCS-MP2 Energies <==================
	-----------------------------------------------------------
	 SCS Same-Spin Scale       =       0.3333333333333333 [-]
	 SCS Opposite-Spin Scale   =       1.2000000000000000 [-]
	 SCS Same-Spin Energy      =      -0.1276937220999617 [Eh]
	 SCS Opposite-Spin Energy  =      -1.5054459573655181 [Eh]
	 SCS Correlation Energy    =      -1.6331396794654798 [Eh]
	 SCS Total Energy          =    -384.5359600788415833 [Eh]
	-----------------------------------------------------------

  Dipole Moment: [D]
     X:    -0.2719      Y:     1.3286      Z:     0.2091     Total:     1.3721

*** Psi4 exiting successfully. Buy a developer a beer!
