                               Psi4 1.3.2 release

  ==> Input File <==

--------------------------------------------------------------------------
#psi4
#
memory 32 gb

molecule  {
0 1
  O        3.1501630     0.3869830     0.0122970
  O        1.7226580    -1.3643080    -0.2059640
  C       -2.9163610     0.3476720    -0.5022120
  C       -1.4960630     0.8252950    -0.4074400
  C        0.8713620     0.7844853     0.4458040
  C       -0.5245990     0.2621860     0.3264500
  C       -3.2476580    -0.8824200     0.3361610
  C        1.9107340    -0.1856640     0.0271730
  H       -3.5825680     1.1749950    -0.2170990
  H       -3.1475630     0.1432210    -1.5599470
  H       -1.2553160     1.7190160    -0.9933200
  H        0.9787830     1.7133270    -0.2211670
  H        1.0972480     1.1531100     1.4329360
  H       -0.6769577    -0.6434949     0.9153307
  H       -4.2956480    -1.1625270     0.2123440
  H       -2.6314050    -1.7369230     0.0388270
  H       -3.0739380    -0.6897760     1.4001060
  H        3.7686820    -0.3352680    -0.2293440
units angstrom
no_reorient  #important for SAPT in psi4, default
symmetry c1  #important for SAPT in psi4, default
}

set PROPERTIES_ORIGIN ["COM"]
properties('MP2/aug-cc-pvtz', properties = ['dipole'])
--------------------------------------------------------------------------

    Molecular point group: c1
  Charge       = 0
  Multiplicity = 1
  Basis Set: AUG-CC-PVTZ
    Blend: AUG-CC-PVTZ
  Basis Set: (AUG-CC-PVTZ AUX)
    Blend: AUG-CC-PVTZ-JKFIT

    Orbital Energies [Eh]
    ---------------------

    Doubly Occupied:

       1A    -20.615910     2A    -20.552336     3A    -11.389893
       4A    -11.254326     5A    -11.237301     6A    -11.233200
       7A    -11.230689     8A    -11.214602     9A     -1.459252
      10A     -1.358475    11A     -1.103431    12A     -1.047452
      13A     -0.962177    14A     -0.871378    15A     -0.806370
      16A     -0.737590    17A     -0.703284    18A     -0.686561
      19A     -0.656607    20A     -0.624173    21A     -0.612285
      22A     -0.599478    23A     -0.586895    24A     -0.552702
      25A     -0.517763    26A     -0.498226    27A     -0.492542
      28A     -0.482797    29A     -0.479554    30A     -0.456900
      31A     -0.355684

  @DF-RHF Final Energy:  -382.89939078631301

   => Energetics <=

    Nuclear Repulsion Energy =            355.3363742426834619
    One-Electron Energy =               -1225.7118648158359520
    Two-Electron Energy =                 487.4760997868395407
    Total Energy =                       -382.8993907863130062
  Basis Set: (AUG-CC-PVTZ AUX)
    Blend: AUG-CC-PVTZ-RI
    Molecular point group: c1

    Geometry (in Angstrom), charge = 0, multiplicity = 1:

       Center              X                  Y                   Z               Mass
    ------------   -----------------  -----------------  -----------------  -----------------
         O            3.148494289990     0.391080960556     0.008805184727    15.994914619570
         O            1.720989289990    -1.360210039444    -0.209455815273    15.994914619570
         C           -2.918029710010     0.351769960556    -0.505703815273    12.000000000000
         C           -1.497731710010     0.829392960556    -0.410931815273    12.000000000000
         C            0.869693289990     0.788583260556     0.442312184727    12.000000000000
         C           -0.526267710010     0.266283960556     0.322958184727    12.000000000000
         C           -3.249326710010    -0.878322039444     0.332669184727    12.000000000000
         C            1.909065289990    -0.181566039444     0.023681184727    12.000000000000
         H           -3.584236710010     1.179092960556    -0.220590815273     1.007825032230
         H           -3.149231710010     0.147318960556    -1.563438815273     1.007825032230
         H           -1.256984710010     1.723113960556    -0.996811815273     1.007825032230
         H            0.977114289990     1.717424960556    -0.224658815273     1.007825032230
         H            1.095579289990     1.157207960556     1.429444184727     1.007825032230
         H           -0.678626410010    -0.639396939444     0.911838884727     1.007825032230
         H           -4.297316710010    -1.158429039444     0.208852184727     1.007825032230
         H           -2.633073710010    -1.732825039444     0.035335184727     1.007825032230
         H           -3.075606710010    -0.685678039444     1.396614184727     1.007825032230
         H            3.767013289990    -0.331170039444    -0.232835815273     1.007825032230

  Basis Set: AUG-CC-PVTZ
    Blend: AUG-CC-PVTZ
  Basis Set: (AUG-CC-PVTZ AUX)
    Blend: AUG-CC-PVTZ-JKFIT
	 Reference Energy          =    -382.8993907863130062 [Eh]
	 Singles Energy            =      -0.0000000000000000 [Eh]
	 Same-Spin Energy          =      -0.3833117200941632 [Eh]
	 Opposite-Spin Energy      =      -1.2549414943089192 [Eh]
	 Correlation Energy        =      -1.6382532144030824 [Eh]
	 Total Energy              =    -384.5376440007161136 [Eh]

	 ================> DF-SCS-MP2 Energies <==================
	-----------------------------------------------------------
	 SCS Same-Spin Scale       =       0.3333333333333333 [-]
	 SCS Opposite-Spin Scale   =       1.2000000000000000 [-]
	 SCS Same-Spin Energy      =      -0.1277705733647211 [Eh]
	 SCS Opposite-Spin Energy  =      -1.5059297931707030 [Eh]
	 SCS Correlation Energy    =      -1.6337003665354239 [Eh]
	 SCS Total Energy          =    -384.5330911528484421 [Eh]
	-----------------------------------------------------------

  Dipole Moment: [D]
     X:    -0.1977      Y:     1.3978      Z:     0.2343     Total:     1.4310

*** Psi4 exiting successfully. Buy a developer a beer!
