                               Psi4 1.3.2 release

  ==> Input File <==

--------------------------------------------------------------------------
#psi4
#
memory 32 gb

molecule  {
0 1
  O        3.1501630     0.3869830     0.0122970
  O        1.7226580    -1.3643080    -0.2059640
  C       -2.9163610     0.3476720    -0.5022120
  C       -1.4960630     0.8252950    -0.4074400
  C        0.8585340     0.8235180     0.4136200
  C       -0.5178094     0.2434468     0.3432956
  C       -3.2476580    -0.8824200     0.3361610
  C        1.9107340    -0.1856640     0.0271730
  H       -3.5825680     1.1749950    -0.2170990
  H       -3.1475630     0.1432210    -1.5599470
  H       -1.2553160     1.7190160    -0.9933200
  H        0.9970443     1.7147411    -0.2154355
  H        1.0972480     1.1531100     1.4329360
  H       -0.7130820    -0.6444280     0.9033180
  H       -4.2956480    -1.1625270     0.2123440
  H       -2.6314050    -1.7369230     0.0388270
  H       -3.0739380    -0.6897760     1.4001060
  H        3.7686820    -0.3352680    -0.2293440
units angstrom
no_reorient  #important for SAPT in psi4, default
symmetry c1  #important for SAPT in psi4, default
}

set PROPERTIES_ORIGIN ["COM"]
properties('MP2/aug-cc-pvtz', properties = ['dipole'])
--------------------------------------------------------------------------

    Molecular point group: c1
  Charge       = 0
  Multiplicity = 1
  Basis Set: AUG-CC-PVTZ
    Blend: AUG-CC-PVTZ
  Basis Set: (AUG-CC-PVTZ AUX)
    Blend: AUG-CC-PVTZ-JKFIT

    Orbital Energies [Eh]
    ---------------------

    Doubly Occupied:

       1A    -20.615417     2A    -20.552464     3A    -11.389887
       4A    -11.254218     5A    -11.238775     6A    -11.233772
       7A    -11.229974     8A    -11.214903     9A     -1.458362
      10A     -1.357892    11A     -1.100844    12A     -1.045629
      13A     -0.957358    14A     -0.871111    15A     -0.804479
      16A     -0.743104    17A     -0.703066    18A     -0.681859
      19A     -0.653379    20A     -0.626368    21A     -0.612018
      22A     -0.598450    23A     -0.581916    24A     -0.549394
      25A     -0.533722    26A     -0.498095    27A     -0.490016
      28A     -0.486792    29A     -0.481296    30A     -0.455298
      31A     -0.348988

  @DF-RHF Final Energy:  -382.90109023825107

   => Energetics <=

    Nuclear Repulsion Energy =            354.9117886739554137
    One-Electron Energy =               -1224.8880650120427163
    Two-Electron Energy =                 487.0751860998361735
    Total Energy =                       -382.9010902382510722
  Basis Set: (AUG-CC-PVTZ AUX)
    Blend: AUG-CC-PVTZ-RI
    Molecular point group: c1

    Geometry (in Angstrom), charge = 0, multiplicity = 1:

       Center              X                  Y                   Z               Mass
    ------------   -----------------  -----------------  -----------------  -----------------
         O            3.149287356542     0.388941827814     0.010474285770    15.994914619570
         O            1.721782356542    -1.362349172186    -0.207786714230    15.994914619570
         C           -2.917236643458     0.349630827814    -0.504034714230    12.000000000000
         C           -1.496938643458     0.827253827814    -0.409262714230    12.000000000000
         C            0.857658356542     0.825476827814     0.411797285770    12.000000000000
         C           -0.518685043458     0.245405627814     0.341472885770    12.000000000000
         C           -3.248533643458    -0.880461172186     0.334338285770    12.000000000000
         C            1.909858356542    -0.183705172186     0.025350285770    12.000000000000
         H           -3.583443643458     1.176953827814    -0.218921714230     1.007825032230
         H           -3.148438643458     0.145179827814    -1.561769714230     1.007825032230
         H           -1.256191643458     1.720974827814    -0.995142714230     1.007825032230
         H            0.996168656542     1.716699927814    -0.217258214230     1.007825032230
         H            1.096372356542     1.155068827814     1.431113285770     1.007825032230
         H           -0.713957643458    -0.642469172186     0.901495285770     1.007825032230
         H           -4.296523643458    -1.160568172186     0.210521285770     1.007825032230
         H           -2.632280643458    -1.734964172186     0.037004285770     1.007825032230
         H           -3.074813643458    -0.687817172186     1.398283285770     1.007825032230
         H            3.767806356542    -0.333309172186    -0.231166714230     1.007825032230

  Basis Set: AUG-CC-PVTZ
    Blend: AUG-CC-PVTZ
  Basis Set: (AUG-CC-PVTZ AUX)
    Blend: AUG-CC-PVTZ-JKFIT
	 Reference Energy          =    -382.9010902382510722 [Eh]
	 Singles Energy            =      -0.0000000000000000 [Eh]
	 Same-Spin Energy          =      -0.3833393638040284 [Eh]
	 Opposite-Spin Energy      =      -1.2550722231291838 [Eh]
	 Correlation Energy        =      -1.6384115869332123 [Eh]
	 Total Energy              =    -384.5395018251842885 [Eh]

	 ================> DF-SCS-MP2 Energies <==================
	-----------------------------------------------------------
	 SCS Same-Spin Scale       =       0.3333333333333333 [-]
	 SCS Opposite-Spin Scale   =       1.2000000000000000 [-]
	 SCS Same-Spin Energy      =      -0.1277797879346761 [Eh]
	 SCS Opposite-Spin Energy  =      -1.5060866677550204 [Eh]
	 SCS Correlation Energy    =      -1.6338664556896965 [Eh]
	 SCS Total Energy          =    -384.5349566939407850 [Eh]
	-----------------------------------------------------------

  Dipole Moment: [D]
     X:    -0.1824      Y:     1.3960      Z:     0.2072     Total:     1.4231

*** Psi4 exiting successfully. Buy a developer a beer!
