                               Psi4 1.3.2 release

  ==> Input File <==

--------------------------------------------------------------------------
#psi4
#
memory 32 gb

molecule  {
0 1
  O        3.1501630     0.3869830     0.0122970
  O        1.7226580    -1.3643080    -0.2059640
  C       -2.9163610     0.3476720    -0.5022120
  C       -1.4960630     0.8252950    -0.4074400
  C        0.8585340     0.8235180     0.4136200
  C       -0.5245990     0.2621860     0.3264500
  C       -3.2476580    -0.8824200     0.3361610
  C        1.9061047    -0.1939104     0.0363278
  H       -3.5825680     1.1749950    -0.2170990
  H       -3.1475630     0.1432210    -1.5599470
  H       -1.2553160     1.7190160    -0.9933200
  H        0.9713685     1.7174659    -0.2166973
  H        1.0972480     1.1531100     1.4329360
  H       -0.7130820    -0.6444280     0.9033180
  H       -4.2956480    -1.1625270     0.2123440
  H       -2.6314050    -1.7369230     0.0388270
  H       -3.0739380    -0.6897760     1.4001060
  H        3.7686820    -0.3352680    -0.2293440
units angstrom
no_reorient  #important for SAPT in psi4, default
symmetry c1  #important for SAPT in psi4, default
}

set PROPERTIES_ORIGIN ["COM"]
properties('MP2/aug-cc-pvtz', properties = ['dipole'])
--------------------------------------------------------------------------

    Molecular point group: c1
  Charge       = 0
  Multiplicity = 1
  Basis Set: AUG-CC-PVTZ
    Blend: AUG-CC-PVTZ
  Basis Set: (AUG-CC-PVTZ AUX)
    Blend: AUG-CC-PVTZ-JKFIT

    Orbital Energies [Eh]
    ---------------------

    Doubly Occupied:

       1A    -20.613457     2A    -20.554524     3A    -11.390233
       4A    -11.254248     5A    -11.235625     6A    -11.232382
       7A    -11.230199     8A    -11.214905     9A     -1.457532
      10A     -1.360340    11A     -1.103341    12A     -1.045571
      13A     -0.960003    14A     -0.869833    15A     -0.803930
      16A     -0.739476    17A     -0.702820    18A     -0.682547
      19A     -0.653764    20A     -0.625775    21A     -0.612263
      22A     -0.599490    23A     -0.582933    24A     -0.552549
      25A     -0.527717    26A     -0.498345    27A     -0.491540
      28A     -0.486533    29A     -0.481023    30A     -0.456695
      31A     -0.354076

  @DF-RHF Final Energy:  -382.90328765062770

   => Energetics <=

    Nuclear Repulsion Energy =            355.1009974383931080
    One-Electron Energy =               -1225.2612297349442088
    Two-Electron Energy =                 487.2569446459234541
    Total Energy =                       -382.9032876506277034
  Basis Set: (AUG-CC-PVTZ AUX)
    Blend: AUG-CC-PVTZ-RI
    Molecular point group: c1

    Geometry (in Angstrom), charge = 0, multiplicity = 1:

       Center              X                  Y                   Z               Mass
    ------------   -----------------  -----------------  -----------------  -----------------
         O            3.150715481874     0.387813907346     0.011294508868    15.994914619570
         O            1.723210481874    -1.363477092654    -0.206966491132    15.994914619570
         C           -2.915808518126     0.348502907346    -0.503214491132    12.000000000000
         C           -1.495510518126     0.826125907346    -0.408442491132    12.000000000000
         C            0.859086481874     0.824348907346     0.412617508868    12.000000000000
         C           -0.524046518126     0.263016907346     0.325447508868    12.000000000000
         C           -3.247105518126    -0.881589092654     0.335158508868    12.000000000000
         C            1.906657181874    -0.193079492654     0.035325308868    12.000000000000
         H           -3.582015518126     1.175825907346    -0.218101491132     1.007825032230
         H           -3.147010518126     0.144051907346    -1.560949491132     1.007825032230
         H           -1.254763518126     1.719846907346    -0.994322491132     1.007825032230
         H            0.971920981874     1.718296807346    -0.217699791132     1.007825032230
         H            1.097800481874     1.153940907346     1.431933508868     1.007825032230
         H           -0.712529518126    -0.643597092654     0.902315508868     1.007825032230
         H           -4.295095518126    -1.161696092654     0.211341508868     1.007825032230
         H           -2.630852518126    -1.736092092654     0.037824508868     1.007825032230
         H           -3.073385518126    -0.688945092654     1.399103508868     1.007825032230
         H            3.769234481874    -0.334437092654    -0.230346491132     1.007825032230

  Basis Set: AUG-CC-PVTZ
    Blend: AUG-CC-PVTZ
  Basis Set: (AUG-CC-PVTZ AUX)
    Blend: AUG-CC-PVTZ-JKFIT
	 Reference Energy          =    -382.9032876506277034 [Eh]
	 Singles Energy            =      -0.0000000000000000 [Eh]
	 Same-Spin Energy          =      -0.3830563030569132 [Eh]
	 Opposite-Spin Energy      =      -1.2544027302940015 [Eh]
	 Correlation Energy        =      -1.6374590333509147 [Eh]
	 Total Energy              =    -384.5407466839786252 [Eh]

	 ================> DF-SCS-MP2 Energies <==================
	-----------------------------------------------------------
	 SCS Same-Spin Scale       =       0.3333333333333333 [-]
	 SCS Opposite-Spin Scale   =       1.2000000000000000 [-]
	 SCS Same-Spin Energy      =      -0.1276854343523044 [Eh]
	 SCS Opposite-Spin Energy  =      -1.5052832763528017 [Eh]
	 SCS Correlation Energy    =      -1.6329687107051061 [Eh]
	 SCS Total Energy          =    -384.5362563613327893 [Eh]
	-----------------------------------------------------------

  Dipole Moment: [D]
     X:    -0.2321      Y:     1.3449      Z:     0.2147     Total:     1.3816

*** Psi4 exiting successfully. Buy a developer a beer!
