                               Psi4 1.3.2 release

  ==> Input File <==

--------------------------------------------------------------------------
#psi4
#
memory 32 gb

molecule  {
0 1
  O        3.1501630     0.3869830     0.0122970
  O        1.7226580    -1.3643080    -0.2059640
  C       -2.9163610     0.3476720    -0.5022120
  C       -1.4810999     0.8420601    -0.4140097
  C        0.8514554     0.8428446     0.3975762
  C       -0.5245990     0.2621860     0.3264500
  C       -3.2476580    -0.8824200     0.3361610
  C        1.9107340    -0.1856640     0.0271730
  H       -3.5825680     1.1749950    -0.2170990
  H       -3.1475630     0.1432210    -1.5599470
  H       -1.2553160     1.7190160    -0.9933200
  H        0.9787830     1.7133270    -0.2211670
  H        1.0972480     1.1531100     1.4329360
  H       -0.7130820    -0.6444280     0.9033180
  H       -4.2956480    -1.1625270     0.2123440
  H       -2.6314050    -1.7369230     0.0388270
  H       -3.0739380    -0.6897760     1.4001060
  H        3.7686820    -0.3352680    -0.2293440
units angstrom
no_reorient  #important for SAPT in psi4, default
symmetry c1  #important for SAPT in psi4, default
}

set PROPERTIES_ORIGIN ["COM"]
properties('MP2/aug-cc-pvtz', properties = ['dipole'])
--------------------------------------------------------------------------

    Molecular point group: c1
  Charge       = 0
  Multiplicity = 1
  Basis Set: AUG-CC-PVTZ
    Blend: AUG-CC-PVTZ
  Basis Set: (AUG-CC-PVTZ AUX)
    Blend: AUG-CC-PVTZ-JKFIT

    Orbital Energies [Eh]
    ---------------------

    Doubly Occupied:

       1A    -20.615495     2A    -20.552989     3A    -11.390635
       4A    -11.253612     5A    -11.234357     6A    -11.232384
       7A    -11.230242     8A    -11.214796     9A     -1.458210
      10A     -1.357937    11A     -1.102228    12A     -1.042695
      13A     -0.959483    14A     -0.867951    15A     -0.805285
      16A     -0.743975    17A     -0.702970    18A     -0.680610
      19A     -0.652617    20A     -0.626176    21A     -0.610752
      22A     -0.601419    23A     -0.579904    24A     -0.551730
      25A     -0.532594    26A     -0.497214    27A     -0.491150
      28A     -0.485699    29A     -0.479298    30A     -0.454731
      31A     -0.353833

  @DF-RHF Final Energy:  -382.90231408802782

   => Energetics <=

    Nuclear Repulsion Energy =            354.7988368334836196
    One-Electron Energy =               -1224.6763555151592300
    Two-Electron Energy =                 486.9752045936477884
    Total Energy =                       -382.9023140880278220
  Basis Set: (AUG-CC-PVTZ AUX)
    Blend: AUG-CC-PVTZ-RI
    Molecular point group: c1

    Geometry (in Angstrom), charge = 0, multiplicity = 1:

       Center              X                  Y                   Z               Mass
    ------------   -----------------  -----------------  -----------------  -----------------
         O            3.149333516654     0.383186092843     0.014676035734    15.994914619570
         O            1.721828516654    -1.368104907157    -0.203584964266    15.994914619570
         C           -2.917190483346     0.343875092843    -0.499832964266    12.000000000000
         C           -1.481929383346     0.838263192843    -0.411630664266    12.000000000000
         C            0.850625916654     0.839047692843     0.399955235734    12.000000000000
         C           -0.525428483346     0.258389092843     0.328829035734    12.000000000000
         C           -3.248487483346    -0.886216907157     0.338540035734    12.000000000000
         C            1.909904516654    -0.189460907157     0.029552035734    12.000000000000
         H           -3.583397483346     1.171198092843    -0.214719964266     1.007825032230
         H           -3.148392483346     0.139424092843    -1.557567964266     1.007825032230
         H           -1.256145483346     1.715219092843    -0.990940964266     1.007825032230
         H            0.977953516654     1.709530092843    -0.218787964266     1.007825032230
         H            1.096418516654     1.149313092843     1.435315035734     1.007825032230
         H           -0.713911483346    -0.648224907157     0.905697035734     1.007825032230
         H           -4.296477483346    -1.166323907157     0.214723035734     1.007825032230
         H           -2.632234483346    -1.740719907157     0.041206035734     1.007825032230
         H           -3.074767483346    -0.693572907157     1.402485035734     1.007825032230
         H            3.767852516654    -0.339064907157    -0.226964964266     1.007825032230

  Basis Set: AUG-CC-PVTZ
    Blend: AUG-CC-PVTZ
  Basis Set: (AUG-CC-PVTZ AUX)
    Blend: AUG-CC-PVTZ-JKFIT
	 Reference Energy          =    -382.9023140880278220 [Eh]
	 Singles Energy            =      -0.0000000000000000 [Eh]
	 Same-Spin Energy          =      -0.3829255326233502 [Eh]
	 Opposite-Spin Energy      =      -1.2543043585242670 [Eh]
	 Correlation Energy        =      -1.6372298911476173 [Eh]
	 Total Energy              =    -384.5395439791754484 [Eh]

	 ================> DF-SCS-MP2 Energies <==================
	-----------------------------------------------------------
	 SCS Same-Spin Scale       =       0.3333333333333333 [-]
	 SCS Opposite-Spin Scale   =       1.2000000000000000 [-]
	 SCS Same-Spin Energy      =      -0.1276418442077834 [Eh]
	 SCS Opposite-Spin Energy  =      -1.5051652302291203 [Eh]
	 SCS Correlation Energy    =      -1.6328070744369036 [Eh]
	 SCS Total Energy          =    -384.5351211624647476 [Eh]
	-----------------------------------------------------------

  Dipole Moment: [D]
     X:    -0.1515      Y:     1.3941      Z:     0.1947     Total:     1.4158

*** Psi4 exiting successfully. Buy a developer a beer!
