                               Psi4 1.3.2 release

  ==> Input File <==

--------------------------------------------------------------------------
#psi4
#
memory 32 gb

molecule  {
0 1
  O        3.1501630     0.3869830     0.0122970
  O        1.7226580    -1.3643080    -0.2059640
  C       -2.9163610     0.3476720    -0.5022120
  C       -1.4878363     0.8016466    -0.4151713
  C        0.8585340     0.8235180     0.4136200
  C       -0.5245990     0.2621860     0.3264500
  C       -3.2476580    -0.8824200     0.3361610
  C        1.9107340    -0.1856640     0.0271730
  H       -3.5977222     1.1635984    -0.2200852
  H       -3.1475630     0.1432210    -1.5599470
  H       -1.2553160     1.7190160    -0.9933200
  H        0.9787830     1.7133270    -0.2211670
  H        1.0972480     1.1531100     1.4329360
  H       -0.7130820    -0.6444280     0.9033180
  H       -4.2956480    -1.1625270     0.2123440
  H       -2.6314050    -1.7369230     0.0388270
  H       -3.0739380    -0.6897760     1.4001060
  H        3.7686820    -0.3352680    -0.2293440
units angstrom
no_reorient  #important for SAPT in psi4, default
symmetry c1  #important for SAPT in psi4, default
}

set PROPERTIES_ORIGIN ["COM"]
properties('MP2/aug-cc-pvtz', properties = ['dipole'])
--------------------------------------------------------------------------

    Molecular point group: c1
  Charge       = 0
  Multiplicity = 1
  Basis Set: AUG-CC-PVTZ
    Blend: AUG-CC-PVTZ
  Basis Set: (AUG-CC-PVTZ AUX)
    Blend: AUG-CC-PVTZ-JKFIT

    Orbital Energies [Eh]
    ---------------------

    Doubly Occupied:

       1A    -20.615855     2A    -20.552884     3A    -11.390659
       4A    -11.254579     5A    -11.235110     6A    -11.231027
       7A    -11.230124     8A    -11.214336     9A     -1.458740
      10A     -1.358238    11A     -1.104529    12A     -1.045609
      13A     -0.961618    14A     -0.869727    15A     -0.806742
      16A     -0.737422    17A     -0.702918    18A     -0.682518
      19A     -0.654684    20A     -0.626544    21A     -0.611735
      22A     -0.598766    23A     -0.582756    24A     -0.553275
      25A     -0.527847    26A     -0.497796    27A     -0.492784
      28A     -0.484140    29A     -0.477179    30A     -0.455914
      31A     -0.357080

  @DF-RHF Final Energy:  -382.90293299894358

   => Energetics <=

    Nuclear Repulsion Energy =            355.2653790524844908
    One-Electron Energy =               -1225.5903530796092582
    Two-Electron Energy =                 487.4220410281811837
    Total Energy =                       -382.9029329989435837
  Basis Set: (AUG-CC-PVTZ AUX)
    Blend: AUG-CC-PVTZ-RI
    Molecular point group: c1

    Geometry (in Angstrom), charge = 0, multiplicity = 1:

       Center              X                  Y                   Z               Mass
    ------------   -----------------  -----------------  -----------------  -----------------
         O            3.149431408914     0.389571463593     0.013136807287    15.994914619570
         O            1.721926408914    -1.361719536407    -0.205124192713    15.994914619570
         C           -2.917092591086     0.350260463593    -0.501372192713    12.000000000000
         C           -1.488567891086     0.804235063593    -0.414331492713    12.000000000000
         C            0.857802408914     0.826106463593     0.414459807287    12.000000000000
         C           -0.525330591086     0.264774463593     0.327289807287    12.000000000000
         C           -3.248389591086    -0.879831536407     0.337000807287    12.000000000000
         C            1.910002408914    -0.183075536407     0.028012807287    12.000000000000
         H           -3.598453791086     1.166186863593    -0.219245392713     1.007825032230
         H           -3.148294591086     0.145809463593    -1.559107192713     1.007825032230
         H           -1.256047591086     1.721604463593    -0.992480192713     1.007825032230
         H            0.978051408914     1.715915463593    -0.220327192713     1.007825032230
         H            1.096516408914     1.155698463593     1.433775807287     1.007825032230
         H           -0.713813591086    -0.641839536407     0.904157807287     1.007825032230
         H           -4.296379591086    -1.159938536407     0.213183807287     1.007825032230
         H           -2.632136591086    -1.734334536407     0.039666807287     1.007825032230
         H           -3.074669591086    -0.687187536407     1.400945807287     1.007825032230
         H            3.767950408914    -0.332679536407    -0.228504192713     1.007825032230

  Basis Set: AUG-CC-PVTZ
    Blend: AUG-CC-PVTZ
  Basis Set: (AUG-CC-PVTZ AUX)
    Blend: AUG-CC-PVTZ-JKFIT
	 Reference Energy          =    -382.9029329989435837 [Eh]
	 Singles Energy            =      -0.0000000000000000 [Eh]
	 Same-Spin Energy          =      -0.3830662304117874 [Eh]
	 Opposite-Spin Energy      =      -1.2543280006578388 [Eh]
	 Correlation Energy        =      -1.6373942310696261 [Eh]
	 Total Energy              =    -384.5403272300131903 [Eh]

	 ================> DF-SCS-MP2 Energies <==================
	-----------------------------------------------------------
	 SCS Same-Spin Scale       =       0.3333333333333333 [-]
	 SCS Opposite-Spin Scale   =       1.2000000000000000 [-]
	 SCS Same-Spin Energy      =      -0.1276887434705958 [Eh]
	 SCS Opposite-Spin Energy  =      -1.5051936007894064 [Eh]
	 SCS Correlation Energy    =      -1.6328823442600022 [Eh]
	 SCS Total Energy          =    -384.5358153432035806 [Eh]
	-----------------------------------------------------------

  Dipole Moment: [D]
     X:    -0.1784      Y:     1.3978      Z:     0.2280     Total:     1.4275

*** Psi4 exiting successfully. Buy a developer a beer!
