                               Psi4 1.3.2 release

  ==> Input File <==

--------------------------------------------------------------------------
#psi4
#
memory 32 gb

molecule  {
0 1
  O        3.1501630     0.3869830     0.0122970
  O        1.7226580    -1.3643080    -0.2059640
  C       -2.9163610     0.3476720    -0.5022120
  C       -1.4960630     0.8252950    -0.4074400
  C        0.8585340     0.8235180     0.4136200
  C       -0.5245990     0.2621860     0.3264500
  C       -3.2476580    -0.8824200     0.3361610
  C        1.8409725    -0.1187546     0.0527947
  H       -3.5825680     1.1749950    -0.2170990
  H       -3.1475630     0.1432210    -1.5599470
  H       -1.2553160     1.7190160    -0.9933200
  H        0.9787830     1.7133270    -0.2211670
  H        1.0972480     1.1531100     1.4329360
  H       -0.7130820    -0.6444280     0.9033180
  H       -4.2956480    -1.1625270     0.2123440
  H       -2.6314050    -1.7369230     0.0388270
  H       -3.0739380    -0.6897760     1.4001060
  H        3.7686820    -0.3352680    -0.2293440
units angstrom
no_reorient  #important for SAPT in psi4, default
symmetry c1  #important for SAPT in psi4, default
}

set PROPERTIES_ORIGIN ["COM"]
properties('MP2/aug-cc-pvtz', properties = ['dipole'])
--------------------------------------------------------------------------

    Molecular point group: c1
  Charge       = 0
  Multiplicity = 1
  Basis Set: AUG-CC-PVTZ
    Blend: AUG-CC-PVTZ
  Basis Set: (AUG-CC-PVTZ AUX)
    Blend: AUG-CC-PVTZ-JKFIT

    Orbital Energies [Eh]
    ---------------------

    Doubly Occupied:

       1A    -20.606425     2A    -20.547948     3A    -11.398942
       4A    -11.258797     5A    -11.240712     6A    -11.238239
       7A    -11.233169     8A    -11.216932     9A     -1.431198
      10A     -1.320568    11A     -1.118191    12A     -1.062495
      13A     -0.973123    14A     -0.874992    15A     -0.801680
      16A     -0.745107    17A     -0.695317    18A     -0.676988
      19A     -0.657952    20A     -0.628948    21A     -0.614385
      22A     -0.592597    23A     -0.576363    24A     -0.553504
      25A     -0.532078    26A     -0.500662    27A     -0.494457
      28A     -0.486240    29A     -0.462221    30A     -0.452391
      31A     -0.360268

  @DF-RHF Final Energy:  -382.88104858324158

   => Energetics <=

    Nuclear Repulsion Energy =            355.0777818250368796
    One-Electron Energy =               -1225.2118802476984456
    Two-Electron Energy =                 487.2530498394199299
    Total Energy =                       -382.8810485832415793
  Basis Set: (AUG-CC-PVTZ AUX)
    Blend: AUG-CC-PVTZ-RI
    Molecular point group: c1

    Geometry (in Angstrom), charge = 0, multiplicity = 1:

       Center              X                  Y                   Z               Mass
    ------------   -----------------  -----------------  -----------------  -----------------
         O            3.157501901741     0.379944060528     0.009601676612    15.994914619570
         O            1.729996901741    -1.371346939472    -0.208659323388    15.994914619570
         C           -2.909022098259     0.340633060528    -0.504907323388    12.000000000000
         C           -1.488724098259     0.818256060528    -0.410135323388    12.000000000000
         C            0.865872901741     0.816479060528     0.410924676612    12.000000000000
         C           -0.517260098259     0.255147060528     0.323754676612    12.000000000000
         C           -3.240319098259    -0.889458939472     0.333465676612    12.000000000000
         C            1.848311401741    -0.125793539472     0.050099376612    12.000000000000
         H           -3.575229098259     1.167956060528    -0.219794323388     1.007825032230
         H           -3.140224098259     0.136182060528    -1.562642323388     1.007825032230
         H           -1.247977098259     1.711977060528    -0.996015323388     1.007825032230
         H            0.986121901741     1.706288060528    -0.223862323388     1.007825032230
         H            1.104586901741     1.146071060528     1.430240676612     1.007825032230
         H           -0.705743098259    -0.651466939472     0.900622676612     1.007825032230
         H           -4.288309098259    -1.169565939472     0.209648676612     1.007825032230
         H           -2.624066098259    -1.743961939472     0.036131676612     1.007825032230
         H           -3.066599098259    -0.696814939472     1.397410676612     1.007825032230
         H            3.776020901741    -0.342306939472    -0.232039323388     1.007825032230

  Basis Set: AUG-CC-PVTZ
    Blend: AUG-CC-PVTZ
  Basis Set: (AUG-CC-PVTZ AUX)
    Blend: AUG-CC-PVTZ-JKFIT
	 Reference Energy          =    -382.8810485832415793 [Eh]
	 Singles Energy            =      -0.0000000000000000 [Eh]
	 Same-Spin Energy          =      -0.3855348681376732 [Eh]
	 Opposite-Spin Energy      =      -1.2592974149912528 [Eh]
	 Correlation Energy        =      -1.6448322831289262 [Eh]
	 Total Energy              =    -384.5258808663705281 [Eh]

	 ================> DF-SCS-MP2 Energies <==================
	-----------------------------------------------------------
	 SCS Same-Spin Scale       =       0.3333333333333333 [-]
	 SCS Opposite-Spin Scale   =       1.2000000000000000 [-]
	 SCS Same-Spin Energy      =      -0.1285116227125577 [Eh]
	 SCS Opposite-Spin Energy  =      -1.5111568979895034 [Eh]
	 SCS Correlation Energy    =      -1.6396685207020611 [Eh]
	 SCS Total Energy          =    -384.5207171039436389 [Eh]
	-----------------------------------------------------------

  Dipole Moment: [D]
     X:    -0.7058      Y:     1.7136      Z:     0.3275     Total:     1.8819

*** Psi4 exiting successfully. Buy a developer a beer!
