                               Psi4 1.4a3.dev225

  ==> Input File <==

--------------------------------------------------------------------------
#psi4
#
memory 32 gb

molecule  {
0 1
  O       -3.2271830    -0.3786580    -0.1569640
  O       -1.8275510     1.3993140    -0.2614160
  C        2.8225670    -0.4310850    -0.3953020
  C        1.4009980    -0.8942070    -0.2419560
  C       -0.9807690    -0.7586230     0.4926230
  C        0.4143070    -0.2269140     0.3719860
  C        3.1298050     0.9339520     0.2103920
  C       -2.0113430     0.2195500    -0.0192140
  H        3.4859920    -1.1868430     0.0468460
  H        3.0699840    -0.4203720    -1.4654230
  H        1.1737130    -1.8673930    -0.6818980
  H       -1.1052572    -1.7486719    -0.0693322
  H       -1.2414610    -0.9681590     1.5400430
  H        0.5929560     0.7502750     0.8121930
  H        4.1791340     1.1958370     0.0500290
  H        2.5131630     1.7137800    -0.2445400
  H        2.9424530     0.9385920     1.2876810
  H       -3.8316340     0.3284440    -0.4642740
units angstrom
no_reorient  #important for SAPT in psi4, default
symmetry c1  #important for SAPT in psi4, default
}

set PROPERTIES_ORIGIN ["COM"]
properties('MP2/aug-cc-pvtz', properties = ['dipole'])
--------------------------------------------------------------------------

    Molecular point group: c1
  Charge       = 0
  Multiplicity = 1
  Basis Set: AUG-CC-PVTZ
    Blend: AUG-CC-PVTZ
  Basis Set: (AUG-CC-PVTZ AUX)
    Blend: AUG-CC-PVTZ-JKFIT

    Orbital Energies [Eh]
    ---------------------

    Doubly Occupied:

       1A    -20.616275     2A    -20.552503     3A    -11.391544
       4A    -11.260290     5A    -11.235277     6A    -11.232263
       7A    -11.229890     8A    -11.214488     9A     -1.460011
      10A     -1.357452    11A     -1.102424    12A     -1.044150
      13A     -0.960214    14A     -0.870741    15A     -0.806586
      16A     -0.737811    17A     -0.703213    18A     -0.681378
      19A     -0.655174    20A     -0.623101    21A     -0.612813
      22A     -0.599160    23A     -0.581654    24A     -0.552563
      25A     -0.525030    26A     -0.498804    27A     -0.492495
      28A     -0.484147    29A     -0.479641    30A     -0.455577
      31A     -0.354653

  @DF-RHF Final Energy:  -382.90151651502828

   => Energetics <=

    Nuclear Repulsion Energy =            354.7590661715718738
    One-Electron Energy =               -1224.5785207588994581
    Two-Electron Energy =                 486.9179380722992505
    Total Energy =                       -382.9015165150282769
  Basis Set: (AUG-CC-PVTZ AUX)
    Blend: AUG-CC-PVTZ-RI
    Molecular point group: c1

    Geometry (in Angstrom), charge = 0, multiplicity = 1:

       Center              X                  Y                   Z               Mass
    ------------   -----------------  -----------------  -----------------  -----------------
         O           -3.124857751692    -0.388853453819    -0.149495381793    15.994914619570
         O           -1.725225751692     1.389118546181    -0.253947381793    15.994914619570
         C            2.924892248308    -0.441280453819    -0.387833381793    12.000000000000
         C            1.503323248308    -0.904402453819    -0.234487381793    12.000000000000
         C           -0.878443751692    -0.768818453819     0.500091618207    12.000000000000
         C            0.516632248308    -0.237109453819     0.379454618207    12.000000000000
         C            3.232130248308     0.923756546181     0.217860618207    12.000000000000
         C           -1.909017751692     0.209354546181    -0.011745381793    12.000000000000
         H            3.588317248308    -1.197038453819     0.054314618207     1.007825032230
         H            3.172309248308    -0.430567453819    -1.457954381793     1.007825032230
         H            1.276038248308    -1.877588453819    -0.674429381793     1.007825032230
         H           -1.002931951692    -1.758867353819    -0.061863581793     1.007825032230
         H           -1.139135751692    -0.978354453819     1.547511618207     1.007825032230
         H            0.695281248308     0.740079546181     0.819661618207     1.007825032230
         H            4.281459248308     1.185641546181     0.057497618207     1.007825032230
         H            2.615488248308     1.703584546181    -0.237071381793     1.007825032230
         H            3.044778248308     0.928396546181     1.295149618207     1.007825032230
         H           -3.729308751692     0.318248546181    -0.456805381793     1.007825032230

  Basis Set: AUG-CC-PVTZ
    Blend: AUG-CC-PVTZ
  Basis Set: (AUG-CC-PVTZ AUX)
    Blend: AUG-CC-PVTZ-JKFIT
	 Reference Energy          =    -382.9015165150282769 [Eh]
	 Singles Energy            =      -0.0000000000000000 [Eh]
	 Same-Spin Energy          =      -0.3830953021456934 [Eh]
	 Opposite-Spin Energy      =      -1.2546652523396342 [Eh]
	 Correlation Energy        =      -1.6377605544853275 [Eh]
	 Total Energy              =    -384.5392770695136164 [Eh]

	 ================> DF-SCS-MP2 Energies <==================
	-----------------------------------------------------------
	 SCS Same-Spin Scale       =       0.3333333333333333 [-]
	 SCS Opposite-Spin Scale   =       1.2000000000000000 [-]
	 SCS Same-Spin Energy      =      -0.1276984340485645 [Eh]
	 SCS Opposite-Spin Energy  =      -1.5055983028075610 [Eh]
	 SCS Correlation Energy    =      -1.6332967368561255 [Eh]
	 SCS Total Energy          =    -384.5348132518844295 [Eh]
	-----------------------------------------------------------

  Dipole Moment: [D]
     X:     0.1738      Y:    -1.4029      Z:     0.2414     Total:     1.4341

*** Psi4 exiting successfully. Buy a developer a beer!
