                               Psi4 1.4a3.dev225

  ==> Input File <==

--------------------------------------------------------------------------
#psi4
#
memory 32 gb

molecule  {
0 1
  O       -3.2271830    -0.3786580    -0.1569640
  O       -1.8275510     1.3993140    -0.2614160
  C        2.8225670    -0.4310850    -0.3953020
  C        1.4009980    -0.8942070    -0.2419560
  C       -0.9807690    -0.7586230     0.4926230
  C        0.4143070    -0.2269140     0.3719860
  C        3.1298050     0.9339520     0.2103920
  C       -1.9667092     0.2415103    -0.0141572
  H        3.4859920    -1.1868430     0.0468460
  H        3.0699840    -0.4203720    -1.4654230
  H        1.1737130    -1.8673930    -0.6818980
  H       -1.0998220    -1.7054460    -0.0447970
  H       -1.2414610    -0.9681590     1.5400430
  H        0.5929560     0.7502750     0.8121930
  H        4.1791340     1.1958370     0.0500290
  H        2.5131630     1.7137800    -0.2445400
  H        2.9424530     0.9385920     1.2876810
  H       -3.8316340     0.3284440    -0.4642740
units angstrom
no_reorient  #important for SAPT in psi4, default
symmetry c1  #important for SAPT in psi4, default
}

set PROPERTIES_ORIGIN ["COM"]
properties('MP2/aug-cc-pvtz', properties = ['dipole'])
--------------------------------------------------------------------------

    Molecular point group: c1
  Charge       = 0
  Multiplicity = 1
  Basis Set: AUG-CC-PVTZ
    Blend: AUG-CC-PVTZ
  Basis Set: (AUG-CC-PVTZ AUX)
    Blend: AUG-CC-PVTZ-JKFIT

    Orbital Energies [Eh]
    ---------------------

    Doubly Occupied:

       1A    -20.601677     2A    -20.560219     3A    -11.390441
       4A    -11.255976     5A    -11.236845     6A    -11.233523
       7A    -11.231088     8A    -11.215687     9A     -1.453450
      10A     -1.357373    11A     -1.106589    12A     -1.049073
      13A     -0.962389    14A     -0.869871    15A     -0.795521
      16A     -0.743086    17A     -0.700173    18A     -0.681066
      19A     -0.654585    20A     -0.623132    21A     -0.613942
      22A     -0.601512    23A     -0.585366    24A     -0.552170
      25A     -0.529860    26A     -0.500053    27A     -0.493809
      28A     -0.489913    29A     -0.482771    30A     -0.458335
      31A     -0.356361

  @DF-RHF Final Energy:  -382.90145701100050

   => Energetics <=

    Nuclear Repulsion Energy =            355.1935721127638317
    One-Electron Energy =               -1225.4183533734658340
    Two-Electron Energy =                 487.3233242497014999
    Total Energy =                       -382.9014570110005025
  Basis Set: (AUG-CC-PVTZ AUX)
    Blend: AUG-CC-PVTZ-RI
    Molecular point group: c1

    Geometry (in Angstrom), charge = 0, multiplicity = 1:

       Center              X                  Y                   Z               Mass
    ------------   -----------------  -----------------  -----------------  -----------------
         O           -3.129601263924    -0.391545598241    -0.150244134547    15.994914619570
         O           -1.729969263924     1.386426401759    -0.254696134547    15.994914619570
         C            2.920148736076    -0.443972598241    -0.388582134547    12.000000000000
         C            1.498579736076    -0.907094598241    -0.235236134547    12.000000000000
         C           -0.883187263924    -0.771510598241     0.499342865453    12.000000000000
         C            0.511888736076    -0.239801598241     0.378705865453    12.000000000000
         C            3.227386736076     0.921064401759     0.217111865453    12.000000000000
         C           -1.869127463924     0.228622701759    -0.007437334547    12.000000000000
         H            3.583573736076    -1.199730598241     0.053565865453     1.007825032230
         H            3.167565736076    -0.433259598241    -1.458703134547     1.007825032230
         H            1.271294736076    -1.880280598241    -0.675178134547     1.007825032230
         H           -1.002240263924    -1.718333598241    -0.038077134547     1.007825032230
         H           -1.143879263924    -0.981046598241     1.546762865453     1.007825032230
         H            0.690537736076     0.737387401759     0.818912865453     1.007825032230
         H            4.276715736076     1.182949401759     0.056748865453     1.007825032230
         H            2.610744736076     1.700892401759    -0.237820134547     1.007825032230
         H            3.040034736076     0.925704401759     1.294400865453     1.007825032230
         H           -3.734052263924     0.315556401759    -0.457554134547     1.007825032230

  Basis Set: AUG-CC-PVTZ
    Blend: AUG-CC-PVTZ
  Basis Set: (AUG-CC-PVTZ AUX)
    Blend: AUG-CC-PVTZ-JKFIT
	 Reference Energy          =    -382.9014570110005025 [Eh]
	 Singles Energy            =      -0.0000000000000000 [Eh]
	 Same-Spin Energy          =      -0.3829613784196405 [Eh]
	 Opposite-Spin Energy      =      -1.2544019580349026 [Eh]
	 Correlation Energy        =      -1.6373633364545430 [Eh]
	 Total Energy              =    -384.5388203474550437 [Eh]

	 ================> DF-SCS-MP2 Energies <==================
	-----------------------------------------------------------
	 SCS Same-Spin Scale       =       0.3333333333333333 [-]
	 SCS Opposite-Spin Scale   =       1.2000000000000000 [-]
	 SCS Same-Spin Energy      =      -0.1276537928065468 [Eh]
	 SCS Opposite-Spin Energy  =      -1.5052823496418830 [Eh]
	 SCS Correlation Energy    =      -1.6329361424484299 [Eh]
	 SCS Total Energy          =    -384.5343931534489457 [Eh]
	-----------------------------------------------------------

  Dipole Moment: [D]
     X:     0.5716      Y:    -1.2257      Z:     0.2808     Total:     1.3813

*** Psi4 exiting successfully. Buy a developer a beer!
