                               Psi4 1.3.2 release

  ==> Input File <==

--------------------------------------------------------------------------
#psi4
#
memory 32 gb

molecule  {
0 1
  O        3.1501630     0.3869830     0.0122970
  O        1.7226580    -1.3643080    -0.2059640
  C       -2.9163610     0.3476720    -0.5022120
  C       -1.4960630     0.8252950    -0.4074400
  C        0.8585340     0.8235180     0.4136200
  C       -0.5245990     0.2621860     0.3264500
  C       -3.2476580    -0.8824200     0.3361610
  C        1.9013957    -0.2020794     0.0455113
  H       -3.5825680     1.1749950    -0.2170990
  H       -3.1475630     0.1432210    -1.5599470
  H       -1.2553160     1.7190160    -0.9933200
  H        0.9639455     1.7215368    -0.2121796
  H        1.0972480     1.1531100     1.4329360
  H       -0.7130820    -0.6444280     0.9033180
  H       -4.2956480    -1.1625270     0.2123440
  H       -2.6314050    -1.7369230     0.0388270
  H       -3.0739380    -0.6897760     1.4001060
  H        3.7686820    -0.3352680    -0.2293440
units angstrom
no_reorient  #important for SAPT in psi4, default
symmetry c1  #important for SAPT in psi4, default
}

set PROPERTIES_ORIGIN ["COM"]
properties('MP2/aug-cc-pvtz', properties = ['dipole'])
--------------------------------------------------------------------------

    Molecular point group: c1
  Charge       = 0
  Multiplicity = 1
  Basis Set: AUG-CC-PVTZ
    Blend: AUG-CC-PVTZ
  Basis Set: (AUG-CC-PVTZ AUX)
    Blend: AUG-CC-PVTZ-JKFIT

    Orbital Energies [Eh]
    ---------------------

    Doubly Occupied:

       1A    -20.611137     2A    -20.556255     3A    -11.389992
       4A    -11.254265     5A    -11.235734     6A    -11.232451
       7A    -11.230317     8A    -11.215052     9A     -1.456937
      10A     -1.361957    11A     -1.103563    12A     -1.045655
      13A     -0.959801    14A     -0.869457    15A     -0.801938
      16A     -0.739876    17A     -0.702754    18A     -0.682721
      19A     -0.653352    20A     -0.625330    21A     -0.612399
      22A     -0.600074    23A     -0.583411    24A     -0.552444
      25A     -0.527419    26A     -0.498487    27A     -0.491805
      28A     -0.488243    29A     -0.481499    30A     -0.457467
      31A     -0.354098

  @DF-RHF Final Energy:  -382.90308718346245

   => Energetics <=

    Nuclear Repulsion Energy =            355.1273439637485012
    One-Electron Energy =               -1225.3090831007707493
    Two-Electron Energy =                 487.2786519535598586
    Total Energy =                       -382.9030871834624463
  Basis Set: (AUG-CC-PVTZ AUX)
    Blend: AUG-CC-PVTZ-RI
    Molecular point group: c1

    Geometry (in Angstrom), charge = 0, multiplicity = 1:

       Center              X                  Y                   Z               Mass
    ------------   -----------------  -----------------  -----------------  -----------------
         O            3.151276454632     0.388637321271     0.010288486398    15.994914619570
         O            1.723771454632    -1.362653678729    -0.207972513602    15.994914619570
         C           -2.915247545368     0.349326321271    -0.504220513602    12.000000000000
         C           -1.494949545368     0.826949321271    -0.409448513602    12.000000000000
         C            0.859647454632     0.825172321271     0.411611486398    12.000000000000
         C           -0.523485545368     0.263840321271     0.324441486398    12.000000000000
         C           -3.246544545368    -0.880765678729     0.334152486398    12.000000000000
         C            1.902509154632    -0.200425078729     0.043502786398    12.000000000000
         H           -3.581454545368     1.176649321271    -0.219107513602     1.007825032230
         H           -3.146449545368     0.144875321271    -1.561955513602     1.007825032230
         H           -1.254202545368     1.720670321271    -0.995328513602     1.007825032230
         H            0.965058954632     1.723191121271    -0.214188113602     1.007825032230
         H            1.098361454632     1.154764321271     1.430927486398     1.007825032230
         H           -0.711968545368    -0.642773678729     0.901309486398     1.007825032230
         H           -4.294534545368    -1.160872678729     0.210335486398     1.007825032230
         H           -2.630291545368    -1.735268678729     0.036818486398     1.007825032230
         H           -3.072824545368    -0.688121678729     1.398097486398     1.007825032230
         H            3.769795454632    -0.333613678729    -0.231352513602     1.007825032230

  Basis Set: AUG-CC-PVTZ
    Blend: AUG-CC-PVTZ
  Basis Set: (AUG-CC-PVTZ AUX)
    Blend: AUG-CC-PVTZ-JKFIT
	 Reference Energy          =    -382.9030871834624463 [Eh]
	 Singles Energy            =      -0.0000000000000000 [Eh]
	 Same-Spin Energy          =      -0.3829928594069879 [Eh]
	 Opposite-Spin Energy      =      -1.2543126870314303 [Eh]
	 Correlation Energy        =      -1.6373055464384181 [Eh]
	 Total Energy              =    -384.5403927299008728 [Eh]

	 ================> DF-SCS-MP2 Energies <==================
	-----------------------------------------------------------
	 SCS Same-Spin Scale       =       0.3333333333333333 [-]
	 SCS Opposite-Spin Scale   =       1.2000000000000000 [-]
	 SCS Same-Spin Energy      =      -0.1276642864689960 [Eh]
	 SCS Opposite-Spin Energy  =      -1.5051752244377163 [Eh]
	 SCS Correlation Energy    =      -1.6328395109067122 [Eh]
	 SCS Total Energy          =    -384.5359266943691523 [Eh]
	-----------------------------------------------------------

  Dipole Moment: [D]
     X:    -0.2877      Y:     1.2985      Z:     0.2231     Total:     1.3486

*** Psi4 exiting successfully. Buy a developer a beer!
