                               Psi4 1.4a3.dev225

  ==> Input File <==

--------------------------------------------------------------------------
#psi4
#
memory 32 gb

molecule  {
0 1
  O       -3.2271830    -0.3786580    -0.1569640
  O       -1.8275510     1.3993140    -0.2614160
  C        2.8225670    -0.4310850    -0.3953020
  C        1.4009980    -0.8942070    -0.2419560
  C       -0.9807690    -0.7586230     0.4926230
  C        0.3995809    -0.2169549     0.3811489
  C        3.1298050     0.9339520     0.2103920
  C       -2.0113430     0.2195500    -0.0192140
  H        3.4859920    -1.1868430     0.0468460
  H        3.0699840    -0.4203720    -1.4654230
  H        1.1737130    -1.8673930    -0.6818980
  H       -1.0998220    -1.7054460    -0.0447970
  H       -1.2414610    -0.9681590     1.5400430
  H        0.5929560     0.7502750     0.8121930
  H        4.1791340     1.1958370     0.0500290
  H        2.5131630     1.7137800    -0.2445400
  H        2.9424530     0.9385920     1.2876810
  H       -3.8316340     0.3284440    -0.4642740
units angstrom
no_reorient  #important for SAPT in psi4, default
symmetry c1  #important for SAPT in psi4, default
}

set PROPERTIES_ORIGIN ["COM"]
properties('MP2/aug-cc-pvtz', properties = ['dipole'])
--------------------------------------------------------------------------

    Molecular point group: c1
  Charge       = 0
  Multiplicity = 1
  Basis Set: AUG-CC-PVTZ
    Blend: AUG-CC-PVTZ
  Basis Set: (AUG-CC-PVTZ AUX)
    Blend: AUG-CC-PVTZ-JKFIT

    Orbital Energies [Eh]
    ---------------------

    Doubly Occupied:

       1A    -20.616338     2A    -20.552283     3A    -11.391042
       4A    -11.254438     5A    -11.237958     6A    -11.233311
       7A    -11.230072     8A    -11.214527     9A     -1.460011
      10A     -1.357370    11A     -1.102156    12A     -1.046609
      13A     -0.958089    14A     -0.871328    15A     -0.806924
      16A     -0.742134    17A     -0.703331    18A     -0.682617
      19A     -0.655988    20A     -0.624619    21A     -0.612689
      22A     -0.599323    23A     -0.581439    24A     -0.552804
      25A     -0.532155    26A     -0.498684    27A     -0.491731
      28A     -0.485566    29A     -0.480668    30A     -0.455850
      31A     -0.349648

  @DF-RHF Final Energy:  -382.90220062855451

   => Energetics <=

    Nuclear Repulsion Energy =            354.9277259361773531
    One-Electron Energy =               -1224.8964500273207250
    Two-Electron Energy =                 487.0665234625888615
    Total Energy =                       -382.9022006285545103
  Basis Set: (AUG-CC-PVTZ AUX)
    Blend: AUG-CC-PVTZ-RI
    Molecular point group: c1

    Geometry (in Angstrom), charge = 0, multiplicity = 1:

       Center              X                  Y                   Z               Mass
    ------------   -----------------  -----------------  -----------------  -----------------
         O           -3.123356582653    -0.390283067999    -0.150676097636    15.994914619570
         O           -1.723724582653     1.387688932001    -0.255128097636    15.994914619570
         C            2.926393417347    -0.442710067999    -0.389014097636    12.000000000000
         C            1.504824417347    -0.905832067999    -0.235668097636    12.000000000000
         C           -0.876942582653    -0.770248067999     0.498910902364    12.000000000000
         C            0.503407317347    -0.228579967999     0.387436802364    12.000000000000
         C            3.233631417347     0.922326932001     0.216679902364    12.000000000000
         C           -1.907516582653     0.207924932001    -0.012926097636    12.000000000000
         H            3.589818417347    -1.198468067999     0.053133902364     1.007825032230
         H            3.173810417347    -0.431997067999    -1.459135097636     1.007825032230
         H            1.277539417347    -1.879018067999    -0.675610097636     1.007825032230
         H           -0.995995582653    -1.717071067999    -0.038509097636     1.007825032230
         H           -1.137634582653    -0.979784067999     1.546330902364     1.007825032230
         H            0.696782417347     0.738649932001     0.818480902364     1.007825032230
         H            4.282960417347     1.184211932001     0.056316902364     1.007825032230
         H            2.616989417347     1.702154932001    -0.238252097636     1.007825032230
         H            3.046279417347     0.926966932001     1.293968902364     1.007825032230
         H           -3.727807582653     0.316818932001    -0.457986097636     1.007825032230

  Basis Set: AUG-CC-PVTZ
    Blend: AUG-CC-PVTZ
  Basis Set: (AUG-CC-PVTZ AUX)
    Blend: AUG-CC-PVTZ-JKFIT
	 Reference Energy          =    -382.9022006285545103 [Eh]
	 Singles Energy            =      -0.0000000000000000 [Eh]
	 Same-Spin Energy          =      -0.3832924993434706 [Eh]
	 Opposite-Spin Energy      =      -1.2548324320302824 [Eh]
	 Correlation Energy        =      -1.6381249313737531 [Eh]
	 Total Energy              =    -384.5403255599282488 [Eh]

	 ================> DF-SCS-MP2 Energies <==================
	-----------------------------------------------------------
	 SCS Same-Spin Scale       =       0.3333333333333333 [-]
	 SCS Opposite-Spin Scale   =       1.2000000000000000 [-]
	 SCS Same-Spin Energy      =      -0.1277641664478235 [Eh]
	 SCS Opposite-Spin Energy  =      -1.5057989184363387 [Eh]
	 SCS Correlation Energy    =      -1.6335630848841622 [Eh]
	 SCS Total Energy          =    -384.5357637134386550 [Eh]
	-----------------------------------------------------------

  Dipole Moment: [D]
     X:     0.1643      Y:    -1.4152      Z:     0.2404     Total:     1.4449

*** Psi4 exiting successfully. Buy a developer a beer!
