                               Psi4 1.3.2 release

  ==> Input File <==

--------------------------------------------------------------------------
#psi4
#
memory 32 gb

molecule  {
0 1
  O        3.1501630     0.3869830     0.0122970
  O        1.7226580    -1.3643080    -0.2059640
  C       -2.9163610     0.3476720    -0.5022120
  C       -1.4960630     0.8252950    -0.4074400
  C        0.8651597     0.8040842     0.4297277
  C       -0.5245990     0.2621860     0.3264500
  C       -3.2476580    -0.8824200     0.3361610
  C        1.9107340    -0.1856640     0.0271730
  H       -3.5825680     1.1749950    -0.2170990
  H       -3.1475630     0.1432210    -1.5599470
  H       -1.2553160     1.7190160    -0.9933200
  H        0.9787830     1.7133270    -0.2211670
  H        1.0972480     1.1531100     1.4329360
  H       -0.6950458    -0.6440995     0.9094131
  H       -4.2956480    -1.1625270     0.2123440
  H       -2.6314050    -1.7369230     0.0388270
  H       -3.0739380    -0.6897760     1.4001060
  H        3.7686820    -0.3352680    -0.2293440
units angstrom
no_reorient  #important for SAPT in psi4, default
symmetry c1  #important for SAPT in psi4, default
}

set PROPERTIES_ORIGIN ["COM"]
properties('MP2/aug-cc-pvtz', properties = ['dipole'])
--------------------------------------------------------------------------

    Molecular point group: c1
  Charge       = 0
  Multiplicity = 1
  Basis Set: AUG-CC-PVTZ
    Blend: AUG-CC-PVTZ
  Basis Set: (AUG-CC-PVTZ AUX)
    Blend: AUG-CC-PVTZ-JKFIT

    Orbital Energies [Eh]
    ---------------------

    Doubly Occupied:

       1A    -20.615833     2A    -20.552577     3A    -11.390190
       4A    -11.254194     5A    -11.236389     6A    -11.232722
       7A    -11.230379     8A    -11.214672     9A     -1.458949
      10A     -1.358312    11A     -1.103235    12A     -1.046444
      13A     -0.961197    14A     -0.870789    15A     -0.806093
      16A     -0.738252    17A     -0.703087    18A     -0.684386
      19A     -0.655516    20A     -0.625086    21A     -0.612198
      22A     -0.599123    23A     -0.584655    24A     -0.552760
      25A     -0.522841    26A     -0.498208    27A     -0.491945
      28A     -0.483932    29A     -0.480093    30A     -0.456434
      31A     -0.354876

  @DF-RHF Final Energy:  -382.90202082800482

   => Energetics <=

    Nuclear Repulsion Energy =            355.2052984323368037
    One-Electron Energy =               -1225.4639063607974094
    Two-Electron Energy =                 487.3565871004557835
    Total Energy =                       -382.9020208280048223
  Basis Set: (AUG-CC-PVTZ AUX)
    Blend: AUG-CC-PVTZ-RI
    Molecular point group: c1

    Geometry (in Angstrom), charge = 0, multiplicity = 1:

       Center              X                  Y                   Z               Mass
    ------------   -----------------  -----------------  -----------------  -----------------
         O            3.149306587701     0.389024491561     0.010548700583    15.994914619570
         O            1.721801587701    -1.362266508439    -0.207712299417    15.994914619570
         C           -2.917217412299     0.349713491561    -0.503960299417    12.000000000000
         C           -1.496919412299     0.827336491561    -0.409188299417    12.000000000000
         C            0.864303287701     0.806125691561     0.427979400583    12.000000000000
         C           -0.525455412299     0.264227491561     0.324701700583    12.000000000000
         C           -3.248514412299    -0.880378508439     0.334412700583    12.000000000000
         C            1.909877587701    -0.183622508439     0.025424700583    12.000000000000
         H           -3.583424412299     1.177036491561    -0.218847299417     1.007825032230
         H           -3.148419412299     0.145262491561    -1.561695299417     1.007825032230
         H           -1.256172412299     1.721057491561    -0.995068299417     1.007825032230
         H            0.977926587701     1.715368491561    -0.222915299417     1.007825032230
         H            1.096391587701     1.155151491561     1.431187700583     1.007825032230
         H           -0.695902212299    -0.642058008439     0.907664800583     1.007825032230
         H           -4.296504412299    -1.160485508439     0.210595700583     1.007825032230
         H           -2.632261412299    -1.734881508439     0.037078700583     1.007825032230
         H           -3.074794412299    -0.687734508439     1.398357700583     1.007825032230
         H            3.767825587701    -0.333226508439    -0.231092299417     1.007825032230

  Basis Set: AUG-CC-PVTZ
    Blend: AUG-CC-PVTZ
  Basis Set: (AUG-CC-PVTZ AUX)
    Blend: AUG-CC-PVTZ-JKFIT
	 Reference Energy          =    -382.9020208280048223 [Eh]
	 Singles Energy            =      -0.0000000000000000 [Eh]
	 Same-Spin Energy          =      -0.3832008234709345 [Eh]
	 Opposite-Spin Energy      =      -1.2546843538422587 [Eh]
	 Correlation Energy        =      -1.6378851773131933 [Eh]
	 Total Energy              =    -384.5399060053180165 [Eh]

	 ================> DF-SCS-MP2 Energies <==================
	-----------------------------------------------------------
	 SCS Same-Spin Scale       =       0.3333333333333333 [-]
	 SCS Opposite-Spin Scale   =       1.2000000000000000 [-]
	 SCS Same-Spin Energy      =      -0.1277336078236448 [Eh]
	 SCS Opposite-Spin Energy  =      -1.5056212246107104 [Eh]
	 SCS Correlation Energy    =      -1.6333548324343552 [Eh]
	 SCS Total Energy          =    -384.5353756604391720 [Eh]
	-----------------------------------------------------------

  Dipole Moment: [D]
     X:    -0.1866      Y:     1.3950      Z:     0.2205     Total:     1.4246

*** Psi4 exiting successfully. Buy a developer a beer!
