                               Psi4 1.3.2 release

  ==> Input File <==

--------------------------------------------------------------------------
#psi4
#
memory 32 gb

molecule  {
0 1
  O        3.1501630     0.3869830     0.0122970
  O        1.7226580    -1.3643080    -0.2059640
  C       -2.9163610     0.3476720    -0.5022120
  C       -1.5391589     0.7739912    -0.3863979
  C        0.8772339     0.7645359     0.4615727
  C       -0.5245990     0.2621860     0.3264500
  C       -3.2476580    -0.8824200     0.3361610
  C        1.9107340    -0.1856640     0.0271730
  H       -3.5825680     1.1749950    -0.2170990
  H       -3.1475630     0.1432210    -1.5599470
  H       -1.2553160     1.7190160    -0.9933200
  H        0.9787830     1.7133270    -0.2211670
  H        1.0972480     1.1531100     1.4329360
  H       -0.7130820    -0.6444280     0.9033180
  H       -4.2956480    -1.1625270     0.2123440
  H       -2.6314050    -1.7369230     0.0388270
  H       -3.0739380    -0.6897760     1.4001060
  H        3.7686820    -0.3352680    -0.2293440
units angstrom
no_reorient  #important for SAPT in psi4, default
symmetry c1  #important for SAPT in psi4, default
}

set PROPERTIES_ORIGIN ["COM"]
properties('MP2/aug-cc-pvtz', properties = ['dipole'])
--------------------------------------------------------------------------

    Molecular point group: c1
  Charge       = 0
  Multiplicity = 1
  Basis Set: AUG-CC-PVTZ
    Blend: AUG-CC-PVTZ
  Basis Set: (AUG-CC-PVTZ AUX)
    Blend: AUG-CC-PVTZ-JKFIT

    Orbital Energies [Eh]
    ---------------------

    Doubly Occupied:

       1A    -20.616467     2A    -20.552198     3A    -11.390269
       4A    -11.257631     5A    -11.240457     6A    -11.232958
       7A    -11.229624     8A    -11.214898     9A     -1.459911
      10A     -1.358827    11A     -1.107667    12A     -1.054535
      13A     -0.962577    14A     -0.877611    15A     -0.808638
      16A     -0.727385    17A     -0.702495    18A     -0.689656
      19A     -0.660521    20A     -0.627117    21A     -0.616790
      22A     -0.593808    23A     -0.588238    24A     -0.556187
      25A     -0.514197    26A     -0.502776    27A     -0.501088
      28A     -0.482150    29A     -0.465562    30A     -0.457525
      31A     -0.354957

  @DF-RHF Final Energy:  -382.88927837787912

   => Energetics <=

    Nuclear Repulsion Energy =            355.9276800005821997
    One-Electron Energy =               -1226.8244765462916348
    Two-Electron Energy =                 488.0075181678303124
    Total Energy =                       -382.8892783778791227
  Basis Set: (AUG-CC-PVTZ AUX)
    Blend: AUG-CC-PVTZ-RI
    Molecular point group: c1

    Geometry (in Angstrom), charge = 0, multiplicity = 1:

       Center              X                  Y                   Z               Mass
    ------------   -----------------  -----------------  -----------------  -----------------
         O            3.152729436016     0.398585065165     0.005038812032    15.994914619570
         O            1.725224436016    -1.352705934835    -0.213222187968    15.994914619570
         C           -2.913794563984     0.359274065165    -0.509470187968    12.000000000000
         C           -1.536592463984     0.785593265165    -0.393656087968    12.000000000000
         C            0.879800336016     0.776137965165     0.454314512032    12.000000000000
         C           -0.522032563984     0.273788065165     0.319191812032    12.000000000000
         C           -3.245091563984    -0.870817934835     0.328902812032    12.000000000000
         C            1.913300436016    -0.174061934835     0.019914812032    12.000000000000
         H           -3.580001563984     1.186597065165    -0.224357187968     1.007825032230
         H           -3.144996563984     0.154823065165    -1.567205187968     1.007825032230
         H           -1.252749563984     1.730618065165    -1.000578187968     1.007825032230
         H            0.981349436016     1.724929065165    -0.228425187968     1.007825032230
         H            1.099814436016     1.164712065165     1.425677812032     1.007825032230
         H           -0.710515563984    -0.632825934835     0.896059812032     1.007825032230
         H           -4.293081563984    -1.150924934835     0.205085812032     1.007825032230
         H           -2.628838563984    -1.725320934835     0.031568812032     1.007825032230
         H           -3.071371563984    -0.678173934835     1.392847812032     1.007825032230
         H            3.771248436016    -0.323665934835    -0.236602187968     1.007825032230

  Basis Set: AUG-CC-PVTZ
    Blend: AUG-CC-PVTZ
  Basis Set: (AUG-CC-PVTZ AUX)
    Blend: AUG-CC-PVTZ-JKFIT
	 Reference Energy          =    -382.8892783778791227 [Eh]
	 Singles Energy            =      -0.0000000000000000 [Eh]
	 Same-Spin Energy          =      -0.3842151768388105 [Eh]
	 Opposite-Spin Energy      =      -1.2562250097101426 [Eh]
	 Correlation Energy        =      -1.6404401865489531 [Eh]
	 Total Energy              =    -384.5297185644280944 [Eh]

	 ================> DF-SCS-MP2 Energies <==================
	-----------------------------------------------------------
	 SCS Same-Spin Scale       =       0.3333333333333333 [-]
	 SCS Opposite-Spin Scale   =       1.2000000000000000 [-]
	 SCS Same-Spin Energy      =      -0.1280717256129368 [Eh]
	 SCS Opposite-Spin Energy  =      -1.5074700116521711 [Eh]
	 SCS Correlation Energy    =      -1.6355417372651080 [Eh]
	 SCS Total Energy          =    -384.5248201151442231 [Eh]
	-----------------------------------------------------------

  Dipole Moment: [D]
     X:    -0.2690      Y:     1.3622      Z:     0.2527     Total:     1.4113

*** Psi4 exiting successfully. Buy a developer a beer!
