                               Psi4 1.3.2 release

  ==> Input File <==

--------------------------------------------------------------------------
#psi4
#
memory 32 gb

molecule  {
0 1
  O        3.1501630     0.3869830     0.0122970
  O        1.7226580    -1.3643080    -0.2059640
  C       -2.9163610     0.3476720    -0.5022120
  C       -1.4960630     0.8252950    -0.4074400
  C        0.8585340     0.8235180     0.4136200
  C       -0.5397722     0.2458722     0.3336442
  C       -3.2476580    -0.8824200     0.3361610
  C        1.9107340    -0.1856640     0.0271730
  H       -3.5825680     1.1749950    -0.2170990
  H       -3.1475630     0.1432210    -1.5599470
  H       -1.2733688     1.7195642    -0.9995900
  H        0.9787830     1.7133270    -0.2211670
  H        1.0972480     1.1531100     1.4329360
  H       -0.7130820    -0.6444280     0.9033180
  H       -4.2956480    -1.1625270     0.2123440
  H       -2.6314050    -1.7369230     0.0388270
  H       -3.0739380    -0.6897760     1.4001060
  H        3.7686820    -0.3352680    -0.2293440
units angstrom
no_reorient  #important for SAPT in psi4, default
symmetry c1  #important for SAPT in psi4, default
}

set PROPERTIES_ORIGIN ["COM"]
properties('MP2/aug-cc-pvtz', properties = ['dipole'])
--------------------------------------------------------------------------

    Molecular point group: c1
  Charge       = 0
  Multiplicity = 1
  Basis Set: AUG-CC-PVTZ
    Blend: AUG-CC-PVTZ
  Basis Set: (AUG-CC-PVTZ AUX)
    Blend: AUG-CC-PVTZ-JKFIT

    Orbital Energies [Eh]
    ---------------------

    Doubly Occupied:

       1A    -20.615435     2A    -20.552478     3A    -11.390082
       4A    -11.254677     5A    -11.235859     6A    -11.232337
       7A    -11.229148     8A    -11.214523     9A     -1.458322
      10A     -1.357849    11A     -1.101674    12A     -1.043727
      13A     -0.959930    14A     -0.870531    15A     -0.804674
      16A     -0.741945    17A     -0.702940    18A     -0.681377
      19A     -0.653182    20A     -0.625271    21A     -0.611902
      22A     -0.601108    23A     -0.582019    24A     -0.550772
      25A     -0.529411    26A     -0.497987    27A     -0.491133
      28A     -0.485063    29A     -0.479332    30A     -0.455211
      31A     -0.354589

  @DF-RHF Final Energy:  -382.90276675942039

   => Energetics <=

    Nuclear Repulsion Energy =            354.9303110198077320
    One-Electron Energy =               -1224.9371784892448431
    Two-Electron Energy =                 487.1041007100167235
    Total Energy =                       -382.9027667594203876
  Basis Set: (AUG-CC-PVTZ AUX)
    Blend: AUG-CC-PVTZ-RI
    Molecular point group: c1

    Geometry (in Angstrom), charge = 0, multiplicity = 1:

       Center              X                  Y                   Z               Mass
    ------------   -----------------  -----------------  -----------------  -----------------
         O            3.151918696179     0.388694325406     0.011595653050    15.994914619570
         O            1.724413696179    -1.362596674594    -0.206665346950    15.994914619570
         C           -2.914605303821     0.349383325406    -0.502913346950    12.000000000000
         C           -1.494307303821     0.827006325406    -0.408141346950    12.000000000000
         C            0.860289696179     0.825229325406     0.412918653050    12.000000000000
         C           -0.538016503821     0.247583525406     0.332942853050    12.000000000000
         C           -3.245902303821    -0.880708674594     0.335459653050    12.000000000000
         C            1.912489696179    -0.183952674594     0.026471653050    12.000000000000
         H           -3.580812303821     1.176706325406    -0.217800346950     1.007825032230
         H           -3.145807303821     0.144932325406    -1.560648346950     1.007825032230
         H           -1.271613103821     1.721275525406    -1.000291346950     1.007825032230
         H            0.980538696179     1.715038325406    -0.221868346950     1.007825032230
         H            1.099003696179     1.154821325406     1.432234653050     1.007825032230
         H           -0.711326303821    -0.642716674594     0.902616653050     1.007825032230
         H           -4.293892303821    -1.160815674594     0.211642653050     1.007825032230
         H           -2.629649303821    -1.735211674594     0.038125653050     1.007825032230
         H           -3.072182303821    -0.688064674594     1.399404653050     1.007825032230
         H            3.770437696179    -0.333556674594    -0.230045346950     1.007825032230

  Basis Set: AUG-CC-PVTZ
    Blend: AUG-CC-PVTZ
  Basis Set: (AUG-CC-PVTZ AUX)
    Blend: AUG-CC-PVTZ-JKFIT
	 Reference Energy          =    -382.9027667594203876 [Eh]
	 Singles Energy            =      -0.0000000000000000 [Eh]
	 Same-Spin Energy          =      -0.3829578343003872 [Eh]
	 Opposite-Spin Energy      =      -1.2543706321085215 [Eh]
	 Correlation Energy        =      -1.6373284664089087 [Eh]
	 Total Energy              =    -384.5400952258293046 [Eh]

	 ================> DF-SCS-MP2 Energies <==================
	-----------------------------------------------------------
	 SCS Same-Spin Scale       =       0.3333333333333333 [-]
	 SCS Opposite-Spin Scale   =       1.2000000000000000 [-]
	 SCS Same-Spin Energy      =      -0.1276526114334624 [Eh]
	 SCS Opposite-Spin Energy  =      -1.5052447585302258 [Eh]
	 SCS Correlation Energy    =      -1.6328973699636882 [Eh]
	 SCS Total Energy          =    -384.5356641293840880 [Eh]
	-----------------------------------------------------------

  Dipole Moment: [D]
     X:    -0.1889      Y:     1.3986      Z:     0.2014     Total:     1.4256

*** Psi4 exiting successfully. Buy a developer a beer!
