                               Psi4 1.3.2 release

  ==> Input File <==

--------------------------------------------------------------------------
#psi4
#
memory 32 gb

molecule  {
0 1
  O        3.1501630     0.3869830     0.0122970
  O        1.7226580    -1.3643080    -0.2059640
  C       -2.9163610     0.3476720    -0.5022120
  C       -1.4960630     0.8252950    -0.4074400
  C        0.8585340     0.8235180     0.4136200
  C       -0.5433174     0.3082892     0.3421990
  C       -3.2476580    -0.8824200     0.3361610
  C        1.9476664    -0.1492606     0.0362516
  H       -3.5825680     1.1749950    -0.2170990
  H       -3.1475630     0.1432210    -1.5599470
  H       -1.2553160     1.7190160    -0.9933200
  H        0.9787830     1.7133270    -0.2211670
  H        1.0972480     1.1531100     1.4329360
  H       -0.7130820    -0.6444280     0.9033180
  H       -4.2956480    -1.1625270     0.2123440
  H       -2.6314050    -1.7369230     0.0388270
  H       -3.0739380    -0.6897760     1.4001060
  H        3.7686820    -0.3352680    -0.2293440
units angstrom
no_reorient  #important for SAPT in psi4, default
symmetry c1  #important for SAPT in psi4, default
}

set PROPERTIES_ORIGIN ["COM"]
properties('MP2/aug-cc-pvtz', properties = ['dipole'])
--------------------------------------------------------------------------

    Molecular point group: c1
  Charge       = 0
  Multiplicity = 1
  Basis Set: AUG-CC-PVTZ
    Blend: AUG-CC-PVTZ
  Basis Set: (AUG-CC-PVTZ AUX)
    Blend: AUG-CC-PVTZ-JKFIT

    Orbital Energies [Eh]
    ---------------------

    Doubly Occupied:

       1A    -20.630559     2A    -20.542914     3A    -11.394235
       4A    -11.254678     5A    -11.232263     6A    -11.230436
       7A    -11.229646     8A    -11.213751     9A     -1.476282
      10A     -1.337682    11A     -1.104695    12A     -1.045065
      13A     -0.965250    14A     -0.873205    15A     -0.821542
      16A     -0.733557    17A     -0.706877    18A     -0.684320
      19A     -0.659699    20A     -0.628572    21A     -0.611583
      22A     -0.600182    23A     -0.573245    24A     -0.556977
      25A     -0.522720    26A     -0.497606    27A     -0.491781
      28A     -0.476575    29A     -0.467796    30A     -0.450103
      31A     -0.359046

  @DF-RHF Final Energy:  -382.89660136035479

   => Energetics <=

    Nuclear Repulsion Energy =            354.8740066076123298
    One-Electron Energy =               -1224.7955320485336870
    Two-Electron Energy =                 487.0249240805666204
    Total Energy =                       -382.8966013603547935
  Basis Set: (AUG-CC-PVTZ AUX)
    Blend: AUG-CC-PVTZ-RI
    Molecular point group: c1

    Geometry (in Angstrom), charge = 0, multiplicity = 1:

       Center              X                  Y                   Z               Mass
    ------------   -----------------  -----------------  -----------------  -----------------
         O            3.148246849810     0.378303229888     0.009685216197    15.994914619570
         O            1.720741849810    -1.372987770112    -0.208575783803    15.994914619570
         C           -2.918277150190     0.338992229888    -0.504823783803    12.000000000000
         C           -1.497979150190     0.816615229888    -0.410051783803    12.000000000000
         C            0.856617849810     0.814838229888     0.411008216197    12.000000000000
         C           -0.545233550190     0.299609429888     0.339587216197    12.000000000000
         C           -3.249574150190    -0.891099770112     0.333549216197    12.000000000000
         C            1.945750249810    -0.157940370112     0.033639816197    12.000000000000
         H           -3.584484150190     1.166315229888    -0.219710783803     1.007825032230
         H           -3.149479150190     0.134541229888    -1.562558783803     1.007825032230
         H           -1.257232150190     1.710336229888    -0.995931783803     1.007825032230
         H            0.976866849810     1.704647229888    -0.223778783803     1.007825032230
         H            1.095331849810     1.144430229888     1.430324216197     1.007825032230
         H           -0.714998150190    -0.653107770112     0.900706216197     1.007825032230
         H           -4.297564150190    -1.171206770112     0.209732216197     1.007825032230
         H           -2.633321150190    -1.745602770112     0.036215216197     1.007825032230
         H           -3.075854150190    -0.698455770112     1.397494216197     1.007825032230
         H            3.766765849810    -0.343947770112    -0.231955783803     1.007825032230

  Basis Set: AUG-CC-PVTZ
    Blend: AUG-CC-PVTZ
  Basis Set: (AUG-CC-PVTZ AUX)
    Blend: AUG-CC-PVTZ-JKFIT
	 Reference Energy          =    -382.8966013603547935 [Eh]
	 Singles Energy            =      -0.0000000000000000 [Eh]
	 Same-Spin Energy          =      -0.3835468650194258 [Eh]
	 Opposite-Spin Energy      =      -1.2548774373271052 [Eh]
	 Correlation Energy        =      -1.6384243023465310 [Eh]
	 Total Energy              =    -384.5350256627013437 [Eh]

	 ================> DF-SCS-MP2 Energies <==================
	-----------------------------------------------------------
	 SCS Same-Spin Scale       =       0.3333333333333333 [-]
	 SCS Opposite-Spin Scale   =       1.2000000000000000 [-]
	 SCS Same-Spin Energy      =      -0.1278489550064753 [Eh]
	 SCS Opposite-Spin Energy  =      -1.5058529247925263 [Eh]
	 SCS Correlation Energy    =      -1.6337018797990015 [Eh]
	 SCS Total Energy          =    -384.5303032401537848 [Eh]
	-----------------------------------------------------------

  Dipole Moment: [D]
     X:     0.1737      Y:     1.6451      Z:     0.1947     Total:     1.6656

*** Psi4 exiting successfully. Buy a developer a beer!
