                               Psi4 1.3.2 release

  ==> Input File <==

--------------------------------------------------------------------------
#psi4
#
memory 32 gb

molecule  {
0 1
  O        3.1501630     0.3869830     0.0122970
  O        1.7226580    -1.3643080    -0.2059640
  C       -2.9163610     0.3476720    -0.5022120
  C       -1.4960630     0.8252950    -0.4074400
  C        0.8585340     0.8235180     0.4136200
  C       -0.5245990     0.2621860     0.3264500
  C       -3.2476580    -0.8824200     0.3361610
  C        1.9107340    -0.1856640     0.0271730
  H       -3.5825680     1.1749950    -0.2170990
  H       -3.1475630     0.1432210    -1.5599470
  H       -1.2553160     1.7190160    -0.9933200
  H        0.9787830     1.7133270    -0.2211670
  H        1.0972480     1.1531100     1.4329360
  H       -0.7476348    -0.8106288     1.0090696
  H       -4.2956480    -1.1625270     0.2123440
  H       -2.6314050    -1.7369230     0.0388270
  H       -3.0739380    -0.6897760     1.4001060
  H        3.7686820    -0.3352680    -0.2293440
units angstrom
no_reorient  #important for SAPT in psi4, default
symmetry c1  #important for SAPT in psi4, default
}

set PROPERTIES_ORIGIN ["COM"]
properties('MP2/aug-cc-pvtz', properties = ['dipole'])
--------------------------------------------------------------------------

    Molecular point group: c1
  Charge       = 0
  Multiplicity = 1
  Basis Set: AUG-CC-PVTZ
    Blend: AUG-CC-PVTZ
  Basis Set: (AUG-CC-PVTZ AUX)
    Blend: AUG-CC-PVTZ-JKFIT

    Orbital Energies [Eh]
    ---------------------

    Doubly Occupied:

       1A    -20.615912     2A    -20.552464     3A    -11.390631
       4A    -11.256826     5A    -11.253164     6A    -11.237129
       7A    -11.230403     8A    -11.213969     9A     -1.458649
      10A     -1.357936    11A     -1.101077    12A     -1.045793
      13A     -0.959491    14A     -0.866873    15A     -0.806499
      16A     -0.720299    17A     -0.699300    18A     -0.682815
      19A     -0.654603    20A     -0.626430    21A     -0.611912
      22A     -0.595457    23A     -0.581388    24A     -0.553742
      25A     -0.513477    26A     -0.497900    27A     -0.490884
      28A     -0.482887    29A     -0.469605    30A     -0.454984
      31A     -0.355543

  @DF-RHF Final Energy:  -382.88002939750481

   => Energetics <=

    Nuclear Repulsion Energy =            354.2761011207902015
    One-Electron Energy =               -1223.6361759008830177
    Two-Electron Energy =                 486.4800453825880595
    Total Energy =                       -382.8800293975048135
  Basis Set: (AUG-CC-PVTZ AUX)
    Blend: AUG-CC-PVTZ-RI
    Molecular point group: c1

    Geometry (in Angstrom), charge = 0, multiplicity = 1:

       Center              X                  Y                   Z               Mass
    ------------   -----------------  -----------------  -----------------  -----------------
         O            3.150468252833     0.388451384666     0.011362741505    15.994914619570
         O            1.722963252833    -1.362839615334    -0.206898258495    15.994914619570
         C           -2.916055747167     0.349140384666    -0.503146258495    12.000000000000
         C           -1.495757747167     0.826763384666    -0.408374258495    12.000000000000
         C            0.858839252833     0.824986384666     0.412685741505    12.000000000000
         C           -0.524293747167     0.263654384666     0.325515741505    12.000000000000
         C           -3.247352747167    -0.880951615334     0.335226741505    12.000000000000
         C            1.911039252833    -0.184195615334     0.026238741505    12.000000000000
         H           -3.582262747167     1.176463384666    -0.218033258495     1.007825032230
         H           -3.147257747167     0.144689384666    -1.560881258495     1.007825032230
         H           -1.255010747167     1.720484384666    -0.994254258495     1.007825032230
         H            0.979088252833     1.714795384666    -0.222101258495     1.007825032230
         H            1.097553252833     1.154578384666     1.432001741505     1.007825032230
         H           -0.747329547167    -0.809160415334     1.008135341505     1.007825032230
         H           -4.295342747167    -1.161058615334     0.211409741505     1.007825032230
         H           -2.631099747167    -1.735454615334     0.037892741505     1.007825032230
         H           -3.073632747167    -0.688307615334     1.399171741505     1.007825032230
         H            3.768987252833    -0.333799615334    -0.230278258495     1.007825032230

  Basis Set: AUG-CC-PVTZ
    Blend: AUG-CC-PVTZ
  Basis Set: (AUG-CC-PVTZ AUX)
    Blend: AUG-CC-PVTZ-JKFIT
	 Reference Energy          =    -382.8800293975048135 [Eh]
	 Singles Energy            =      -0.0000000000000000 [Eh]
	 Same-Spin Energy          =      -0.3838527237862393 [Eh]
	 Opposite-Spin Energy      =      -1.2568745248080977 [Eh]
	 Correlation Energy        =      -1.6407272485943369 [Eh]
	 Total Energy              =    -384.5207566460991302 [Eh]

	 ================> DF-SCS-MP2 Energies <==================
	-----------------------------------------------------------
	 SCS Same-Spin Scale       =       0.3333333333333333 [-]
	 SCS Opposite-Spin Scale   =       1.2000000000000000 [-]
	 SCS Same-Spin Energy      =      -0.1279509079287464 [Eh]
	 SCS Opposite-Spin Energy  =      -1.5082494297697171 [Eh]
	 SCS Correlation Energy    =      -1.6362003376984635 [Eh]
	 SCS Total Energy          =    -384.5162297352032965 [Eh]
	-----------------------------------------------------------

  Dipole Moment: [D]
     X:    -0.1486      Y:     1.4329      Z:     0.1673     Total:     1.4503

*** Psi4 exiting successfully. Buy a developer a beer!
