                               Psi4 1.4a3.dev225

  ==> Input File <==

--------------------------------------------------------------------------
#psi4
#
memory 32 gb

molecule  {
0 1
  O       -3.2271830    -0.3786580    -0.1569640
  O       -1.8275510     1.3993140    -0.2614160
  C        2.8225670    -0.4310850    -0.3953020
  C        1.4009980    -0.8942070    -0.2419560
  C       -0.9807690    -0.7586230     0.4926230
  C        0.4143070    -0.2269140     0.3719860
  C        3.1298050     0.9339520     0.2103920
  C       -2.0113430     0.2195500    -0.0192140
  H        3.4859920    -1.1868430     0.0468460
  H        3.0699840    -0.4203720    -1.4654230
  H        1.1737130    -1.8673930    -0.6818980
  H       -1.0998220    -1.7054460    -0.0447970
  H       -1.2414610    -0.9681590     1.5400430
  H        0.5896676     0.7322880     0.8040902
  H        4.1791340     1.1958370     0.0500290
  H        2.5131630     1.7137800    -0.2445400
  H        2.9424530     0.9385920     1.2876810
  H       -3.8316340     0.3284440    -0.4642740
units angstrom
no_reorient  #important for SAPT in psi4, default
symmetry c1  #important for SAPT in psi4, default
}

set PROPERTIES_ORIGIN ["COM"]
properties('MP2/aug-cc-pvtz', properties = ['dipole'])
--------------------------------------------------------------------------

    Molecular point group: c1
  Charge       = 0
  Multiplicity = 1
  Basis Set: AUG-CC-PVTZ
    Blend: AUG-CC-PVTZ
  Basis Set: (AUG-CC-PVTZ AUX)
    Blend: AUG-CC-PVTZ-JKFIT

    Orbital Energies [Eh]
    ---------------------

    Doubly Occupied:

       1A    -20.616407     2A    -20.552270     3A    -11.391189
       4A    -11.254537     5A    -11.234944     6A    -11.229891
       7A    -11.229761     8A    -11.214471     9A     -1.460025
      10A     -1.357349    11A     -1.103678    12A     -1.045593
      13A     -0.961021    14A     -0.871186    15A     -0.807483
      16A     -0.742959    17A     -0.703391    18A     -0.682270
      19A     -0.655765    20A     -0.624559    21A     -0.612770
      22A     -0.600868    23A     -0.581584    24A     -0.553919
      25A     -0.530304    26A     -0.498770    27A     -0.492599
      28A     -0.484728    29A     -0.479708    30A     -0.455763
      31A     -0.354465

  @DF-RHF Final Energy:  -382.90394018072027

   => Energetics <=

    Nuclear Repulsion Energy =            355.0803387054587574
    One-Electron Energy =               -1225.2001030627495766
    Two-Electron Energy =                 487.2158241765705498
    Total Energy =                       -382.9039401807202694
  Basis Set: (AUG-CC-PVTZ AUX)
    Blend: AUG-CC-PVTZ-RI
    Molecular point group: c1

    Geometry (in Angstrom), charge = 0, multiplicity = 1:

       Center              X                  Y                   Z               Mass
    ------------   -----------------  -----------------  -----------------  -----------------
         O           -3.124876719302    -0.389076446924    -0.149640566880    15.994914619570
         O           -1.725244719302     1.388895553076    -0.254092566880    15.994914619570
         C            2.924873280698    -0.441503446924    -0.387978566880    12.000000000000
         C            1.503304280698    -0.904625446924    -0.234632566880    12.000000000000
         C           -0.878462719302    -0.769041446924     0.499946433120    12.000000000000
         C            0.516613280698    -0.237332446924     0.379309433120    12.000000000000
         C            3.232111280698     0.923533553076     0.217715433120    12.000000000000
         C           -1.909036719302     0.209131553076    -0.011890566880    12.000000000000
         H            3.588298280698    -1.197261446924     0.054169433120     1.007825032230
         H            3.172290280698    -0.430790446924    -1.458099566880     1.007825032230
         H            1.276019280698    -1.877811446924    -0.674574566880     1.007825032230
         H           -0.997515719302    -1.715864446924    -0.037473566880     1.007825032230
         H           -1.139154719302    -0.978577446924     1.547366433120     1.007825032230
         H            0.691973880698     0.721869553076     0.811413633120     1.007825032230
         H            4.281440280698     1.185418553076     0.057352433120     1.007825032230
         H            2.615469280698     1.703361553076    -0.237216566880     1.007825032230
         H            3.044759280698     0.928173553076     1.295004433120     1.007825032230
         H           -3.729327719302     0.318025553076    -0.456950566880     1.007825032230

  Basis Set: AUG-CC-PVTZ
    Blend: AUG-CC-PVTZ
  Basis Set: (AUG-CC-PVTZ AUX)
    Blend: AUG-CC-PVTZ-JKFIT
	 Reference Energy          =    -382.9039401807202694 [Eh]
	 Singles Energy            =      -0.0000000000000000 [Eh]
	 Same-Spin Energy          =      -0.3829539318356867 [Eh]
	 Opposite-Spin Energy      =      -1.2540821823247978 [Eh]
	 Correlation Energy        =      -1.6370361141604846 [Eh]
	 Total Energy              =    -384.5409762948807497 [Eh]

	 ================> DF-SCS-MP2 Energies <==================
	-----------------------------------------------------------
	 SCS Same-Spin Scale       =       0.3333333333333333 [-]
	 SCS Opposite-Spin Scale   =       1.2000000000000000 [-]
	 SCS Same-Spin Energy      =      -0.1276513106118956 [Eh]
	 SCS Opposite-Spin Energy  =      -1.5048986187897573 [Eh]
	 SCS Correlation Energy    =      -1.6325499294016528 [Eh]
	 SCS Total Energy          =    -384.5364901101219175 [Eh]
	-----------------------------------------------------------

  Dipole Moment: [D]
     X:     0.1686      Y:    -1.4145      Z:     0.2417     Total:     1.4449

*** Psi4 exiting successfully. Buy a developer a beer!
