                               Psi4 1.3.2 release

  ==> Input File <==

--------------------------------------------------------------------------
#psi4
#
memory 32 gb

molecule  {
0 1
  O        3.1501630     0.3869830     0.0122970
  O        1.7226580    -1.3643080    -0.2059640
  C       -2.9163610     0.3476720    -0.5022120
  C       -1.4960630     0.8252950    -0.4074400
  C        0.8585340     0.8235180     0.4136200
  C       -0.5245990     0.2621860     0.3264500
  C       -3.2476580    -0.8824200     0.3361610
  C        1.9197518    -0.1689412     0.0089524
  H       -3.5825680     1.1749950    -0.2170990
  H       -3.1475630     0.1432210    -1.5599470
  H       -1.2553160     1.7190160    -0.9933200
  H        0.9935839     1.7048462    -0.2299611
  H        1.0972480     1.1531100     1.4329360
  H       -0.7130820    -0.6444280     0.9033180
  H       -4.2956480    -1.1625270     0.2123440
  H       -2.6314050    -1.7369230     0.0388270
  H       -3.0739380    -0.6897760     1.4001060
  H        3.7686820    -0.3352680    -0.2293440
units angstrom
no_reorient  #important for SAPT in psi4, default
symmetry c1  #important for SAPT in psi4, default
}

set PROPERTIES_ORIGIN ["COM"]
properties('MP2/aug-cc-pvtz', properties = ['dipole'])
--------------------------------------------------------------------------

    Molecular point group: c1
  Charge       = 0
  Multiplicity = 1
  Basis Set: AUG-CC-PVTZ
    Blend: AUG-CC-PVTZ
  Basis Set: (AUG-CC-PVTZ AUX)
    Blend: AUG-CC-PVTZ-JKFIT

    Orbital Energies [Eh]
    ---------------------

    Doubly Occupied:

       1A    -20.620229     2A    -20.549386     3A    -11.391172
       4A    -11.254406     5A    -11.235354     6A    -11.232233
       7A    -11.229880     8A    -11.214495     9A     -1.462200
      10A     -1.352244    11A     -1.102761    12A     -1.045434
      13A     -0.960749    14A     -0.871172    15A     -0.810042
      16A     -0.738571    17A     -0.703495    18A     -0.681972
      19A     -0.655508    20A     -0.627152    21A     -0.611896
      22A     -0.598604    23A     -0.580365    24A     -0.552619
      25A     -0.528449    26A     -0.497950    27A     -0.490935
      28A     -0.482698    29A     -0.477295    30A     -0.453652
      31A     -0.354036

  @DF-RHF Final Energy:  -382.90166328926648

   => Energetics <=

    Nuclear Repulsion Energy =            355.0133354193550872
    One-Electron Energy =               -1225.0960929810898961
    Two-Electron Energy =                 487.1810942724682718
    Total Energy =                       -382.9016632892664802
  Basis Set: (AUG-CC-PVTZ AUX)
    Blend: AUG-CC-PVTZ-RI
    Molecular point group: c1

    Geometry (in Angstrom), charge = 0, multiplicity = 1:

       Center              X                  Y                   Z               Mass
    ------------   -----------------  -----------------  -----------------  -----------------
         O            3.149083522811     0.385298637942     0.014291599649    15.994914619570
         O            1.721578522811    -1.365992362058    -0.203969400351    15.994914619570
         C           -2.917440477189     0.345987637942    -0.500217400351    12.000000000000
         C           -1.497142477189     0.823610637942    -0.405445400351    12.000000000000
         C            0.857454522811     0.821833637942     0.415614599649    12.000000000000
         C           -0.525678477189     0.260501637942     0.328444599649    12.000000000000
         C           -3.248737477189    -0.884104362058     0.338155599649    12.000000000000
         C            1.918672322811    -0.170625562058     0.010946999649    12.000000000000
         H           -3.583647477189     1.173310637942    -0.215104400351     1.007825032230
         H           -3.148642477189     0.141536637942    -1.557952400351     1.007825032230
         H           -1.256395477189     1.717331637942    -0.991325400351     1.007825032230
         H            0.992504422811     1.703161837942    -0.227966500351     1.007825032230
         H            1.096168522811     1.151425637942     1.434930599649     1.007825032230
         H           -0.714161477189    -0.646112362058     0.905312599649     1.007825032230
         H           -4.296727477189    -1.164211362058     0.214338599649     1.007825032230
         H           -2.632484477189    -1.738607362058     0.040821599649     1.007825032230
         H           -3.075017477189    -0.691460362058     1.402100599649     1.007825032230
         H            3.767602522811    -0.336952362058    -0.227349400351     1.007825032230

  Basis Set: AUG-CC-PVTZ
    Blend: AUG-CC-PVTZ
  Basis Set: (AUG-CC-PVTZ AUX)
    Blend: AUG-CC-PVTZ-JKFIT
	 Reference Energy          =    -382.9016632892664802 [Eh]
	 Singles Energy            =      -0.0000000000000000 [Eh]
	 Same-Spin Energy          =      -0.3833294845860372 [Eh]
	 Opposite-Spin Energy      =      -1.2548563345667181 [Eh]
	 Correlation Energy        =      -1.6381858191527554 [Eh]
	 Total Energy              =    -384.5398491084192187 [Eh]

	 ================> DF-SCS-MP2 Energies <==================
	-----------------------------------------------------------
	 SCS Same-Spin Scale       =       0.3333333333333333 [-]
	 SCS Opposite-Spin Scale   =       1.2000000000000000 [-]
	 SCS Same-Spin Energy      =      -0.1277764948620124 [Eh]
	 SCS Opposite-Spin Energy  =      -1.5058276014800616 [Eh]
	 SCS Correlation Energy    =      -1.6336040963420739 [Eh]
	 SCS Total Energy          =    -384.5352673856085630 [Eh]
	-----------------------------------------------------------

  Dipole Moment: [D]
     X:    -0.0728      Y:     1.4827      Z:     0.1923     Total:     1.4969

*** Psi4 exiting successfully. Buy a developer a beer!
