                               Psi4 1.3.2 release

  ==> Input File <==

--------------------------------------------------------------------------
#psi4
#
memory 32 gb

molecule  {
0 1
  O        3.1501630     0.3869830     0.0122970
  O        1.7226580    -1.3643080    -0.2059640
  C       -2.9045135     0.3087595    -0.4691661
  C       -1.4960630     0.8252950    -0.4074400
  C        0.8585340     0.8235180     0.4136200
  C       -0.5553232     0.2299355     0.3408810
  C       -3.2476580    -0.8824200     0.3361610
  C        1.9107340    -0.1856640     0.0271730
  H       -3.5825680     1.1749950    -0.2170990
  H       -3.1475630     0.1432210    -1.5599470
  H       -1.2553160     1.7190160    -0.9933200
  H        0.9787830     1.7133270    -0.2211670
  H        1.0972480     1.1531100     1.4329360
  H       -0.7130820    -0.6444280     0.9033180
  H       -4.2956480    -1.1625270     0.2123440
  H       -2.6314050    -1.7369230     0.0388270
  H       -3.0739380    -0.6897760     1.4001060
  H        3.7686820    -0.3352680    -0.2293440
units angstrom
no_reorient  #important for SAPT in psi4, default
symmetry c1  #important for SAPT in psi4, default
}

set PROPERTIES_ORIGIN ["COM"]
properties('MP2/aug-cc-pvtz', properties = ['dipole'])
--------------------------------------------------------------------------

    Molecular point group: c1
  Charge       = 0
  Multiplicity = 1
  Basis Set: AUG-CC-PVTZ
    Blend: AUG-CC-PVTZ
  Basis Set: (AUG-CC-PVTZ AUX)
    Blend: AUG-CC-PVTZ-JKFIT

    Orbital Energies [Eh]
    ---------------------

    Doubly Occupied:

       1A    -20.615001     2A    -20.552012     3A    -11.389478
       4A    -11.254695     5A    -11.236554     6A    -11.231827
       7A    -11.230984     8A    -11.213492     9A     -1.457872
      10A     -1.357406    11A     -1.102867    12A     -1.045578
      13A     -0.964051    14A     -0.867694    15A     -0.802011
      16A     -0.744621    17A     -0.702800    18A     -0.679957
      19A     -0.651625    20A     -0.627675    21A     -0.610017
      22A     -0.603117    23A     -0.581649    24A     -0.550148
      25A     -0.535072    26A     -0.500224    27A     -0.488553
      28A     -0.483996    29A     -0.476580    30A     -0.454399
      31A     -0.352927

  @DF-RHF Final Energy:  -382.89741171329354

   => Energetics <=

    Nuclear Repulsion Energy =            355.3043642438289567
    One-Electron Energy =               -1225.6737812778783336
    Two-Electron Energy =                 487.4720053207557839
    Total Energy =                       -382.8974117132935362
  Basis Set: (AUG-CC-PVTZ AUX)
    Blend: AUG-CC-PVTZ-RI
    Molecular point group: c1

    Geometry (in Angstrom), charge = 0, multiplicity = 1:

       Center              X                  Y                   Z               Mass
    ------------   -----------------  -----------------  -----------------  -----------------
         O            3.152148803816     0.394469323041     0.007302502286    15.994914619570
         O            1.724643803816    -1.356821676959    -0.210958497714    15.994914619570
         C           -2.902527696184     0.316245823041    -0.474160597714    12.000000000000
         C           -1.494077196184     0.832781323041    -0.412434497714    12.000000000000
         C            0.860519803816     0.831004323041     0.408625502286    12.000000000000
         C           -0.553337396184     0.237421823041     0.335886502286    12.000000000000
         C           -3.245672196184    -0.874933676959     0.331166502286    12.000000000000
         C            1.912719803816    -0.178177676959     0.022178502286    12.000000000000
         H           -3.580582196184     1.182481323041    -0.222093497714     1.007825032230
         H           -3.145577196184     0.150707323041    -1.564941497714     1.007825032230
         H           -1.253330196184     1.726502323041    -0.998314497714     1.007825032230
         H            0.980768803816     1.720813323041    -0.226161497714     1.007825032230
         H            1.099233803816     1.160596323041     1.427941502286     1.007825032230
         H           -0.711096196184    -0.636941676959     0.898323502286     1.007825032230
         H           -4.293662196184    -1.155040676959     0.207349502286     1.007825032230
         H           -2.629419196184    -1.729436676959     0.033832502286     1.007825032230
         H           -3.071952196184    -0.682289676959     1.395111502286     1.007825032230
         H            3.770667803816    -0.327781676959    -0.234338497714     1.007825032230

  Basis Set: AUG-CC-PVTZ
    Blend: AUG-CC-PVTZ
  Basis Set: (AUG-CC-PVTZ AUX)
    Blend: AUG-CC-PVTZ-JKFIT
	 Reference Energy          =    -382.8974117132935362 [Eh]
	 Singles Energy            =      -0.0000000000000000 [Eh]
	 Same-Spin Energy          =      -0.3833224362371077 [Eh]
	 Opposite-Spin Energy      =      -1.2547892475094784 [Eh]
	 Correlation Energy        =      -1.6381116837465861 [Eh]
	 Total Energy              =    -384.5355233970400946 [Eh]

	 ================> DF-SCS-MP2 Energies <==================
	-----------------------------------------------------------
	 SCS Same-Spin Scale       =       0.3333333333333333 [-]
	 SCS Opposite-Spin Scale   =       1.2000000000000000 [-]
	 SCS Same-Spin Energy      =      -0.1277741454123692 [Eh]
	 SCS Opposite-Spin Energy  =      -1.5057470970113740 [Eh]
	 SCS Correlation Energy    =      -1.6335212424237433 [Eh]
	 SCS Total Energy          =    -384.5309329557172759 [Eh]
	-----------------------------------------------------------

  Dipole Moment: [D]
     X:    -0.2199      Y:     1.3791      Z:     0.2108     Total:     1.4124

*** Psi4 exiting successfully. Buy a developer a beer!
