                               Psi4 1.3.2 release

  ==> Input File <==

--------------------------------------------------------------------------
#psi4
#
memory 32 gb

molecule  {
0 1
  O        3.1501630     0.3869830     0.0122970
  O        1.7434167    -1.3666922    -0.2096909
  C       -2.9163610     0.3476720    -0.5022120
  C       -1.4960630     0.8252950    -0.4074400
  C        0.8771437     0.8420933     0.4148849
  C       -0.5245990     0.2621860     0.3264500
  C       -3.2476580    -0.8824200     0.3361610
  C        1.9107340    -0.1856640     0.0271730
  H       -3.5825680     1.1749950    -0.2170990
  H       -3.1475630     0.1432210    -1.5599470
  H       -1.2553160     1.7190160    -0.9933200
  H        0.9787830     1.7133270    -0.2211670
  H        1.0972480     1.1531100     1.4329360
  H       -0.7130820    -0.6444280     0.9033180
  H       -4.2956480    -1.1625270     0.2123440
  H       -2.6314050    -1.7369230     0.0388270
  H       -3.0739380    -0.6897760     1.4001060
  H        3.7686820    -0.3352680    -0.2293440
units angstrom
no_reorient  #important for SAPT in psi4, default
symmetry c1  #important for SAPT in psi4, default
}

set PROPERTIES_ORIGIN ["COM"]
properties('MP2/aug-cc-pvtz', properties = ['dipole'])
--------------------------------------------------------------------------

    Molecular point group: c1
  Charge       = 0
  Multiplicity = 1
  Basis Set: AUG-CC-PVTZ
    Blend: AUG-CC-PVTZ
  Basis Set: (AUG-CC-PVTZ AUX)
    Blend: AUG-CC-PVTZ-JKFIT

    Orbital Energies [Eh]
    ---------------------

    Doubly Occupied:

       1A    -20.613414     2A    -20.553367     3A    -11.390649
       4A    -11.254437     5A    -11.235746     6A    -11.233807
       7A    -11.230207     8A    -11.214926     9A     -1.458665
      10A     -1.356667    11A     -1.101640    12A     -1.045489
      13A     -0.961083    14A     -0.869502    15A     -0.805753
      16A     -0.739548    17A     -0.702265    18A     -0.681636
      19A     -0.655442    20A     -0.625197    21A     -0.612242
      22A     -0.598648    23A     -0.582689    24A     -0.554117
      25A     -0.528794    26A     -0.498369    27A     -0.491203
      28A     -0.484708    29A     -0.479402    30A     -0.456516
      31A     -0.354754

  @DF-RHF Final Energy:  -382.90277331904628

   => Energetics <=

    Nuclear Repulsion Energy =            354.6965583251301268
    One-Electron Energy =               -1224.4569045199145876
    Two-Electron Energy =                 486.8575728757381853
    Total Energy =                       -382.9027733190462754
  Basis Set: (AUG-CC-PVTZ AUX)
    Blend: AUG-CC-PVTZ-RI
    Molecular point group: c1

    Geometry (in Angstrom), charge = 0, multiplicity = 1:

       Center              X                  Y                   Z               Mass
    ------------   -----------------  -----------------  -----------------  -----------------
         O            3.145294384620     0.385363142517     0.012686615437    15.994914619570
         O            1.738548084620    -1.368312057483    -0.209301284563    15.994914619570
         C           -2.921229615380     0.346052142517    -0.501822384563    12.000000000000
         C           -1.500931615380     0.823675142517    -0.407050384563    12.000000000000
         C            0.872275084620     0.840473442517     0.415274515437    12.000000000000
         C           -0.529467615380     0.260566142517     0.326839615437    12.000000000000
         C           -3.252526615380    -0.884039857483     0.336550615437    12.000000000000
         C            1.905865384620    -0.187283857483     0.027562615437    12.000000000000
         H           -3.587436615380     1.173375142517    -0.216709384563     1.007825032230
         H           -3.152431615380     0.141601142517    -1.559557384563     1.007825032230
         H           -1.260184615380     1.717396142517    -0.992930384563     1.007825032230
         H            0.973914384620     1.711707142517    -0.220777384563     1.007825032230
         H            1.092379384620     1.151490142517     1.433325615437     1.007825032230
         H           -0.717950615380    -0.646047857483     0.903707615437     1.007825032230
         H           -4.300516615380    -1.164146857483     0.212733615437     1.007825032230
         H           -2.636273615380    -1.738542857483     0.039216615437     1.007825032230
         H           -3.078806615380    -0.691395857483     1.400495615437     1.007825032230
         H            3.763813384620    -0.336887857483    -0.228954384563     1.007825032230

  Basis Set: AUG-CC-PVTZ
    Blend: AUG-CC-PVTZ
  Basis Set: (AUG-CC-PVTZ AUX)
    Blend: AUG-CC-PVTZ-JKFIT
	 Reference Energy          =    -382.9027733190462754 [Eh]
	 Singles Energy            =      -0.0000000000000000 [Eh]
	 Same-Spin Energy          =      -0.3829307846199992 [Eh]
	 Opposite-Spin Energy      =      -1.2543673742529093 [Eh]
	 Correlation Energy        =      -1.6372981588729085 [Eh]
	 Total Energy              =    -384.5400714779191844 [Eh]

	 ================> DF-SCS-MP2 Energies <==================
	-----------------------------------------------------------
	 SCS Same-Spin Scale       =       0.3333333333333333 [-]
	 SCS Opposite-Spin Scale   =       1.2000000000000000 [-]
	 SCS Same-Spin Energy      =      -0.1276435948733331 [Eh]
	 SCS Opposite-Spin Energy  =      -1.5052408491034912 [Eh]
	 SCS Correlation Energy    =      -1.6328844439768242 [Eh]
	 SCS Total Energy          =    -384.5356577630230959 [Eh]
	-----------------------------------------------------------

  Dipole Moment: [D]
     X:    -0.2316      Y:     1.4038      Z:     0.2186     Total:     1.4394

*** Psi4 exiting successfully. Buy a developer a beer!
