                               Psi4 1.3.2 release

  ==> Input File <==

--------------------------------------------------------------------------
#psi4
#
memory 32 gb

molecule  {
0 1
  O        3.1595341     0.3660374     0.0058659
  O        1.7226580    -1.3643080    -0.2059640
  C       -2.9163610     0.3476720    -0.5022120
  C       -1.4960630     0.8252950    -0.4074400
  C        0.8401133     0.8048559     0.4113034
  C       -0.5245990     0.2621860     0.3264500
  C       -3.2476580    -0.8824200     0.3361610
  C        1.9107340    -0.1856640     0.0271730
  H       -3.5825680     1.1749950    -0.2170990
  H       -3.1475630     0.1432210    -1.5599470
  H       -1.2553160     1.7190160    -0.9933200
  H        0.9787830     1.7133270    -0.2211670
  H        1.0972480     1.1531100     1.4329360
  H       -0.7130820    -0.6444280     0.9033180
  H       -4.2956480    -1.1625270     0.2123440
  H       -2.6314050    -1.7369230     0.0388270
  H       -3.0739380    -0.6897760     1.4001060
  H        3.7686820    -0.3352680    -0.2293440
units angstrom
no_reorient  #important for SAPT in psi4, default
symmetry c1  #important for SAPT in psi4, default
}

set PROPERTIES_ORIGIN ["COM"]
properties('MP2/aug-cc-pvtz', properties = ['dipole'])
--------------------------------------------------------------------------

    Molecular point group: c1
  Charge       = 0
  Multiplicity = 1
  Basis Set: AUG-CC-PVTZ
    Blend: AUG-CC-PVTZ
  Basis Set: (AUG-CC-PVTZ AUX)
    Blend: AUG-CC-PVTZ-JKFIT

    Orbital Energies [Eh]
    ---------------------

    Doubly Occupied:

       1A    -20.613110     2A    -20.550716     3A    -11.390265
       4A    -11.256484     5A    -11.236614     6A    -11.231742
       7A    -11.230664     8A    -11.215139     9A     -1.460786
      10A     -1.358135    11A     -1.106096    12A     -1.046863
      13A     -0.960697    14A     -0.872629    15A     -0.810525
      16A     -0.739776    17A     -0.703227    18A     -0.683754
      19A     -0.653402    20A     -0.628304    21A     -0.612618
      22A     -0.599585    23A     -0.581856    24A     -0.553316
      25A     -0.526978    26A     -0.498639    27A     -0.492104
      28A     -0.484467    29A     -0.480369    30A     -0.454770
      31A     -0.354382

  @DF-RHF Final Energy:  -382.90327887527224

   => Energetics <=

    Nuclear Repulsion Energy =            355.3757697004115812
    One-Electron Energy =               -1225.7820781818163596
    Two-Electron Energy =                 487.5030296061324862
    Total Energy =                       -382.9032788752722354
  Basis Set: (AUG-CC-PVTZ AUX)
    Blend: AUG-CC-PVTZ-RI
    Molecular point group: c1

    Geometry (in Angstrom), charge = 0, multiplicity = 1:

       Center              X                  Y                   Z               Mass
    ------------   -----------------  -----------------  -----------------  -----------------
         O            3.160157893120     0.370937655865     0.007011480195    15.994914619570
         O            1.723281793120    -1.359407744135    -0.204818419805    15.994914619570
         C           -2.915737206880     0.352572255865    -0.501066419805    12.000000000000
         C           -1.495439206880     0.830195255865    -0.406294419805    12.000000000000
         C            0.840737093120     0.809756155865     0.412448980195    12.000000000000
         C           -0.523975206880     0.267086255865     0.327595580195    12.000000000000
         C           -3.247034206880    -0.877519744135     0.337306580195    12.000000000000
         C            1.911357793120    -0.180763744135     0.028318580195    12.000000000000
         H           -3.581944206880     1.179895255865    -0.215953419805     1.007825032230
         H           -3.146939206880     0.148121255865    -1.558801419805     1.007825032230
         H           -1.254692206880     1.723916255865    -0.992174419805     1.007825032230
         H            0.979406793120     1.718227255865    -0.220021419805     1.007825032230
         H            1.097871793120     1.158010255865     1.434081580195     1.007825032230
         H           -0.712458206880    -0.639527744135     0.904463580195     1.007825032230
         H           -4.295024206880    -1.157626744135     0.213489580195     1.007825032230
         H           -2.630781206880    -1.732022744135     0.039972580195     1.007825032230
         H           -3.073314206880    -0.684875744135     1.401251580195     1.007825032230
         H            3.769305793120    -0.330367744135    -0.228198419805     1.007825032230

  Basis Set: AUG-CC-PVTZ
    Blend: AUG-CC-PVTZ
  Basis Set: (AUG-CC-PVTZ AUX)
    Blend: AUG-CC-PVTZ-JKFIT
	 Reference Energy          =    -382.9032788752722354 [Eh]
	 Singles Energy            =      -0.0000000000000000 [Eh]
	 Same-Spin Energy          =      -0.3829158904164055 [Eh]
	 Opposite-Spin Energy      =      -1.2537620183471034 [Eh]
	 Correlation Energy        =      -1.6366779087635090 [Eh]
	 Total Energy              =    -384.5399567840357236 [Eh]

	 ================> DF-SCS-MP2 Energies <==================
	-----------------------------------------------------------
	 SCS Same-Spin Scale       =       0.3333333333333333 [-]
	 SCS Opposite-Spin Scale   =       1.2000000000000000 [-]
	 SCS Same-Spin Energy      =      -0.1276386301388018 [Eh]
	 SCS Opposite-Spin Energy  =      -1.5045144220165241 [Eh]
	 SCS Correlation Energy    =      -1.6321530521553260 [Eh]
	 SCS Total Energy          =    -384.5354319274275667 [Eh]
	-----------------------------------------------------------

  Dipole Moment: [D]
     X:    -0.2433      Y:     1.4258      Z:     0.2144     Total:     1.4622

*** Psi4 exiting successfully. Buy a developer a beer!
