                               Psi4 1.4a3.dev225

  ==> Input File <==

--------------------------------------------------------------------------
#psi4
#
memory 32 gb

molecule  {
0 1
  O       -3.2271830    -0.3786580    -0.1569640
  O       -1.8275510     1.3993140    -0.2614160
  C        2.8225670    -0.4310850    -0.3953020
  C        1.4009980    -0.8942070    -0.2419560
  C       -0.9807690    -0.7586230     0.4926230
  C        0.4143070    -0.2269140     0.3719860
  C        3.1298050     0.9339520     0.2103920
  C       -1.9934895     0.2283341    -0.0171913
  H        3.4859920    -1.1868430     0.0468460
  H        3.0699840    -0.4203720    -1.4654230
  H        1.1737130    -1.8673930    -0.6818980
  H       -1.0998220    -1.7054460    -0.0447970
  H       -1.2414610    -0.9681590     1.5400430
  H        0.5929560     0.7502750     0.8121930
  H        4.1791340     1.1958370     0.0500290
  H        2.5131630     1.7137800    -0.2445400
  H        2.9424530     0.9385920     1.2876810
  H       -3.8316340     0.3284440    -0.4642740
units angstrom
no_reorient  #important for SAPT in psi4, default
symmetry c1  #important for SAPT in psi4, default
}

set PROPERTIES_ORIGIN ["COM"]
properties('MP2/aug-cc-pvtz', properties = ['dipole'])
--------------------------------------------------------------------------

    Molecular point group: c1
  Charge       = 0
  Multiplicity = 1
  Basis Set: AUG-CC-PVTZ
    Blend: AUG-CC-PVTZ
  Basis Set: (AUG-CC-PVTZ AUX)
    Blend: AUG-CC-PVTZ-JKFIT

    Orbital Energies [Eh]
    ---------------------

    Doubly Occupied:

       1A    -20.610582     2A    -20.555442     3A    -11.390856
       4A    -11.255184     5A    -11.235810     6A    -11.232578
       7A    -11.230327     8A    -11.214908     9A     -1.455551
      10A     -1.358938    11A     -1.104555    12A     -1.046963
      13A     -0.961410    14A     -0.870192    15A     -0.802505
      16A     -0.741233    17A     -0.701678    18A     -0.681724
      19A     -0.654934    20A     -0.623921    21A     -0.613211
      22A     -0.600679    23A     -0.583415    24A     -0.553320
      25A     -0.529121    26A     -0.499254    27A     -0.493026
      28A     -0.486725    29A     -0.481061    30A     -0.457162
      31A     -0.355266

  @DF-RHF Final Energy:  -382.90353668584680

   => Energetics <=

    Nuclear Repulsion Energy =            355.0676332412361944
    One-Electron Energy =               -1225.1792827733318063
    Two-Electron Energy =                 487.2081128462488095
    Total Energy =                       -382.9035366858468024
  Basis Set: (AUG-CC-PVTZ AUX)
    Blend: AUG-CC-PVTZ-RI
    Molecular point group: c1

    Geometry (in Angstrom), charge = 0, multiplicity = 1:

       Center              X                  Y                   Z               Mass
    ------------   -----------------  -----------------  -----------------  -----------------
         O           -3.126783967435    -0.390159457608    -0.149924946216    15.994914619570
         O           -1.727151967435     1.387812542392    -0.254376946216    15.994914619570
         C            2.922966032565    -0.442586457608    -0.388262946216    12.000000000000
         C            1.501397032565    -0.905708457608    -0.234916946216    12.000000000000
         C           -0.880369967435    -0.770124457608     0.499662053784    12.000000000000
         C            0.514706032565    -0.238415457608     0.379025053784    12.000000000000
         C            3.230204032565     0.922450542392     0.217431053784    12.000000000000
         C           -1.893090467435     0.216832642392    -0.010152246216    12.000000000000
         H            3.586391032565    -1.198344457608     0.053885053784     1.007825032230
         H            3.170383032565    -0.431873457608    -1.458383946216     1.007825032230
         H            1.274112032565    -1.878894457608    -0.674858946216     1.007825032230
         H           -0.999422967435    -1.716947457608    -0.037757946216     1.007825032230
         H           -1.141061967435    -0.979660457608     1.547082053784     1.007825032230
         H            0.693355032565     0.738773542392     0.819232053784     1.007825032230
         H            4.279533032565     1.184335542392     0.057068053784     1.007825032230
         H            2.613562032565     1.702278542392    -0.237500946216     1.007825032230
         H            3.042852032565     0.927090542392     1.294720053784     1.007825032230
         H           -3.731234967435     0.316942542392    -0.457234946216     1.007825032230

  Basis Set: AUG-CC-PVTZ
    Blend: AUG-CC-PVTZ
  Basis Set: (AUG-CC-PVTZ AUX)
    Blend: AUG-CC-PVTZ-JKFIT
	 Reference Energy          =    -382.9035366858468024 [Eh]
	 Singles Energy            =      -0.0000000000000000 [Eh]
	 Same-Spin Energy          =      -0.3829749106969089 [Eh]
	 Opposite-Spin Energy      =      -1.2542697733582391 [Eh]
	 Correlation Energy        =      -1.6372446840551480 [Eh]
	 Total Energy              =    -384.5407813699019357 [Eh]

	 ================> DF-SCS-MP2 Energies <==================
	-----------------------------------------------------------
	 SCS Same-Spin Scale       =       0.3333333333333333 [-]
	 SCS Opposite-Spin Scale   =       1.2000000000000000 [-]
	 SCS Same-Spin Energy      =      -0.1276583035656363 [Eh]
	 SCS Opposite-Spin Energy  =      -1.5051237280298868 [Eh]
	 SCS Correlation Energy    =      -1.6327820315955230 [Eh]
	 SCS Total Energy          =    -384.5363187174423274 [Eh]
	-----------------------------------------------------------

  Dipole Moment: [D]
     X:     0.3256      Y:    -1.3401      Z:     0.2559     Total:     1.4026

*** Psi4 exiting successfully. Buy a developer a beer!
