                               Psi4 1.3.2 release

  ==> Input File <==

--------------------------------------------------------------------------
#psi4
#
memory 32 gb

molecule  {
0 1
  O        3.1501630     0.3869830     0.0122970
  O        1.7226580    -1.3643080    -0.2059640
  C       -2.9163610     0.3476720    -0.5022120
  C       -1.4960630     0.8252950    -0.4074400
  C        0.8585340     0.8235180     0.4136200
  C       -0.5097217     0.2786713     0.3190323
  C       -3.2476580    -0.8824200     0.3361610
  C        1.9107340    -0.1856640     0.0271730
  H       -3.5825680     1.1749950    -0.2170990
  H       -3.1475630     0.1432210    -1.5599470
  H       -1.2373365     1.7181956    -0.9868716
  H        0.9787830     1.7133270    -0.2211670
  H        1.0972480     1.1531100     1.4329360
  H       -0.7130820    -0.6444280     0.9033180
  H       -4.2956480    -1.1625270     0.2123440
  H       -2.6314050    -1.7369230     0.0388270
  H       -3.0739380    -0.6897760     1.4001060
  H        3.7686820    -0.3352680    -0.2293440
units angstrom
no_reorient  #important for SAPT in psi4, default
symmetry c1  #important for SAPT in psi4, default
}

set PROPERTIES_ORIGIN ["COM"]
properties('MP2/aug-cc-pvtz', properties = ['dipole'])
--------------------------------------------------------------------------

    Molecular point group: c1
  Charge       = 0
  Multiplicity = 1
  Basis Set: AUG-CC-PVTZ
    Blend: AUG-CC-PVTZ
  Basis Set: (AUG-CC-PVTZ AUX)
    Blend: AUG-CC-PVTZ-JKFIT

    Orbital Energies [Eh]
    ---------------------

    Doubly Occupied:

       1A    -20.616052     2A    -20.553117     3A    -11.390944
       4A    -11.253830     5A    -11.235335     6A    -11.232434
       7A    -11.231064     8A    -11.215017     9A     -1.458948
      10A     -1.358439    11A     -1.104875    12A     -1.047236
      13A     -0.960589    14A     -0.870107    15A     -0.807307
      16A     -0.736500    17A     -0.702885    18A     -0.683421
      19A     -0.655456    20A     -0.627094    21A     -0.612401
      22A     -0.597545    23A     -0.582587    24A     -0.555111
      25A     -0.525859    26A     -0.498458    27A     -0.492544
      28A     -0.484081    29A     -0.479851    30A     -0.456372
      31A     -0.353592

  @DF-RHF Final Energy:  -382.90203701682270

   => Energetics <=

    Nuclear Repulsion Energy =            355.2196801689107133
    One-Electron Energy =               -1225.4853331531439835
    Two-Electron Energy =                 487.3636159674105670
    Total Energy =                       -382.9020370168227032
  Basis Set: (AUG-CC-PVTZ AUX)
    Blend: AUG-CC-PVTZ-RI
    Molecular point group: c1

    Geometry (in Angstrom), charge = 0, multiplicity = 1:

       Center              X                  Y                   Z               Mass
    ------------   -----------------  -----------------  -----------------  -----------------
         O            3.148439017592     0.385255941135     0.013020458997    15.994914619570
         O            1.720934017592    -1.366035058865    -0.205240541003    15.994914619570
         C           -2.918084982408     0.345944941135    -0.501488541003    12.000000000000
         C           -1.497786982408     0.823567941135    -0.406716541003    12.000000000000
         C            0.856810017592     0.821790941135     0.414343458997    12.000000000000
         C           -0.511445682408     0.276944241135     0.319755758997    12.000000000000
         C           -3.249381982408    -0.884147058865     0.336884458997    12.000000000000
         C            1.909010017592    -0.187391058865     0.027896458997    12.000000000000
         H           -3.584291982408     1.173267941135    -0.216375541003     1.007825032230
         H           -3.149286982408     0.141493941135    -1.559223541003     1.007825032230
         H           -1.239060482408     1.716468541135    -0.986148141003     1.007825032230
         H            0.977059017592     1.711599941135    -0.220443541003     1.007825032230
         H            1.095524017592     1.151382941135     1.433659458997     1.007825032230
         H           -0.714805982408    -0.646155058865     0.904041458997     1.007825032230
         H           -4.297371982408    -1.164254058865     0.213067458997     1.007825032230
         H           -2.633128982408    -1.738650058865     0.039550458997     1.007825032230
         H           -3.075661982408    -0.691503058865     1.400829458997     1.007825032230
         H            3.766958017592    -0.336995058865    -0.228620541003     1.007825032230

  Basis Set: AUG-CC-PVTZ
    Blend: AUG-CC-PVTZ
  Basis Set: (AUG-CC-PVTZ AUX)
    Blend: AUG-CC-PVTZ-JKFIT
	 Reference Energy          =    -382.9020370168227032 [Eh]
	 Singles Energy            =      -0.0000000000000000 [Eh]
	 Same-Spin Energy          =      -0.3833551388855216 [Eh]
	 Opposite-Spin Energy      =      -1.2547785883157581 [Eh]
	 Correlation Energy        =      -1.6381337272012797 [Eh]
	 Total Energy              =    -384.5401707440240102 [Eh]

	 ================> DF-SCS-MP2 Energies <==================
	-----------------------------------------------------------
	 SCS Same-Spin Scale       =       0.3333333333333333 [-]
	 SCS Opposite-Spin Scale   =       1.2000000000000000 [-]
	 SCS Same-Spin Energy      =      -0.1277850462951738 [Eh]
	 SCS Opposite-Spin Energy  =      -1.5057343059789097 [Eh]
	 SCS Correlation Energy    =      -1.6335193522740834 [Eh]
	 SCS Total Energy          =    -384.5355563690968097 [Eh]
	-----------------------------------------------------------

  Dipole Moment: [D]
     X:    -0.1677      Y:     1.3842      Z:     0.2110     Total:     1.4102

*** Psi4 exiting successfully. Buy a developer a beer!
