                               Psi4 1.4a3.dev225

  ==> Input File <==

--------------------------------------------------------------------------
#psi4
#
memory 32 gb

molecule  {
0 1
  O       -3.2271830    -0.3786580    -0.1569640
  O       -1.8275510     1.3993140    -0.2614160
  C        2.8225670    -0.4310850    -0.3953020
  C        1.4009980    -0.8942070    -0.2419560
  C       -0.9807690    -0.7586230     0.4926230
  C        0.4143070    -0.2269140     0.3719860
  C        3.1298050     0.9339520     0.2103920
  C       -2.0113430     0.2195500    -0.0192140
  H        3.4859920    -1.1868430     0.0468460
  H        3.0699840    -0.4203720    -1.4654230
  H        1.1737130    -1.8673930    -0.6818980
  H       -1.0998220    -1.7054460    -0.0447970
  H       -1.2414610    -0.9681590     1.5400430
  H        0.5929560     0.7502750     0.8121930
  H        4.1791340     1.1958370     0.0500290
  H        2.5131630     1.7137800    -0.2445400
  H        2.9424530     0.9385920     1.2876810
  H       -3.8439736     0.3428792    -0.4705476
units angstrom
no_reorient  #important for SAPT in psi4, default
symmetry c1  #important for SAPT in psi4, default
}

set PROPERTIES_ORIGIN ["COM"]
properties('MP2/aug-cc-pvtz', properties = ['dipole'])
--------------------------------------------------------------------------

    Molecular point group: c1
  Charge       = 0
  Multiplicity = 1
  Basis Set: AUG-CC-PVTZ
    Blend: AUG-CC-PVTZ
  Basis Set: (AUG-CC-PVTZ AUX)
    Blend: AUG-CC-PVTZ-JKFIT

    Orbital Energies [Eh]
    ---------------------

    Doubly Occupied:

       1A    -20.617635     2A    -20.551855     3A    -11.390822
       4A    -11.254659     5A    -11.235058     6A    -11.231900
       7A    -11.229776     8A    -11.214349     9A     -1.457229
      10A     -1.355391    11A     -1.103108    12A     -1.045264
      13A     -0.960266    14A     -0.869858    15A     -0.804665
      16A     -0.740059    17A     -0.701110    18A     -0.681793
      19A     -0.655362    20A     -0.624107    21A     -0.612658
      22A     -0.600022    23A     -0.580206    24A     -0.553645
      25A     -0.528490    26A     -0.498674    27A     -0.492334
      28A     -0.484052    29A     -0.479190    30A     -0.455378
      31A     -0.354443

  @DF-RHF Final Energy:  -382.90222189382155

   => Energetics <=

    Nuclear Repulsion Energy =            354.8738584941578438
    One-Electron Energy =               -1224.8254452195199065
    Two-Electron Energy =                 487.0493648315405153
    Total Energy =                       -382.9022218938215474
  Basis Set: (AUG-CC-PVTZ AUX)
    Blend: AUG-CC-PVTZ-RI
    Molecular point group: c1

    Geometry (in Angstrom), charge = 0, multiplicity = 1:

       Center              X                  Y                   Z               Mass
    ------------   -----------------  -----------------  -----------------  -----------------
         O           -3.124796749288    -0.389362906597    -0.149656728400    15.994914619570
         O           -1.725164749288     1.388609093403    -0.254108728400    15.994914619570
         C            2.924953250712    -0.441789906597    -0.387994728400    12.000000000000
         C            1.503384250712    -0.904911906597    -0.234648728400    12.000000000000
         C           -0.878382749288    -0.769327906597     0.499930271600    12.000000000000
         C            0.516693250712    -0.237618906597     0.379293271600    12.000000000000
         C            3.232191250712     0.923247093403     0.217699271600    12.000000000000
         C           -1.908956749288     0.208845093403    -0.011906728400    12.000000000000
         H            3.588378250712    -1.197547906597     0.054153271600     1.007825032230
         H            3.172370250712    -0.431076906597    -1.458115728400     1.007825032230
         H            1.276099250712    -1.878097906597    -0.674590728400     1.007825032230
         H           -0.997435749288    -1.716150906597    -0.037489728400     1.007825032230
         H           -1.139074749288    -0.978863906597     1.547350271600     1.007825032230
         H            0.695342250712     0.739570093403     0.819500271600     1.007825032230
         H            4.281520250712     1.185132093403     0.057336271600     1.007825032230
         H            2.615549250712     1.703075093403    -0.237232728400     1.007825032230
         H            3.044839250712     0.927887093403     1.294988271600     1.007825032230
         H           -3.741587349288     0.332174293403    -0.463240328400     1.007825032230

  Basis Set: AUG-CC-PVTZ
    Blend: AUG-CC-PVTZ
  Basis Set: (AUG-CC-PVTZ AUX)
    Blend: AUG-CC-PVTZ-JKFIT
	 Reference Energy          =    -382.9022218938215474 [Eh]
	 Singles Energy            =      -0.0000000000000000 [Eh]
	 Same-Spin Energy          =      -0.3832703761369217 [Eh]
	 Opposite-Spin Energy      =      -1.2548337618138679 [Eh]
	 Correlation Energy        =      -1.6381041379507897 [Eh]
	 Total Energy              =    -384.5403260317723380 [Eh]

	 ================> DF-SCS-MP2 Energies <==================
	-----------------------------------------------------------
	 SCS Same-Spin Scale       =       0.3333333333333333 [-]
	 SCS Opposite-Spin Scale   =       1.2000000000000000 [-]
	 SCS Same-Spin Energy      =      -0.1277567920456406 [Eh]
	 SCS Opposite-Spin Energy  =      -1.5058005141766413 [Eh]
	 SCS Correlation Energy    =      -1.6335573062222819 [Eh]
	 SCS Total Energy          =    -384.5357792000438053 [Eh]
	-----------------------------------------------------------

  Dipole Moment: [D]
     X:     0.1463      Y:    -1.4043      Z:     0.2327     Total:     1.4309

*** Psi4 exiting successfully. Buy a developer a beer!
