                               Psi4 1.3.2 release

  ==> Input File <==

--------------------------------------------------------------------------
#psi4
#
memory 32 gb

molecule  {
0 1
  O        3.1453357     0.3973908     0.0155144
  O        1.7226580    -1.3643080    -0.2059640
  C       -2.9163610     0.3476720    -0.5022120
  C       -1.4960630     0.8252950    -0.4074400
  C        0.8678649     0.8327341     0.4147342
  C       -0.5245990     0.2621860     0.3264500
  C       -3.2476580    -0.8824200     0.3361610
  C        1.9107340    -0.1856640     0.0271730
  H       -3.5825680     1.1749950    -0.2170990
  H       -3.1475630     0.1432210    -1.5599470
  H       -1.2553160     1.7190160    -0.9933200
  H        0.9787830     1.7133270    -0.2211670
  H        1.0972480     1.1531100     1.4329360
  H       -0.7130820    -0.6444280     0.9033180
  H       -4.2956480    -1.1625270     0.2123440
  H       -2.6314050    -1.7369230     0.0388270
  H       -3.0739380    -0.6897760     1.4001060
  H        3.7686820    -0.3352680    -0.2293440
units angstrom
no_reorient  #important for SAPT in psi4, default
symmetry c1  #important for SAPT in psi4, default
}

set PROPERTIES_ORIGIN ["COM"]
properties('MP2/aug-cc-pvtz', properties = ['dipole'])
--------------------------------------------------------------------------

    Molecular point group: c1
  Charge       = 0
  Multiplicity = 1
  Basis Set: AUG-CC-PVTZ
    Blend: AUG-CC-PVTZ
  Basis Set: (AUG-CC-PVTZ AUX)
    Blend: AUG-CC-PVTZ-JKFIT

    Orbital Energies [Eh]
    ---------------------

    Doubly Occupied:

       1A    -20.617023     2A    -20.553852     3A    -11.390687
       4A    -11.253236     5A    -11.235043     6A    -11.232541
       7A    -11.229805     8A    -11.214581     9A     -1.457670
      10A     -1.358206    11A     -1.101735    12A     -1.044836
      13A     -0.960009    14A     -0.869169    15A     -0.803777
      16A     -0.738840    17A     -0.702798    18A     -0.681754
      19A     -0.654841    20A     -0.625164    21A     -0.611898
      22A     -0.598889    23A     -0.582341    24A     -0.552660
      25A     -0.527969    26A     -0.497998    27A     -0.490922
      28A     -0.485394    29A     -0.479773    30A     -0.456229
      31A     -0.353867

  @DF-RHF Final Energy:  -382.90194180652674

   => Energetics <=

    Nuclear Repulsion Energy =            354.9288245069903383
    One-Electron Energy =               -1224.9345216649010126
    Two-Electron Energy =                 487.1037553513838816
    Total Energy =                       -382.9019418065267359
  Basis Set: (AUG-CC-PVTZ AUX)
    Blend: AUG-CC-PVTZ-RI
    Molecular point group: c1

    Geometry (in Angstrom), charge = 0, multiplicity = 1:

       Center              X                  Y                   Z               Mass
    ------------   -----------------  -----------------  -----------------  -----------------
         O            3.145030951107     0.394961806883     0.014946121818    15.994914619570
         O            1.722353251107    -1.366736993117    -0.206532278182    15.994914619570
         C           -2.916665748893     0.345243006883    -0.502780278182    12.000000000000
         C           -1.496367748893     0.822866006883    -0.408008278182    12.000000000000
         C            0.867560151107     0.830305106883     0.414165921818    12.000000000000
         C           -0.524903748893     0.259757006883     0.325881721818    12.000000000000
         C           -3.247962748893    -0.884848993117     0.335592721818    12.000000000000
         C            1.910429251107    -0.188092993117     0.026604721818    12.000000000000
         H           -3.582872748893     1.172566006883    -0.217667278182     1.007825032230
         H           -3.147867748893     0.140792006883    -1.560515278182     1.007825032230
         H           -1.255620748893     1.716587006883    -0.993888278182     1.007825032230
         H            0.978478251107     1.710898006883    -0.221735278182     1.007825032230
         H            1.096943251107     1.150681006883     1.432367721818     1.007825032230
         H           -0.713386748893    -0.646856993117     0.902749721818     1.007825032230
         H           -4.295952748893    -1.164955993117     0.211775721818     1.007825032230
         H           -2.631709748893    -1.739351993117     0.038258721818     1.007825032230
         H           -3.074242748893    -0.692204993117     1.399537721818     1.007825032230
         H            3.768377251107    -0.337696993117    -0.229912278182     1.007825032230

  Basis Set: AUG-CC-PVTZ
    Blend: AUG-CC-PVTZ
  Basis Set: (AUG-CC-PVTZ AUX)
    Blend: AUG-CC-PVTZ-JKFIT
	 Reference Energy          =    -382.9019418065267359 [Eh]
	 Singles Energy            =      -0.0000000000000000 [Eh]
	 Same-Spin Energy          =      -0.3832755064134621 [Eh]
	 Opposite-Spin Energy      =      -1.2549733646272105 [Eh]
	 Correlation Energy        =      -1.6382488710406726 [Eh]
	 Total Energy              =    -384.5401906775674092 [Eh]

	 ================> DF-SCS-MP2 Energies <==================
	-----------------------------------------------------------
	 SCS Same-Spin Scale       =       0.3333333333333333 [-]
	 SCS Opposite-Spin Scale   =       1.2000000000000000 [-]
	 SCS Same-Spin Energy      =      -0.1277585021378207 [Eh]
	 SCS Opposite-Spin Energy  =      -1.5059680375526525 [Eh]
	 SCS Correlation Energy    =      -1.6337265396904732 [Eh]
	 SCS Total Energy          =    -384.5356683462172214 [Eh]
	-----------------------------------------------------------

  Dipole Moment: [D]
     X:    -0.1462      Y:     1.3738      Z:     0.2029     Total:     1.3963

*** Psi4 exiting successfully. Buy a developer a beer!
