                               Psi4 1.4a3.dev225

  ==> Input File <==

--------------------------------------------------------------------------
#psi4
#
memory 32 gb

molecule  {
0 1
  O       -3.2271830    -0.3786580    -0.1569640
  O       -1.8275510     1.3993140    -0.2614160
  C        2.8225670    -0.4310850    -0.3953020
  C        1.4009980    -0.8942070    -0.2419560
  C       -0.9807690    -0.7586230     0.4926230
  C        0.4143070    -0.2269140     0.3719860
  C        3.1298050     0.9339520     0.2103920
  C       -2.0113430     0.2195500    -0.0192140
  H        3.4859920    -1.1868430     0.0468460
  H        3.0699840    -0.4203720    -1.4654230
  H        1.1737130    -1.8673930    -0.6818980
  H       -1.0998220    -1.7054460    -0.0447970
  H       -1.2414610    -0.9681590     1.5400430
  H        0.5929560     0.7502750     0.8121930
  H        4.1791340     1.1958370     0.0500290
  H        2.5131630     1.7137800    -0.2445400
  H        2.9424530     0.9385920     1.2876810
  H       -3.8624831     0.3645320    -0.4799580
units angstrom
no_reorient  #important for SAPT in psi4, default
symmetry c1  #important for SAPT in psi4, default
}

set PROPERTIES_ORIGIN ["COM"]
properties('MP2/aug-cc-pvtz', properties = ['dipole'])
--------------------------------------------------------------------------

    Molecular point group: c1
  Charge       = 0
  Multiplicity = 1
  Basis Set: AUG-CC-PVTZ
    Blend: AUG-CC-PVTZ
  Basis Set: (AUG-CC-PVTZ AUX)
    Blend: AUG-CC-PVTZ-JKFIT

    Orbital Energies [Eh]
    ---------------------

    Doubly Occupied:

       1A    -20.619290     2A    -20.551290     3A    -11.390263
       4A    -11.254534     5A    -11.234929     6A    -11.231787
       7A    -11.229686     8A    -11.214271     9A     -1.453433
      10A     -1.352559    11A     -1.102871    12A     -1.044813
      13A     -0.959492    14A     -0.868824    15A     -0.800555
      16A     -0.739888    17A     -0.697962    18A     -0.681020
      19A     -0.654755    20A     -0.623412    21A     -0.612541
      22A     -0.599489    23A     -0.578137    24A     -0.553092
      25A     -0.528290    26A     -0.498584    27A     -0.492155
      28A     -0.483585    29A     -0.478752    30A     -0.454867
      31A     -0.354298

  @DF-RHF Final Energy:  -382.89874968851404

   => Energetics <=

    Nuclear Repulsion Energy =            354.7042422820469483
    One-Electron Energy =               -1224.5271346375081976
    Two-Electron Energy =                 486.9241426669472048
    Total Energy =                       -382.8987496885140445
  Basis Set: (AUG-CC-PVTZ AUX)
    Blend: AUG-CC-PVTZ-RI
    Molecular point group: c1

    Geometry (in Angstrom), charge = 0, multiplicity = 1:

       Center              X                  Y                   Z               Mass
    ------------   -----------------  -----------------  -----------------  -----------------
         O           -3.124633212411    -0.389554215453    -0.149573584748    15.994914619570
         O           -1.725001212411     1.388417784547    -0.254025584748    15.994914619570
         C            2.925116787589    -0.441981215453    -0.387911584748    12.000000000000
         C            1.503547787589    -0.905103215453    -0.234565584748    12.000000000000
         C           -0.878219212411    -0.769519215453     0.500013415252    12.000000000000
         C            0.516856787589    -0.237810215453     0.379376415252    12.000000000000
         C            3.232354787589     0.923055784547     0.217782415252    12.000000000000
         C           -1.908793212411     0.208653784547    -0.011823584748    12.000000000000
         H            3.588541787589    -1.197739215453     0.054236415252     1.007825032230
         H            3.172533787589    -0.431268215453    -1.458032584748     1.007825032230
         H            1.276262787589    -1.878289215453    -0.674507584748     1.007825032230
         H           -0.997272212411    -1.716342215453    -0.037406584748     1.007825032230
         H           -1.138911212411    -0.979055215453     1.547433415252     1.007825032230
         H            0.695505787589     0.739378784547     0.819583415252     1.007825032230
         H            4.281683787589     1.184940784547     0.057419415252     1.007825032230
         H            2.615712787589     1.702883784547    -0.237149584748     1.007825032230
         H            3.045002787589     0.927695784547     1.295071415252     1.007825032230
         H           -3.759933312411     0.353635784547    -0.472567584748     1.007825032230

  Basis Set: AUG-CC-PVTZ
    Blend: AUG-CC-PVTZ
  Basis Set: (AUG-CC-PVTZ AUX)
    Blend: AUG-CC-PVTZ-JKFIT
	 Reference Energy          =    -382.8987496885140445 [Eh]
	 Singles Energy            =      -0.0000000000000000 [Eh]
	 Same-Spin Energy          =      -0.3836542169653817 [Eh]
	 Opposite-Spin Energy      =      -1.2557548853558975 [Eh]
	 Correlation Energy        =      -1.6394091023212791 [Eh]
	 Total Energy              =    -384.5381587908353254 [Eh]

	 ================> DF-SCS-MP2 Energies <==================
	-----------------------------------------------------------
	 SCS Same-Spin Scale       =       0.3333333333333333 [-]
	 SCS Opposite-Spin Scale   =       1.2000000000000000 [-]
	 SCS Same-Spin Energy      =      -0.1278847389884606 [Eh]
	 SCS Opposite-Spin Energy  =      -1.5069058624270770 [Eh]
	 SCS Correlation Energy    =      -1.6347906014155376 [Eh]
	 SCS Total Energy          =    -384.5335402899295900 [Eh]
	-----------------------------------------------------------

  Dipole Moment: [D]
     X:     0.1187      Y:    -1.3853      Z:     0.2218     Total:     1.4080

*** Psi4 exiting successfully. Buy a developer a beer!
