                               Psi4 1.3.2 release

  ==> Input File <==

--------------------------------------------------------------------------
#psi4
#
memory 32 gb

molecule  {
0 1
  O        3.1501630     0.3869830     0.0122970
  O        1.7226580    -1.3643080    -0.2059640
  C       -2.9163610     0.3476720    -0.5022120
  C       -1.4960630     0.8252950    -0.4074400
  C        0.8514870     0.8427808     0.3974857
  C       -0.5245990     0.2621860     0.3264500
  C       -3.2476580    -0.8824200     0.3361610
  C        1.9107340    -0.1856640     0.0271730
  H       -3.5825680     1.1749950    -0.2170990
  H       -3.1475630     0.1432210    -1.5599470
  H       -1.2553160     1.7190160    -0.9933200
  H        0.9787830     1.7133270    -0.2211670
  H        1.0972480     1.1531100     1.4329360
  H       -0.7310608    -0.6444804     0.8970471
  H       -4.2956480    -1.1625270     0.2123440
  H       -2.6314050    -1.7369230     0.0388270
  H       -3.0739380    -0.6897760     1.4001060
  H        3.7686820    -0.3352680    -0.2293440
units angstrom
no_reorient  #important for SAPT in psi4, default
symmetry c1  #important for SAPT in psi4, default
}

set PROPERTIES_ORIGIN ["COM"]
properties('MP2/aug-cc-pvtz', properties = ['dipole'])
--------------------------------------------------------------------------

    Molecular point group: c1
  Charge       = 0
  Multiplicity = 1
  Basis Set: AUG-CC-PVTZ
    Blend: AUG-CC-PVTZ
  Basis Set: (AUG-CC-PVTZ AUX)
    Blend: AUG-CC-PVTZ-JKFIT

    Orbital Energies [Eh]
    ---------------------

    Doubly Occupied:

       1A    -20.615648     2A    -20.553015     3A    -11.390855
       4A    -11.254542     5A    -11.234721     6A    -11.232002
       7A    -11.229814     8A    -11.214880     9A     -1.458319
      10A     -1.357987    11A     -1.103128    12A     -1.044649
      13A     -0.959286    14A     -0.869746    15A     -0.805961
      16A     -0.740198    17A     -0.702865    18A     -0.680565
      19A     -0.652860    20A     -0.627645    21A     -0.612095
      22A     -0.599224    23A     -0.579768    24A     -0.552296
      25A     -0.532926    26A     -0.498228    27A     -0.490663
      28A     -0.485577    29A     -0.480379    30A     -0.455018
      31A     -0.353230

  @DF-RHF Final Energy:  -382.90258668722834

   => Energetics <=

    Nuclear Repulsion Energy =            354.9406420452203861
    One-Electron Energy =               -1224.9502768716529317
    Two-Electron Energy =                 487.1070481392042666
    Total Energy =                       -382.9025866872283359
  Basis Set: (AUG-CC-PVTZ AUX)
    Blend: AUG-CC-PVTZ-RI
    Molecular point group: c1

    Geometry (in Angstrom), charge = 0, multiplicity = 1:

       Center              X                  Y                   Z               Mass
    ------------   -----------------  -----------------  -----------------  -----------------
         O            3.151063163418     0.384956961703     0.014049826980    15.994914619570
         O            1.723558163418    -1.366334038297    -0.204211173020    15.994914619570
         C           -2.915460836582     0.345645961703    -0.500459173020    12.000000000000
         C           -1.495162836582     0.823268961703    -0.405687173020    12.000000000000
         C            0.852387163418     0.840754761703     0.399238526980    12.000000000000
         C           -0.523698836582     0.260159961703     0.328202826980    12.000000000000
         C           -3.246757836582    -0.884446038297     0.337913826980    12.000000000000
         C            1.911634163418    -0.187690038297     0.028925826980    12.000000000000
         H           -3.581667836582     1.172968961703    -0.215346173020     1.007825032230
         H           -3.146662836582     0.141194961703    -1.558194173020     1.007825032230
         H           -1.254415836582     1.716989961703    -0.991567173020     1.007825032230
         H            0.979683163418     1.711300961703    -0.219414173020     1.007825032230
         H            1.098148163418     1.151083961703     1.434688826980     1.007825032230
         H           -0.730160636582    -0.646506438297     0.898799926980     1.007825032230
         H           -4.294747836582    -1.164553038297     0.214096826980     1.007825032230
         H           -2.630504836582    -1.738949038297     0.040579826980     1.007825032230
         H           -3.073037836582    -0.691802038297     1.401858826980     1.007825032230
         H            3.769582163418    -0.337294038297    -0.227591173020     1.007825032230

  Basis Set: AUG-CC-PVTZ
    Blend: AUG-CC-PVTZ
  Basis Set: (AUG-CC-PVTZ AUX)
    Blend: AUG-CC-PVTZ-JKFIT
	 Reference Energy          =    -382.9025866872283359 [Eh]
	 Singles Energy            =      -0.0000000000000000 [Eh]
	 Same-Spin Energy          =      -0.3831108622166991 [Eh]
	 Opposite-Spin Energy      =      -1.2544640739725041 [Eh]
	 Correlation Energy        =      -1.6375749361892034 [Eh]
	 Total Energy              =    -384.5401616234175322 [Eh]

	 ================> DF-SCS-MP2 Energies <==================
	-----------------------------------------------------------
	 SCS Same-Spin Scale       =       0.3333333333333333 [-]
	 SCS Opposite-Spin Scale   =       1.2000000000000000 [-]
	 SCS Same-Spin Energy      =      -0.1277036207388997 [Eh]
	 SCS Opposite-Spin Energy  =      -1.5053568887670050 [Eh]
	 SCS Correlation Energy    =      -1.6330605095059048 [Eh]
	 SCS Total Energy          =    -384.5356471967342600 [Eh]
	-----------------------------------------------------------

  Dipole Moment: [D]
     X:    -0.1710      Y:     1.3861      Z:     0.1929     Total:     1.4098

*** Psi4 exiting successfully. Buy a developer a beer!
