                               Psi4 1.3.2 release

  ==> Input File <==

--------------------------------------------------------------------------
#psi4
#
memory 32 gb

molecule  {
0 1
  O        3.1501630     0.3869830     0.0122970
  O        1.7226580    -1.3643080    -0.2059640
  C       -2.9163610     0.3476720    -0.5022120
  C       -1.4960630     0.8252950    -0.4074400
  C        0.8585340     0.8235180     0.4136200
  C       -0.5029745     0.2065043     0.3770461
  C       -3.2476580    -0.8824200     0.3361610
  C        1.9107340    -0.1856640     0.0271730
  H       -3.5825680     1.1749950    -0.2170990
  H       -3.1475630     0.1432210    -1.5599470
  H       -1.2553160     1.7190160    -0.9933200
  H        1.0334349     1.7167544    -0.2033993
  H        1.0972480     1.1531100     1.4329360
  H       -0.7130820    -0.6444280     0.9033180
  H       -4.2956480    -1.1625270     0.2123440
  H       -2.6314050    -1.7369230     0.0388270
  H       -3.0739380    -0.6897760     1.4001060
  H        3.7686820    -0.3352680    -0.2293440
units angstrom
no_reorient  #important for SAPT in psi4, default
symmetry c1  #important for SAPT in psi4, default
}

set PROPERTIES_ORIGIN ["COM"]
properties('MP2/aug-cc-pvtz', properties = ['dipole'])
--------------------------------------------------------------------------

    Molecular point group: c1
  Charge       = 0
  Multiplicity = 1
  Basis Set: AUG-CC-PVTZ
    Blend: AUG-CC-PVTZ
  Basis Set: (AUG-CC-PVTZ AUX)
    Blend: AUG-CC-PVTZ-JKFIT

    Orbital Energies [Eh]
    ---------------------

    Doubly Occupied:

       1A    -20.614802     2A    -20.551825     3A    -11.388687
       4A    -11.254474     5A    -11.245504     6A    -11.236697
       7A    -11.229881     8A    -11.215149     9A     -1.457856
      10A     -1.357418    11A     -1.096949    12A     -1.046010
      13A     -0.952109    14A     -0.873326    15A     -0.801912
      16A     -0.750952    17A     -0.703321    18A     -0.681008
      19A     -0.651754    20A     -0.626883    21A     -0.611849
      22A     -0.597256    23A     -0.581487    24A     -0.546167
      25A     -0.542859    26A     -0.497936    27A     -0.491036
      28A     -0.486736    29A     -0.480755    30A     -0.454225
      31A     -0.339210

  @DF-RHF Final Energy:  -382.89033401767642

   => Energetics <=

    Nuclear Repulsion Energy =            354.6052182123399916
    One-Electron Energy =               -1224.2590397694038984
    Two-Electron Energy =                 486.7634875393874836
    Total Energy =                       -382.8903340176764232
  Basis Set: (AUG-CC-PVTZ AUX)
    Blend: AUG-CC-PVTZ-RI
    Molecular point group: c1

    Geometry (in Angstrom), charge = 0, multiplicity = 1:

       Center              X                  Y                   Z               Mass
    ------------   -----------------  -----------------  -----------------  -----------------
         O            3.147405198462     0.392810403033     0.006817378551    15.994914619570
         O            1.719900198462    -1.358480596967    -0.211443621449    15.994914619570
         C           -2.919118801538     0.353499403033    -0.507691621449    12.000000000000
         C           -1.498820801538     0.831122403033    -0.412919621449    12.000000000000
         C            0.855776198462     0.829345403033     0.408140378551    12.000000000000
         C           -0.505732301538     0.212331703033     0.371566478551    12.000000000000
         C           -3.250415801538    -0.876592596967     0.330681378551    12.000000000000
         C            1.907976198462    -0.179836596967     0.021693378551    12.000000000000
         H           -3.585325801538     1.180822403033    -0.222578621449     1.007825032230
         H           -3.150320801538     0.149048403033    -1.565426621449     1.007825032230
         H           -1.258073801538     1.724843403033    -0.998799621449     1.007825032230
         H            1.030677098462     1.722581803033    -0.208878921449     1.007825032230
         H            1.094490198462     1.158937403033     1.427456378551     1.007825032230
         H           -0.715839801538    -0.638600596967     0.897838378551     1.007825032230
         H           -4.298405801538    -1.156699596967     0.206864378551     1.007825032230
         H           -2.634162801538    -1.731095596967     0.033347378551     1.007825032230
         H           -3.076695801538    -0.683948596967     1.394626378551     1.007825032230
         H            3.765924198462    -0.329440596967    -0.234823621449     1.007825032230

  Basis Set: AUG-CC-PVTZ
    Blend: AUG-CC-PVTZ
  Basis Set: (AUG-CC-PVTZ AUX)
    Blend: AUG-CC-PVTZ-JKFIT
	 Reference Energy          =    -382.8903340176764232 [Eh]
	 Singles Energy            =      -0.0000000000000000 [Eh]
	 Same-Spin Energy          =      -0.3839369832700958 [Eh]
	 Opposite-Spin Energy      =      -1.2565970729399241 [Eh]
	 Correlation Energy        =      -1.6405340562100199 [Eh]
	 Total Energy              =    -384.5308680738864382 [Eh]

	 ================> DF-SCS-MP2 Energies <==================
	-----------------------------------------------------------
	 SCS Same-Spin Scale       =       0.3333333333333333 [-]
	 SCS Opposite-Spin Scale   =       1.2000000000000000 [-]
	 SCS Same-Spin Energy      =      -0.1279789944233653 [Eh]
	 SCS Opposite-Spin Energy  =      -1.5079164875279087 [Eh]
	 SCS Correlation Energy    =      -1.6358954819512741 [Eh]
	 SCS Total Energy          =    -384.5262294996276751 [Eh]
	-----------------------------------------------------------

  Dipole Moment: [D]
     X:    -0.1880      Y:     1.4099      Z:     0.2049     Total:     1.4370

*** Psi4 exiting successfully. Buy a developer a beer!
