                               Psi4 1.4a3.dev225

  ==> Input File <==

--------------------------------------------------------------------------
#psi4
#
memory 32 gb

molecule  {
0 1
  O       -3.2271830    -0.3786580    -0.1569640
  O       -1.8275510     1.3993140    -0.2614160
  C        2.8225670    -0.4310850    -0.3953020
  C        1.3537053    -0.9096141    -0.2368545
  C       -0.9807690    -0.7586230     0.4926230
  C        0.4143070    -0.2269140     0.3719860
  C        3.1298050     0.9339520     0.2103920
  C       -2.0113430     0.2195500    -0.0192140
  H        3.4859920    -1.1868430     0.0468460
  H        3.0699840    -0.4203720    -1.4654230
  H        1.1737130    -1.8673930    -0.6818980
  H       -1.0998220    -1.7054460    -0.0447970
  H       -1.2414610    -0.9681590     1.5400430
  H        0.5929560     0.7502750     0.8121930
  H        4.1791340     1.1958370     0.0500290
  H        2.5131630     1.7137800    -0.2445400
  H        2.9424530     0.9385920     1.2876810
  H       -3.8316340     0.3284440    -0.4642740
units angstrom
no_reorient  #important for SAPT in psi4, default
symmetry c1  #important for SAPT in psi4, default
}

set PROPERTIES_ORIGIN ["COM"]
properties('MP2/aug-cc-pvtz', properties = ['dipole'])
--------------------------------------------------------------------------

    Molecular point group: c1
  Charge       = 0
  Multiplicity = 1
  Basis Set: AUG-CC-PVTZ
    Blend: AUG-CC-PVTZ
  Basis Set: (AUG-CC-PVTZ AUX)
    Blend: AUG-CC-PVTZ-JKFIT

    Orbital Energies [Eh]
    ---------------------

    Doubly Occupied:

       1A    -20.616219     2A    -20.552224     3A    -11.390883
       4A    -11.253604     5A    -11.231553     6A    -11.230964
       7A    -11.228510     8A    -11.213866     9A     -1.459892
      10A     -1.357280    11A     -1.104972    12A     -1.040739
      13A     -0.964724    14A     -0.865637    15A     -0.807503
      16A     -0.744092    17A     -0.703490    18A     -0.682250
      19A     -0.655154    20A     -0.621579    21A     -0.609802
      22A     -0.605399    23A     -0.581919    24A     -0.553975
      25A     -0.528984    26A     -0.496448    27A     -0.494428
      28A     -0.483693    29A     -0.471726    30A     -0.454493
      31A     -0.362974

  @DF-RHF Final Energy:  -382.90264731383576

   => Energetics <=

    Nuclear Repulsion Energy =            355.0838337766700761
    One-Electron Energy =               -1225.2350108375605942
    Two-Electron Energy =                 487.2485297470547607
    Total Energy =                       -382.9026473138357574
  Basis Set: (AUG-CC-PVTZ AUX)
    Blend: AUG-CC-PVTZ-RI
    Molecular point group: c1

    Geometry (in Angstrom), charge = 0, multiplicity = 1:

       Center              X                  Y                   Z               Mass
    ------------   -----------------  -----------------  -----------------  -----------------
         O           -3.119930565476    -0.387614535302    -0.150248837002    15.994914619570
         O           -1.720298565476     1.390357464698    -0.254700837002    15.994914619570
         C            2.929819434524    -0.440041535302    -0.388586837002    12.000000000000
         C            1.460957734524    -0.918570635302    -0.230139337002    12.000000000000
         C           -0.873516565476    -0.767579535302     0.499338162998    12.000000000000
         C            0.521559434524    -0.235870535302     0.378701162998    12.000000000000
         C            3.237057434524     0.924995464698     0.217107162998    12.000000000000
         C           -1.904090565476     0.210593464698    -0.012498837002    12.000000000000
         H            3.593244434524    -1.195799535302     0.053561162998     1.007825032230
         H            3.177236434524    -0.429328535302    -1.458707837002     1.007825032230
         H            1.280965434524    -1.876349535302    -0.675182837002     1.007825032230
         H           -0.992569565476    -1.714402535302    -0.038081837002     1.007825032230
         H           -1.134208565476    -0.977115535302     1.546758162998     1.007825032230
         H            0.700208434524     0.741318464698     0.818908162998     1.007825032230
         H            4.286386434524     1.186880464698     0.056744162998     1.007825032230
         H            2.620415434524     1.704823464698    -0.237824837002     1.007825032230
         H            3.049705434524     0.929635464698     1.294396162998     1.007825032230
         H           -3.724381565476     0.319487464698    -0.457558837002     1.007825032230

  Basis Set: AUG-CC-PVTZ
    Blend: AUG-CC-PVTZ
  Basis Set: (AUG-CC-PVTZ AUX)
    Blend: AUG-CC-PVTZ-JKFIT
	 Reference Energy          =    -382.9026473138357574 [Eh]
	 Singles Energy            =      -0.0000000000000000 [Eh]
	 Same-Spin Energy          =      -0.3824375631193769 [Eh]
	 Opposite-Spin Energy      =      -1.2533285740432734 [Eh]
	 Correlation Energy        =      -1.6357661371626504 [Eh]
	 Total Energy              =    -384.5384134509984051 [Eh]

	 ================> DF-SCS-MP2 Energies <==================
	-----------------------------------------------------------
	 SCS Same-Spin Scale       =       0.3333333333333333 [-]
	 SCS Opposite-Spin Scale   =       1.2000000000000000 [-]
	 SCS Same-Spin Energy      =      -0.1274791877064590 [Eh]
	 SCS Opposite-Spin Energy  =      -1.5039942888519280 [Eh]
	 SCS Correlation Energy    =      -1.6314734765583869 [Eh]
	 SCS Total Energy          =    -384.5341207903941267 [Eh]
	-----------------------------------------------------------

  Dipole Moment: [D]
     X:     0.1250      Y:    -1.4311      Z:     0.2504     Total:     1.4582

*** Psi4 exiting successfully. Buy a developer a beer!
