                               Psi4 1.3.2 release

  ==> Input File <==

--------------------------------------------------------------------------
#psi4
#
memory 32 gb

molecule  {
0 1
  O        3.1501630     0.3869830     0.0122970
  O        1.7226580    -1.3643080    -0.2059640
  C       -2.9163610     0.3476720    -0.5022120
  C       -1.4960630     0.8252950    -0.4074400
  C        0.8585340     0.8235180     0.4136200
  C       -0.4951448     0.2953232     0.3113933
  C       -3.2476580    -0.8824200     0.3361610
  C        1.9107340    -0.1856640     0.0271730
  H       -3.5825680     1.1749950    -0.2170990
  H       -3.1475630     0.1432210    -1.5599470
  H       -1.2194359     1.7171031    -0.9802466
  H        0.9787830     1.7133270    -0.2211670
  H        1.0972480     1.1531100     1.4329360
  H       -0.7130820    -0.6444280     0.9033180
  H       -4.2956480    -1.1625270     0.2123440
  H       -2.6314050    -1.7369230     0.0388270
  H       -3.0739380    -0.6897760     1.4001060
  H        3.7686820    -0.3352680    -0.2293440
units angstrom
no_reorient  #important for SAPT in psi4, default
symmetry c1  #important for SAPT in psi4, default
}

set PROPERTIES_ORIGIN ["COM"]
properties('MP2/aug-cc-pvtz', properties = ['dipole'])
--------------------------------------------------------------------------

    Molecular point group: c1
  Charge       = 0
  Multiplicity = 1
  Basis Set: AUG-CC-PVTZ
    Blend: AUG-CC-PVTZ
  Basis Set: (AUG-CC-PVTZ AUX)
    Blend: AUG-CC-PVTZ-JKFIT

    Orbital Energies [Eh]
    ---------------------

    Doubly Occupied:

       1A    -20.616358     2A    -20.553424     3A    -11.391381
       4A    -11.253379     5A    -11.235291     6A    -11.232677
       7A    -11.232067     8A    -11.215279     9A     -1.459253
      10A     -1.358719    11A     -1.106905    12A     -1.048910
      13A     -0.961015    14A     -0.870110    15A     -0.808748
      16A     -0.734096    17A     -0.702714    18A     -0.684526
      19A     -0.656771    20A     -0.627845    21A     -0.612700
      22A     -0.596547    23A     -0.582992    24A     -0.557976
      25A     -0.523446    26A     -0.498737    27A     -0.494270
      28A     -0.483804    29A     -0.477278    30A     -0.456941
      31A     -0.353194

  @DF-RHF Final Energy:  -382.89952694841264

   => Energetics <=

    Nuclear Repulsion Energy =            355.3695176947397840
    One-Electron Energy =               -1225.7633794846549335
    Two-Electron Energy =                 487.4943348415025071
    Total Energy =                       -382.8995269484126425
  Basis Set: (AUG-CC-PVTZ AUX)
    Blend: AUG-CC-PVTZ-RI
    Molecular point group: c1

    Geometry (in Angstrom), charge = 0, multiplicity = 1:

       Center              X                  Y                   Z               Mass
    ------------   -----------------  -----------------  -----------------  -----------------
         O            3.146747365786     0.383513808262     0.013765550520    15.994914619570
         O            1.719242365786    -1.367777191738    -0.204495449480    15.994914619570
         C           -2.919776634214     0.344202808262    -0.500743449480    12.000000000000
         C           -1.499478634214     0.821825808262    -0.405971449480    12.000000000000
         C            0.855118365786     0.820048808262     0.415088550520    12.000000000000
         C           -0.498560434214     0.291854008262     0.312861850520    12.000000000000
         C           -3.251073634214    -0.885889191738     0.337629550520    12.000000000000
         C            1.907318365786    -0.189133191738     0.028641550520    12.000000000000
         H           -3.585983634214     1.171525808262    -0.215630449480     1.007825032230
         H           -3.150978634214     0.139751808262    -1.558478449480     1.007825032230
         H           -1.222851534214     1.713633908262    -0.978778049480     1.007825032230
         H            0.975367365786     1.709857808262    -0.219698449480     1.007825032230
         H            1.093832365786     1.149640808262     1.434404550520     1.007825032230
         H           -0.716497634214    -0.647897191738     0.904786550520     1.007825032230
         H           -4.299063634214    -1.165996191738     0.213812550520     1.007825032230
         H           -2.634820634214    -1.740392191738     0.040295550520     1.007825032230
         H           -3.077353634214    -0.693245191738     1.401574550520     1.007825032230
         H            3.765266365786    -0.338737191738    -0.227875449480     1.007825032230

  Basis Set: AUG-CC-PVTZ
    Blend: AUG-CC-PVTZ
  Basis Set: (AUG-CC-PVTZ AUX)
    Blend: AUG-CC-PVTZ-JKFIT
	 Reference Energy          =    -382.8995269484126425 [Eh]
	 Singles Energy            =      -0.0000000000000000 [Eh]
	 Same-Spin Energy          =      -0.3836223043438507 [Eh]
	 Opposite-Spin Energy      =      -1.2551340479023096 [Eh]
	 Correlation Energy        =      -1.6387563522461603 [Eh]
	 Total Energy              =    -384.5382833006588044 [Eh]

	 ================> DF-SCS-MP2 Energies <==================
	-----------------------------------------------------------
	 SCS Same-Spin Scale       =       0.3333333333333333 [-]
	 SCS Opposite-Spin Scale   =       1.2000000000000000 [-]
	 SCS Same-Spin Energy      =      -0.1278741014479502 [Eh]
	 SCS Opposite-Spin Energy  =      -1.5061608574827716 [Eh]
	 SCS Correlation Energy    =      -1.6340349589307219 [Eh]
	 SCS Total Energy          =    -384.5335619073433691 [Eh]
	-----------------------------------------------------------

  Dipole Moment: [D]
     X:    -0.1587      Y:     1.3779      Z:     0.2142     Total:     1.4035

*** Psi4 exiting successfully. Buy a developer a beer!
