                               Psi4 1.3.2 release

  ==> Input File <==

--------------------------------------------------------------------------
#psi4
#
memory 32 gb

molecule  {
0 1
  O        3.1501630     0.3869830     0.0122970
  O        1.7226580    -1.3643080    -0.2059640
  C       -2.9163610     0.3476720    -0.5022120
  C       -1.5017007     0.8446604    -0.4241701
  C        0.8585340     0.8235180     0.4136200
  C       -0.5245990     0.2621860     0.3264500
  C       -3.2727228    -0.8814491     0.3272583
  C        1.9107340    -0.1856640     0.0271730
  H       -3.5825680     1.1749950    -0.2170990
  H       -3.1475630     0.1432210    -1.5599470
  H       -1.2553160     1.7190160    -0.9933200
  H        0.9787830     1.7133270    -0.2211670
  H        1.0972480     1.1531100     1.4329360
  H       -0.7130820    -0.6444280     0.9033180
  H       -4.2956480    -1.1625270     0.2123440
  H       -2.6314050    -1.7369230     0.0388270
  H       -3.0739380    -0.6897760     1.4001060
  H        3.7686820    -0.3352680    -0.2293440
units angstrom
no_reorient  #important for SAPT in psi4, default
symmetry c1  #important for SAPT in psi4, default
}

set PROPERTIES_ORIGIN ["COM"]
properties('MP2/aug-cc-pvtz', properties = ['dipole'])
--------------------------------------------------------------------------

    Molecular point group: c1
  Charge       = 0
  Multiplicity = 1
  Basis Set: AUG-CC-PVTZ
    Blend: AUG-CC-PVTZ
  Basis Set: (AUG-CC-PVTZ AUX)
    Blend: AUG-CC-PVTZ-JKFIT

    Orbital Energies [Eh]
    ---------------------

    Doubly Occupied:

       1A    -20.615654     2A    -20.552724     3A    -11.390369
       4A    -11.254104     5A    -11.237399     6A    -11.235418
       7A    -11.229987     8A    -11.215426     9A     -1.458548
      10A     -1.358063    11A     -1.100685    12A     -1.045391
      13A     -0.958799    14A     -0.870492    15A     -0.804735
      16A     -0.742972    17A     -0.703119    18A     -0.682441
      19A     -0.654023    20A     -0.628074    21A     -0.609399
      22A     -0.598985    23A     -0.581896    24A     -0.554138
      25A     -0.530621    26A     -0.493150    27A     -0.491615
      28A     -0.486827    29A     -0.482576    30A     -0.455808
      31A     -0.349048

  @DF-RHF Final Energy:  -382.90031265166709

   => Energetics <=

    Nuclear Repulsion Energy =            354.5752480328320075
    One-Electron Energy =               -1224.2061537105666957
    Two-Electron Energy =                 486.7305930260676519
    Total Energy =                       -382.9003126516670932
  Basis Set: (AUG-CC-PVTZ AUX)
    Blend: AUG-CC-PVTZ-RI
    Molecular point group: c1

    Geometry (in Angstrom), charge = 0, multiplicity = 1:

       Center              X                  Y                   Z               Mass
    ------------   -----------------  -----------------  -----------------  -----------------
         O            3.153392881918     0.384843566175     0.014993667100    15.994914619570
         O            1.725887881918    -1.366447433825    -0.203267332900    15.994914619570
         C           -2.913131118082     0.345532566175    -0.499515332900    12.000000000000
         C           -1.498470818082     0.842520966175    -0.421473432900    12.000000000000
         C            0.861763881918     0.821378566175     0.416316667100    12.000000000000
         C           -0.521369118082     0.260046566175     0.329146667100    12.000000000000
         C           -3.269492918082    -0.883588533825     0.329954967100    12.000000000000
         C            1.913963881918    -0.187803433825     0.029869667100    12.000000000000
         H           -3.579338118082     1.172855566175    -0.214402332900     1.007825032230
         H           -3.144333118082     0.141081566175    -1.557250332900     1.007825032230
         H           -1.252086118082     1.716876566175    -0.990623332900     1.007825032230
         H            0.982012881918     1.711187566175    -0.218470332900     1.007825032230
         H            1.100477881918     1.150970566175     1.435632667100     1.007825032230
         H           -0.709852118082    -0.646567433825     0.906014667100     1.007825032230
         H           -4.292418118082    -1.164666433825     0.215040667100     1.007825032230
         H           -2.628175118082    -1.739062433825     0.041523667100     1.007825032230
         H           -3.070708118082    -0.691915433825     1.402802667100     1.007825032230
         H            3.771911881918    -0.337407433825    -0.226647332900     1.007825032230

  Basis Set: AUG-CC-PVTZ
    Blend: AUG-CC-PVTZ
  Basis Set: (AUG-CC-PVTZ AUX)
    Blend: AUG-CC-PVTZ-JKFIT
	 Reference Energy          =    -382.9003126516670932 [Eh]
	 Singles Energy            =      -0.0000000000000000 [Eh]
	 Same-Spin Energy          =      -0.3833205323138522 [Eh]
	 Opposite-Spin Energy      =      -1.2550527181318070 [Eh]
	 Correlation Energy        =      -1.6383732504456592 [Eh]
	 Total Energy              =    -384.5386859021127748 [Eh]

	 ================> DF-SCS-MP2 Energies <==================
	-----------------------------------------------------------
	 SCS Same-Spin Scale       =       0.3333333333333333 [-]
	 SCS Opposite-Spin Scale   =       1.2000000000000000 [-]
	 SCS Same-Spin Energy      =      -0.1277735107712841 [Eh]
	 SCS Opposite-Spin Energy  =      -1.5060632617581684 [Eh]
	 SCS Correlation Energy    =      -1.6338367725294525 [Eh]
	 SCS Total Energy          =    -384.5341494241965279 [Eh]
	-----------------------------------------------------------

  Dipole Moment: [D]
     X:    -0.1812      Y:     1.3998      Z:     0.1982     Total:     1.4253

*** Psi4 exiting successfully. Buy a developer a beer!
