                               Psi4 1.3.2 release

  ==> Input File <==

--------------------------------------------------------------------------
#psi4
#
memory 32 gb

molecule  {
0 1
  O        3.1548959     0.3765316     0.0090808
  O        1.7226580    -1.3643080    -0.2059640
  C       -2.9163610     0.3476720    -0.5022120
  C       -1.4960630     0.8252950    -0.4074400
  C        0.8492833     0.8142250     0.4124764
  C       -0.5245990     0.2621860     0.3264500
  C       -3.2476580    -0.8824200     0.3361610
  C        1.9107340    -0.1856640     0.0271730
  H       -3.5825680     1.1749950    -0.2170990
  H       -3.1475630     0.1432210    -1.5599470
  H       -1.2553160     1.7190160    -0.9933200
  H        0.9787830     1.7133270    -0.2211670
  H        1.0972480     1.1531100     1.4329360
  H       -0.7130820    -0.6444280     0.9033180
  H       -4.2956480    -1.1625270     0.2123440
  H       -2.6314050    -1.7369230     0.0388270
  H       -3.0739380    -0.6897760     1.4001060
  H        3.7686820    -0.3352680    -0.2293440
units angstrom
no_reorient  #important for SAPT in psi4, default
symmetry c1  #important for SAPT in psi4, default
}

set PROPERTIES_ORIGIN ["COM"]
properties('MP2/aug-cc-pvtz', properties = ['dipole'])
--------------------------------------------------------------------------

    Molecular point group: c1
  Charge       = 0
  Multiplicity = 1
  Basis Set: AUG-CC-PVTZ
    Blend: AUG-CC-PVTZ
  Basis Set: (AUG-CC-PVTZ AUX)
    Blend: AUG-CC-PVTZ-JKFIT

    Orbital Energies [Eh]
    ---------------------

    Doubly Occupied:

       1A    -20.614441     2A    -20.551757     3A    -11.390371
       4A    -11.255351     5A    -11.236054     6A    -11.232052
       7A    -11.230374     8A    -11.214950     9A     -1.459677
      10A     -1.358126    11A     -1.104586    12A     -1.046182
      13A     -0.960458    14A     -0.871395    15A     -0.808205
      16A     -0.739434    17A     -0.703100    18A     -0.683038
      19A     -0.653781    20A     -0.627283    21A     -0.612374
      22A     -0.599267    23A     -0.582114    24A     -0.552851
      25A     -0.527651    26A     -0.498421    27A     -0.491714
      28A     -0.484542    29A     -0.480527    30A     -0.455308
      31A     -0.354230

  @DF-RHF Final Energy:  -382.90357351467435

   => Energetics <=

    Nuclear Repulsion Energy =            355.2221525702587428
    One-Electron Energy =               -1225.4922317315370037
    Two-Electron Energy =                 487.3665056466039687
    Total Energy =                       -382.9035735146743491
  Basis Set: (AUG-CC-PVTZ AUX)
    Blend: AUG-CC-PVTZ-RI
    Molecular point group: c1

    Geometry (in Angstrom), charge = 0, multiplicity = 1:

       Center              X                  Y                   Z               Mass
    ------------   -----------------  -----------------  -----------------  -----------------
         O            3.155205386198     0.378974700156     0.009652178794    15.994914619570
         O            1.722967486198    -1.361864899844    -0.205392621206    15.994914619570
         C           -2.916051513802     0.350115100156    -0.501640621206    12.000000000000
         C           -1.495753513802     0.827738100156    -0.406868621206    12.000000000000
         C            0.849592786198     0.816668100156     0.413047778794    12.000000000000
         C           -0.524289513802     0.264629100156     0.327021378794    12.000000000000
         C           -3.247348513802    -0.879976899844     0.336732378794    12.000000000000
         C            1.911043486198    -0.183220899844     0.027744378794    12.000000000000
         H           -3.582258513802     1.177438100156    -0.216527621206     1.007825032230
         H           -3.147253513802     0.145664100156    -1.559375621206     1.007825032230
         H           -1.255006513802     1.721459100156    -0.992748621206     1.007825032230
         H            0.979092486198     1.715770100156    -0.220595621206     1.007825032230
         H            1.097557486198     1.155553100156     1.433507378794     1.007825032230
         H           -0.712772513802    -0.641984899844     0.903889378794     1.007825032230
         H           -4.295338513802    -1.160083899844     0.212915378794     1.007825032230
         H           -2.631095513802    -1.734479899844     0.039398378794     1.007825032230
         H           -3.073628513802    -0.687332899844     1.400677378794     1.007825032230
         H            3.768991486198    -0.332824899844    -0.228772621206     1.007825032230

  Basis Set: AUG-CC-PVTZ
    Blend: AUG-CC-PVTZ
  Basis Set: (AUG-CC-PVTZ AUX)
    Blend: AUG-CC-PVTZ-JKFIT
	 Reference Energy          =    -382.9035735146743491 [Eh]
	 Singles Energy            =      -0.0000000000000000 [Eh]
	 Same-Spin Energy          =      -0.3830137227329182 [Eh]
	 Opposite-Spin Energy      =      -1.2541198378249088 [Eh]
	 Correlation Energy        =      -1.6371335605578270 [Eh]
	 Total Energy              =    -384.5407070752321488 [Eh]

	 ================> DF-SCS-MP2 Energies <==================
	-----------------------------------------------------------
	 SCS Same-Spin Scale       =       0.3333333333333333 [-]
	 SCS Opposite-Spin Scale   =       1.2000000000000000 [-]
	 SCS Same-Spin Energy      =      -0.1276712409109727 [Eh]
	 SCS Opposite-Spin Energy  =      -1.5049438053898905 [Eh]
	 SCS Correlation Energy    =      -1.6326150463008633 [Eh]
	 SCS Total Energy          =    -384.5361885609752335 [Eh]
	-----------------------------------------------------------

  Dipole Moment: [D]
     X:    -0.2100      Y:     1.4085      Z:     0.2106     Total:     1.4395

*** Psi4 exiting successfully. Buy a developer a beer!
