                               Psi4 1.3.2 release

  ==> Input File <==

--------------------------------------------------------------------------
#psi4
#
memory 32 gb

molecule  {
0 1
  O        3.1501630     0.3869830     0.0122970
  O        1.7226580    -1.3643080    -0.2059640
  C       -2.9163610     0.3476720    -0.5022120
  C       -1.4960630     0.8252950    -0.4074400
  C        0.8585340     0.8235180     0.4136200
  C       -0.5245990     0.2621860     0.3264500
  C       -3.2476580    -0.8824200     0.3361610
  C        1.9107340    -0.1856640     0.0271730
  H       -3.5825680     1.1749950    -0.2170990
  H       -3.1475630     0.1432210    -1.5599470
  H       -1.2553160     1.7190160    -0.9933200
  H        0.9787830     1.7133270    -0.2211670
  H        1.0972480     1.1531100     1.4329360
  H       -0.7130820    -0.6444280     0.9033180
  H       -4.2956480    -1.1625270     0.2123440
  H       -2.6314050    -1.7369230     0.0388270
  H       -3.0739380    -0.6897760     1.4001060
  H        3.8947659    -0.4824974    -0.2786020
units angstrom
no_reorient  #important for SAPT in psi4, default
symmetry c1  #important for SAPT in psi4, default
}

set PROPERTIES_ORIGIN ["COM"]
properties('MP2/aug-cc-pvtz', properties = ['dipole'])
--------------------------------------------------------------------------

    Molecular point group: c1
  Charge       = 0
  Multiplicity = 1
  Basis Set: AUG-CC-PVTZ
    Blend: AUG-CC-PVTZ
  Basis Set: (AUG-CC-PVTZ AUX)
    Blend: AUG-CC-PVTZ-JKFIT

    Orbital Energies [Eh]
    ---------------------

    Doubly Occupied:

       1A    -20.624397     2A    -20.549274     3A    -11.386972
       4A    -11.253567     5A    -11.234737     6A    -11.231651
       7A    -11.229538     8A    -11.214278     9A     -1.439015
      10A     -1.340499    11A     -1.101734    12A     -1.042936
      13A     -0.955993    14A     -0.865023    15A     -0.782719
      16A     -0.738021    17A     -0.682554    18A     -0.677213
      19A     -0.650157    20A     -0.621657    21A     -0.611406
      22A     -0.595489    23A     -0.566843    24A     -0.548189
      25A     -0.526579    26A     -0.497643    27A     -0.490193
      28A     -0.482156    29A     -0.477187    30A     -0.452464
      31A     -0.353147

  @DF-RHF Final Energy:  -382.86789056892059

   => Energetics <=

    Nuclear Repulsion Energy =            354.0380294317000107
    One-Electron Energy =               -1223.3653812562195071
    Two-Electron Energy =                 486.4594612555989102
    Total Energy =                       -382.8678905689205862
  Basis Set: (AUG-CC-PVTZ AUX)
    Blend: AUG-CC-PVTZ-RI
    Molecular point group: c1

    Geometry (in Angstrom), charge = 0, multiplicity = 1:

       Center              X                  Y                   Z               Mass
    ------------   -----------------  -----------------  -----------------  -----------------
         O            3.149048980342     0.388283766767     0.012732296912    15.994914619570
         O            1.721543980342    -1.363007233233    -0.205528703088    15.994914619570
         C           -2.917475019658     0.348972766767    -0.501776703088    12.000000000000
         C           -1.497177019658     0.826595766767    -0.407004703088    12.000000000000
         C            0.857419980342     0.824818766767     0.414055296912    12.000000000000
         C           -0.525713019658     0.263486766767     0.326885296912    12.000000000000
         C           -3.248772019658    -0.881119233233     0.336596296912    12.000000000000
         C            1.909619980342    -0.184363233233     0.027608296912    12.000000000000
         H           -3.583682019658     1.176295766767    -0.216663703088     1.007825032230
         H           -3.148677019658     0.144521766767    -1.559511703088     1.007825032230
         H           -1.256430019658     1.720316766767    -0.992884703088     1.007825032230
         H            0.977668980342     1.714627766767    -0.220731703088     1.007825032230
         H            1.096133980342     1.154410766767     1.433371296912     1.007825032230
         H           -0.714196019658    -0.643127233233     0.903753296912     1.007825032230
         H           -4.296762019658    -1.161226233233     0.212779296912     1.007825032230
         H           -2.632519019658    -1.735622233233     0.039262296912     1.007825032230
         H           -3.075052019658    -0.688475233233     1.400541296912     1.007825032230
         H            3.893651880342    -0.481196633233    -0.278166703088     1.007825032230

  Basis Set: AUG-CC-PVTZ
    Blend: AUG-CC-PVTZ
  Basis Set: (AUG-CC-PVTZ AUX)
    Blend: AUG-CC-PVTZ-JKFIT
	 Reference Energy          =    -382.8678905689205862 [Eh]
	 Singles Energy            =      -0.0000000000000000 [Eh]
	 Same-Spin Energy          =      -0.3856557904653218 [Eh]
	 Opposite-Spin Energy      =      -1.2610272589438922 [Eh]
	 Correlation Energy        =      -1.6466830494092140 [Eh]
	 Total Energy              =    -384.5145736183297913 [Eh]

	 ================> DF-SCS-MP2 Energies <==================
	-----------------------------------------------------------
	 SCS Same-Spin Scale       =       0.3333333333333333 [-]
	 SCS Opposite-Spin Scale   =       1.2000000000000000 [-]
	 SCS Same-Spin Energy      =      -0.1285519301551073 [Eh]
	 SCS Opposite-Spin Energy  =      -1.5132327107326706 [Eh]
	 SCS Correlation Energy    =      -1.6417846408877779 [Eh]
	 SCS Total Energy          =    -384.5096752098083925 [Eh]
	-----------------------------------------------------------

  Dipole Moment: [D]
     X:    -0.0113      Y:     1.2583      Z:     0.1552     Total:     1.2679

*** Psi4 exiting successfully. Buy a developer a beer!
