                               Psi4 1.3.2 release

  ==> Input File <==

--------------------------------------------------------------------------
#psi4
#
memory 32 gb

molecule  {
0 1
  O        3.1501630     0.3869830     0.0122970
  O        1.7226580    -1.3643080    -0.2059640
  C       -2.9163610     0.3476720    -0.5022120
  C       -1.4960630     0.8252950    -0.4074400
  C        0.8585340     0.8235180     0.4136200
  C       -0.5245990     0.2621860     0.3264500
  C       -3.2476580    -0.8824200     0.3361610
  C        1.9107340    -0.1856640     0.0271730
  H       -3.5825680     1.1749950    -0.2170990
  H       -3.1475630     0.1432210    -1.5599470
  H       -1.2553160     1.7190160    -0.9933200
  H        1.0006539     1.8751657    -0.3366222
  H        1.0972480     1.1531100     1.4329360
  H       -0.7130820    -0.6444280     0.9033180
  H       -4.2956480    -1.1625270     0.2123440
  H       -2.6314050    -1.7369230     0.0388270
  H       -3.0739380    -0.6897760     1.4001060
  H        3.7686820    -0.3352680    -0.2293440
units angstrom
no_reorient  #important for SAPT in psi4, default
symmetry c1  #important for SAPT in psi4, default
}

set PROPERTIES_ORIGIN ["COM"]
properties('MP2/aug-cc-pvtz', properties = ['dipole'])
--------------------------------------------------------------------------

    Molecular point group: c1
  Charge       = 0
  Multiplicity = 1
  Basis Set: AUG-CC-PVTZ
    Blend: AUG-CC-PVTZ
  Basis Set: (AUG-CC-PVTZ AUX)
    Blend: AUG-CC-PVTZ-JKFIT

    Orbital Energies [Eh]
    ---------------------

    Doubly Occupied:

       1A    -20.615304     2A    -20.554024     3A    -11.392118
       4A    -11.275134     5A    -11.236267     6A    -11.233713
       7A    -11.230408     8A    -11.215212     9A     -1.458764
      10A     -1.358742    11A     -1.100987    12A     -1.041403
      13A     -0.958624    14A     -0.870829    15A     -0.803467
      16A     -0.731804    17A     -0.703320    18A     -0.680358
      19A     -0.651998    20A     -0.621910    21A     -0.612545
      22A     -0.595062    23A     -0.583098    24A     -0.549510
      25A     -0.510122    26A     -0.498541    27A     -0.491456
      28A     -0.482453    29A     -0.481111    30A     -0.454775
      31A     -0.354736

  @DF-RHF Final Energy:  -382.88190676174207

   => Energetics <=

    Nuclear Repulsion Energy =            354.2084103190379096
    One-Electron Energy =               -1223.4850462946610605
    Two-Electron Energy =                 486.3947292138810212
    Total Energy =                       -382.8819067617420728
  Basis Set: (AUG-CC-PVTZ AUX)
    Blend: AUG-CC-PVTZ-RI
    Molecular point group: c1

    Geometry (in Angstrom), charge = 0, multiplicity = 1:

       Center              X                  Y                   Z               Mass
    ------------   -----------------  -----------------  -----------------  -----------------
         O            3.149969732848     0.385553059202     0.013317168644    15.994914619570
         O            1.722464732848    -1.365737940798    -0.204943831356    15.994914619570
         C           -2.916554267152     0.346242059202    -0.501191831356    12.000000000000
         C           -1.496256267152     0.823865059202    -0.406419831356    12.000000000000
         C            0.858340732848     0.822088059202     0.414640168644    12.000000000000
         C           -0.524792267152     0.260756059202     0.327470168644    12.000000000000
         C           -3.247851267152    -0.883849940798     0.337181168644    12.000000000000
         C            1.910540732848    -0.187093940798     0.028193168644    12.000000000000
         H           -3.582761267152     1.173565059202    -0.216078831356     1.007825032230
         H           -3.147756267152     0.141791059202    -1.558926831356     1.007825032230
         H           -1.255509267152     1.717586059202    -0.992299831356     1.007825032230
         H            1.000460632848     1.873735759202    -0.335602031356     1.007825032230
         H            1.097054732848     1.151680059202     1.433956168644     1.007825032230
         H           -0.713275267152    -0.645857940798     0.904338168644     1.007825032230
         H           -4.295841267152    -1.163956940798     0.213364168644     1.007825032230
         H           -2.631598267152    -1.738352940798     0.039847168644     1.007825032230
         H           -3.074131267152    -0.691205940798     1.401126168644     1.007825032230
         H            3.768488732848    -0.336697940798    -0.228323831356     1.007825032230

  Basis Set: AUG-CC-PVTZ
    Blend: AUG-CC-PVTZ
  Basis Set: (AUG-CC-PVTZ AUX)
    Blend: AUG-CC-PVTZ-JKFIT
	 Reference Energy          =    -382.8819067617420728 [Eh]
	 Singles Energy            =      -0.0000000000000000 [Eh]
	 Same-Spin Energy          =      -0.3834868228208475 [Eh]
	 Opposite-Spin Energy      =      -1.2565521004263231 [Eh]
	 Correlation Energy        =      -1.6400389232471706 [Eh]
	 Total Energy              =    -384.5219456849892481 [Eh]

	 ================> DF-SCS-MP2 Energies <==================
	-----------------------------------------------------------
	 SCS Same-Spin Scale       =       0.3333333333333333 [-]
	 SCS Opposite-Spin Scale   =       1.2000000000000000 [-]
	 SCS Same-Spin Energy      =      -0.1278289409402825 [Eh]
	 SCS Opposite-Spin Energy  =      -1.5078625205115876 [Eh]
	 SCS Correlation Energy    =      -1.6356914614518701 [Eh]
	 SCS Total Energy          =    -384.5175982231939429 [Eh]
	-----------------------------------------------------------

  Dipole Moment: [D]
     X:    -0.2177      Y:     1.3230      Z:     0.2253     Total:     1.3596

*** Psi4 exiting successfully. Buy a developer a beer!
