                               Psi4 1.3.2 release

  ==> Input File <==

--------------------------------------------------------------------------
#psi4
#
memory 32 gb

molecule  {
0 1
  O        3.1501630     0.3869830     0.0122970
  O        1.7226580    -1.3643080    -0.2059640
  C       -2.9163610     0.3476720    -0.5022120
  C       -1.4960630     0.8252950    -0.4074400
  C        0.8585340     0.8235180     0.4136200
  C       -0.6694393     0.3461427     0.2170308
  C       -3.2476580    -0.8824200     0.3361610
  C        1.9107340    -0.1856640     0.0271730
  H       -3.5825680     1.1749950    -0.2170990
  H       -3.1475630     0.1432210    -1.5599470
  H       -1.2553160     1.7190160    -0.9933200
  H        0.9787830     1.7133270    -0.2211670
  H        1.0972480     1.1531100     1.4329360
  H       -0.7130820    -0.6444280     0.9033180
  H       -4.2956480    -1.1625270     0.2123440
  H       -2.6314050    -1.7369230     0.0388270
  H       -3.0739380    -0.6897760     1.4001060
  H        3.7686820    -0.3352680    -0.2293440
units angstrom
no_reorient  #important for SAPT in psi4, default
symmetry c1  #important for SAPT in psi4, default
}

set PROPERTIES_ORIGIN ["COM"]
properties('MP2/aug-cc-pvtz', properties = ['dipole'])
--------------------------------------------------------------------------

    Molecular point group: c1
  Charge       = 0
  Multiplicity = 1
  Basis Set: AUG-CC-PVTZ
    Blend: AUG-CC-PVTZ
  Basis Set: (AUG-CC-PVTZ AUX)
    Blend: AUG-CC-PVTZ-JKFIT

    Orbital Energies [Eh]
    ---------------------

    Doubly Occupied:

       1A    -20.616496     2A    -20.552427     3A    -11.392126
       4A    -11.257954     5A    -11.228971     6A    -11.220605
       7A    -11.213538     8A    -11.201862     9A     -1.458832
      10A     -1.357925    11A     -1.132393    12A     -1.034555
      13A     -0.986646    14A     -0.864276    15A     -0.809741
      16A     -0.718986    17A     -0.701669    18A     -0.679379
      19A     -0.652878    20A     -0.628446    21A     -0.614062
      22A     -0.609741    23A     -0.583036    24A     -0.558239
      25A     -0.514347    26A     -0.500869    27A     -0.495265
      28A     -0.483252    29A     -0.456309    30A     -0.430860
      31A     -0.409097

  @DF-RHF Final Energy:  -382.83223046424445

   => Energetics <=

    Nuclear Repulsion Energy =            356.1979422737085770
    One-Electron Energy =               -1227.3307770929413891
    Two-Electron Energy =                 488.3006043549883657
    Total Energy =                       -382.8322304642444465
  Basis Set: (AUG-CC-PVTZ AUX)
    Blend: AUG-CC-PVTZ-RI
    Molecular point group: c1

    Geometry (in Angstrom), charge = 0, multiplicity = 1:

       Center              X                  Y                   Z               Mass
    ------------   -----------------  -----------------  -----------------  -----------------
         O            3.165400216532     0.378150678884     0.023808024315    15.994914619570
         O            1.737895216532    -1.373140321116    -0.194452975685    15.994914619570
         C           -2.901123783468     0.338839678884    -0.490700975685    12.000000000000
         C           -1.480825783468     0.816462678884    -0.395928975685    12.000000000000
         C            0.873771216532     0.814685678884     0.425131024315    12.000000000000
         C           -0.654202083468     0.337310378884     0.228541824315    12.000000000000
         C           -3.232420783468    -0.891252321116     0.347672024315    12.000000000000
         C            1.925971216532    -0.194496321116     0.038684024315    12.000000000000
         H           -3.567330783468     1.166162678884    -0.205587975685     1.007825032230
         H           -3.132325783468     0.134388678884    -1.548435975685     1.007825032230
         H           -1.240078783468     1.710183678884    -0.981808975685     1.007825032230
         H            0.994020216532     1.704494678884    -0.209655975685     1.007825032230
         H            1.112485216532     1.144277678884     1.444447024315     1.007825032230
         H           -0.697844783468    -0.653260321116     0.914829024315     1.007825032230
         H           -4.280410783468    -1.171359321116     0.223855024315     1.007825032230
         H           -2.616167783468    -1.745755321116     0.050338024315     1.007825032230
         H           -3.058700783468    -0.698608321116     1.411617024315     1.007825032230
         H            3.783919216532    -0.344100321116    -0.217832975685     1.007825032230

  Basis Set: AUG-CC-PVTZ
    Blend: AUG-CC-PVTZ
  Basis Set: (AUG-CC-PVTZ AUX)
    Blend: AUG-CC-PVTZ-JKFIT
	 Reference Energy          =    -382.8322304642444465 [Eh]
	 Singles Energy            =      -0.0000000000000000 [Eh]
	 Same-Spin Energy          =      -0.3824703929999181 [Eh]
	 Opposite-Spin Energy      =      -1.2520185701843733 [Eh]
	 Correlation Energy        =      -1.6344889631842916 [Eh]
	 Total Energy              =    -384.4667194274287567 [Eh]

	 ================> DF-SCS-MP2 Energies <==================
	-----------------------------------------------------------
	 SCS Same-Spin Scale       =       0.3333333333333333 [-]
	 SCS Opposite-Spin Scale   =       1.2000000000000000 [-]
	 SCS Same-Spin Energy      =      -0.1274901309999727 [Eh]
	 SCS Opposite-Spin Energy  =      -1.5024222842212480 [Eh]
	 SCS Correlation Energy    =      -1.6299124152212208 [Eh]
	 SCS Total Energy          =    -384.4621428794656595 [Eh]
	-----------------------------------------------------------

  Dipole Moment: [D]
     X:    -0.1883      Y:     1.4315      Z:     0.1774     Total:     1.4547

*** Psi4 exiting successfully. Buy a developer a beer!
