                               Psi4 1.3.2 release

  ==> Input File <==

--------------------------------------------------------------------------
#psi4
#
memory 32 gb

molecule  {
0 1
  O        3.1501630     0.3869830     0.0122970
  O        1.7226580    -1.3643080    -0.2059640
  C       -2.9163610     0.3476720    -0.5022120
  C       -1.4960630     0.8252950    -0.4074400
  C        0.8585340     0.8235180     0.4136200
  C       -0.5245990     0.2621860     0.3264500
  C       -3.2476580    -0.8824200     0.3361610
  C        1.8836106    -0.1220285     0.0451963
  H       -3.5825680     1.1749950    -0.2170990
  H       -3.1475630     0.1432210    -1.5599470
  H       -1.2553160     1.7190160    -0.9933200
  H        0.9787830     1.7133270    -0.2211670
  H        1.0972480     1.1531100     1.4329360
  H       -0.7130820    -0.6444280     0.9033180
  H       -4.2956480    -1.1625270     0.2123440
  H       -2.6314050    -1.7369230     0.0388270
  H       -3.0739380    -0.6897760     1.4001060
  H        3.8072499    -0.3014979    -0.2261007
units angstrom
no_reorient  #important for SAPT in psi4, default
symmetry c1  #important for SAPT in psi4, default
}

set PROPERTIES_ORIGIN ["COM"]
properties('MP2/aug-cc-pvtz', properties = ['dipole'])
--------------------------------------------------------------------------

    Molecular point group: c1
  Charge       = 0
  Multiplicity = 1
  Basis Set: AUG-CC-PVTZ
    Blend: AUG-CC-PVTZ
  Basis Set: (AUG-CC-PVTZ AUX)
    Blend: AUG-CC-PVTZ-JKFIT

    Orbital Energies [Eh]
    ---------------------

    Doubly Occupied:

       1A    -20.615543     2A    -20.543285     3A    -11.396904
       4A    -11.257551     5A    -11.238323     6A    -11.235776
       7A    -11.231575     8A    -11.215547     9A     -1.445980
      10A     -1.322741    11A     -1.111120    12A     -1.056269
      13A     -0.969374    14A     -0.874778    15A     -0.812839
      16A     -0.742036    17A     -0.695608    18A     -0.680454
      19A     -0.656890    20A     -0.628361    21A     -0.613007
      22A     -0.595265    23A     -0.571076    24A     -0.555778
      25A     -0.530401    26A     -0.499178    27A     -0.492851
      28A     -0.484156    29A     -0.460799    30A     -0.450589
      31A     -0.357606

  @DF-RHF Final Energy:  -382.88884314548170

   => Energetics <=

    Nuclear Repulsion Energy =            354.8677024019259534
    One-Electron Energy =               -1224.8297705740396850
    Two-Electron Energy =                 487.0732250266320307
    Total Energy =                       -382.8888431454817010
  Basis Set: (AUG-CC-PVTZ AUX)
    Blend: AUG-CC-PVTZ-RI
    Molecular point group: c1

    Geometry (in Angstrom), charge = 0, multiplicity = 1:

       Center              X                  Y                   Z               Mass
    ------------   -----------------  -----------------  -----------------  -----------------
         O            3.152675600665     0.379990107134     0.010372375316    15.994914619570
         O            1.725170600665    -1.371300892866    -0.207888624684    15.994914619570
         C           -2.913848399335     0.340679107134    -0.504136624684    12.000000000000
         C           -1.493550399335     0.818302107134    -0.409364624684    12.000000000000
         C            0.861046600665     0.816525107134     0.411695375316    12.000000000000
         C           -0.522086399335     0.255193107134     0.324525375316    12.000000000000
         C           -3.245145399335    -0.889412892866     0.334236375316    12.000000000000
         C            1.886123200665    -0.129021392866     0.043271675316    12.000000000000
         H           -3.580055399335     1.168002107134    -0.219023624684     1.007825032230
         H           -3.145050399335     0.136228107134    -1.561871624684     1.007825032230
         H           -1.252803399335     1.712023107134    -0.995244624684     1.007825032230
         H            0.981295600665     1.706334107134    -0.223091624684     1.007825032230
         H            1.099760600665     1.146117107134     1.431011375316     1.007825032230
         H           -0.710569399335    -0.651420892866     0.901393375316     1.007825032230
         H           -4.293135399335    -1.169519892866     0.210419375316     1.007825032230
         H           -2.628892399335    -1.743915892866     0.036902375316     1.007825032230
         H           -3.071425399335    -0.696768892866     1.398181375316     1.007825032230
         H            3.809762500665    -0.308490792866    -0.228025324684     1.007825032230

  Basis Set: AUG-CC-PVTZ
    Blend: AUG-CC-PVTZ
  Basis Set: (AUG-CC-PVTZ AUX)
    Blend: AUG-CC-PVTZ-JKFIT
	 Reference Energy          =    -382.8888431454817010 [Eh]
	 Singles Energy            =      -0.0000000000000000 [Eh]
	 Same-Spin Energy          =      -0.3847442051102984 [Eh]
	 Opposite-Spin Energy      =      -1.2576002056278608 [Eh]
	 Correlation Energy        =      -1.6423444107381591 [Eh]
	 Total Energy              =    -384.5311875562198338 [Eh]

	 ================> DF-SCS-MP2 Energies <==================
	-----------------------------------------------------------
	 SCS Same-Spin Scale       =       0.3333333333333333 [-]
	 SCS Opposite-Spin Scale   =       1.2000000000000000 [-]
	 SCS Same-Spin Energy      =      -0.1282480683700994 [Eh]
	 SCS Opposite-Spin Energy  =      -1.5091202467534328 [Eh]
	 SCS Correlation Energy    =      -1.6373683151235323 [Eh]
	 SCS Total Energy          =    -384.5262114606052251 [Eh]
	-----------------------------------------------------------

  Dipole Moment: [D]
     X:    -0.2745      Y:     1.7695      Z:     0.2939     Total:     1.8146

*** Psi4 exiting successfully. Buy a developer a beer!
