                               Psi4 1.3.2 release

  ==> Input File <==

--------------------------------------------------------------------------
#psi4
#
memory 32 gb

molecule  {
0 1
  O        3.1501630     0.3869830     0.0122970
  O        1.7850805    -1.3703806    -0.2169270
  C       -2.9163610     0.3476720    -0.5022120
  C       -1.4960630     0.8252950    -0.4074400
  C        0.9153018     0.8782990     0.4170600
  C       -0.5245990     0.2621860     0.3264500
  C       -3.2476580    -0.8824200     0.3361610
  C        1.9107340    -0.1856640     0.0271730
  H       -3.5825680     1.1749950    -0.2170990
  H       -3.1475630     0.1432210    -1.5599470
  H       -1.2553160     1.7190160    -0.9933200
  H        0.9787830     1.7133270    -0.2211670
  H        1.0972480     1.1531100     1.4329360
  H       -0.7130820    -0.6444280     0.9033180
  H       -4.2956480    -1.1625270     0.2123440
  H       -2.6314050    -1.7369230     0.0388270
  H       -3.0739380    -0.6897760     1.4001060
  H        3.7686820    -0.3352680    -0.2293440
units angstrom
no_reorient  #important for SAPT in psi4, default
symmetry c1  #important for SAPT in psi4, default
}

set PROPERTIES_ORIGIN ["COM"]
properties('MP2/aug-cc-pvtz', properties = ['dipole'])
--------------------------------------------------------------------------

    Molecular point group: c1
  Charge       = 0
  Multiplicity = 1
  Basis Set: AUG-CC-PVTZ
    Blend: AUG-CC-PVTZ
  Basis Set: (AUG-CC-PVTZ AUX)
    Blend: AUG-CC-PVTZ-JKFIT

    Orbital Energies [Eh]
    ---------------------

    Doubly Occupied:

       1A    -20.608741     2A    -20.554447     3A    -11.391165
       4A    -11.255298     5A    -11.237755     6A    -11.235112
       7A    -11.230493     8A    -11.215275     9A     -1.458969
      10A     -1.353713    11A     -1.099122    12A     -1.045691
      13A     -0.962681    14A     -0.868278    15A     -0.805831
      16A     -0.740314    17A     -0.700949    18A     -0.680489
      19A     -0.658984    20A     -0.623205    21A     -0.612501
      22A     -0.598294    23A     -0.583705    24A     -0.559653
      25A     -0.526817    26A     -0.498720    27A     -0.491226
      28A     -0.483486    29A     -0.476597    30A     -0.457104
      31A     -0.355951

  @DF-RHF Final Energy:  -382.89690486947461

   => Energetics <=

    Nuclear Repulsion Energy =            353.9845227814632835
    One-Electron Energy =               -1223.0217190134819703
    Two-Electron Energy =                 486.1402913625440760
    Total Energy =                       -382.8969048694746107
  Basis Set: (AUG-CC-PVTZ AUX)
    Blend: AUG-CC-PVTZ-RI
    Molecular point group: c1

    Geometry (in Angstrom), charge = 0, multiplicity = 1:

       Center              X                  Y                   Z               Mass
    ------------   -----------------  -----------------  -----------------  -----------------
         O            3.135437936366     0.382071487583     0.013472458436    15.994914619570
         O            1.770355436366    -1.375292112417    -0.215751541564    15.994914619570
         C           -2.931086063634     0.342760487583    -0.501036541564    12.000000000000
         C           -1.510788063634     0.820383487583    -0.406264541564    12.000000000000
         C            0.900576736366     0.873387487583     0.418235458436    12.000000000000
         C           -0.539324063634     0.257274487583     0.327625458436    12.000000000000
         C           -3.262383063634    -0.887331512417     0.337336458436    12.000000000000
         C            1.896008936366    -0.190575512417     0.028348458436    12.000000000000
         H           -3.597293063634     1.170083487583    -0.215923541564     1.007825032230
         H           -3.162288063634     0.138309487583    -1.558771541564     1.007825032230
         H           -1.270041063634     1.714104487583    -0.992144541564     1.007825032230
         H            0.964057936366     1.708415487583    -0.219991541564     1.007825032230
         H            1.082522936366     1.148198487583     1.434111458436     1.007825032230
         H           -0.727807063634    -0.649339512417     0.904493458436     1.007825032230
         H           -4.310373063634    -1.167438512417     0.213519458436     1.007825032230
         H           -2.646130063634    -1.741834512417     0.040002458436     1.007825032230
         H           -3.088663063634    -0.694687512417     1.401281458436     1.007825032230
         H            3.753956936366    -0.340179512417    -0.228168541564     1.007825032230

  Basis Set: AUG-CC-PVTZ
    Blend: AUG-CC-PVTZ
  Basis Set: (AUG-CC-PVTZ AUX)
    Blend: AUG-CC-PVTZ-JKFIT
	 Reference Energy          =    -382.8969048694746107 [Eh]
	 Singles Energy            =      -0.0000000000000000 [Eh]
	 Same-Spin Energy          =      -0.3827337279649717 [Eh]
	 Opposite-Spin Energy      =      -1.2544650436446756 [Eh]
	 Correlation Energy        =      -1.6371987716096474 [Eh]
	 Total Energy              =    -384.5341036410842435 [Eh]

	 ================> DF-SCS-MP2 Energies <==================
	-----------------------------------------------------------
	 SCS Same-Spin Scale       =       0.3333333333333333 [-]
	 SCS Opposite-Spin Scale   =       1.2000000000000000 [-]
	 SCS Same-Spin Energy      =      -0.1275779093216572 [Eh]
	 SCS Opposite-Spin Energy  =      -1.5053580523736108 [Eh]
	 SCS Correlation Energy    =      -1.6329359616952681 [Eh]
	 SCS Total Energy          =    -384.5298408311699063 [Eh]
	-----------------------------------------------------------

  Dipole Moment: [D]
     X:    -0.3439      Y:     1.4227      Z:     0.2404     Total:     1.4833

*** Psi4 exiting successfully. Buy a developer a beer!
