                               Psi4 1.3.2 release

  ==> Input File <==

--------------------------------------------------------------------------
#psi4
#
memory 32 gb

molecule  {
0 1
  O        3.1501630     0.3869830     0.0122970
  O        1.7226580    -1.3643080    -0.2059640
  C       -2.9163610     0.3476720    -0.5022120
  C       -1.4960630     0.8252950    -0.4074400
  C        0.8585340     0.8235180     0.4136200
  C       -0.5245990     0.2621860     0.3264500
  C       -3.2476580    -0.8824200     0.3361610
  C        1.9155870    -0.1961220     0.0241638
  H       -3.5825680     1.1749950    -0.2170990
  H       -3.1475630     0.1432210    -1.5599470
  H       -1.2553160     1.7190160    -0.9933200
  H        0.9787830     1.7133270    -0.2211670
  H        1.0972480     1.1531100     1.4329360
  H       -0.7130820    -0.6444280     0.9033180
  H       -4.2956480    -1.1625270     0.2123440
  H       -2.6314050    -1.7369230     0.0388270
  H       -3.0739380    -0.6897760     1.4001060
  H        3.7620863    -0.3407063    -0.2298204
units angstrom
no_reorient  #important for SAPT in psi4, default
symmetry c1  #important for SAPT in psi4, default
}

set PROPERTIES_ORIGIN ["COM"]
properties('MP2/aug-cc-pvtz', properties = ['dipole'])
--------------------------------------------------------------------------

    Molecular point group: c1
  Charge       = 0
  Multiplicity = 1
  Basis Set: AUG-CC-PVTZ
    Blend: AUG-CC-PVTZ
  Basis Set: (AUG-CC-PVTZ AUX)
    Blend: AUG-CC-PVTZ-JKFIT

    Orbital Energies [Eh]
    ---------------------

    Doubly Occupied:

       1A    -20.615830     2A    -20.554361     3A    -11.389512
       4A    -11.253577     5A    -11.235048     6A    -11.231750
       7A    -11.229829     8A    -11.214625     9A     -1.461497
      10A     -1.363660    11A     -1.102022    12A     -1.043767
      13A     -0.958617    14A     -0.869441    15A     -0.804783
      16A     -0.738663    17A     -0.704850    18A     -0.683013
      19A     -0.654210    20A     -0.625950    21A     -0.612001
      22A     -0.600117    23A     -0.583269    24A     -0.552074
      25A     -0.527467    26A     -0.498046    27A     -0.491313
      28A     -0.487430    29A     -0.480820    30A     -0.455888
      31A     -0.353392

  @DF-RHF Final Energy:  -382.90367971331438

   => Energetics <=

    Nuclear Repulsion Energy =            355.1147944797899640
    One-Electron Energy =               -1225.2833091661466369
    Two-Electron Energy =                 487.2648349730423547
    Total Energy =                       -382.9036797133143750
  Basis Set: (AUG-CC-PVTZ AUX)
    Blend: AUG-CC-PVTZ-RI
    Molecular point group: c1

    Geometry (in Angstrom), charge = 0, multiplicity = 1:

       Center              X                  Y                   Z               Mass
    ------------   -----------------  -----------------  -----------------  -----------------
         O            3.149710706414     0.388131185782     0.012617865972    15.994914619570
         O            1.722205706414    -1.363159814218    -0.205643134028    15.994914619570
         C           -2.916813293586     0.348820185782    -0.501891134028    12.000000000000
         C           -1.496515293586     0.826443185782    -0.407119134028    12.000000000000
         C            0.858081706414     0.824666185782     0.413940865972    12.000000000000
         C           -0.525051293586     0.263334185782     0.326770865972    12.000000000000
         C           -3.248110293586    -0.881271814218     0.336481865972    12.000000000000
         C            1.915134706414    -0.194973814218     0.024484665972    12.000000000000
         H           -3.583020293586     1.176143185782    -0.216778134028     1.007825032230
         H           -3.148015293586     0.144369185782    -1.559626134028     1.007825032230
         H           -1.255768293586     1.720164185782    -0.992999134028     1.007825032230
         H            0.978330706414     1.714475185782    -0.220846134028     1.007825032230
         H            1.096795706414     1.154258185782     1.433256865972     1.007825032230
         H           -0.713534293586    -0.643279814218     0.903638865972     1.007825032230
         H           -4.296100293586    -1.161378814218     0.212664865972     1.007825032230
         H           -2.631857293586    -1.735774814218     0.039147865972     1.007825032230
         H           -3.074390293586    -0.688627814218     1.400426865972     1.007825032230
         H            3.761634006414    -0.339558114218    -0.229499534028     1.007825032230

  Basis Set: AUG-CC-PVTZ
    Blend: AUG-CC-PVTZ
  Basis Set: (AUG-CC-PVTZ AUX)
    Blend: AUG-CC-PVTZ-JKFIT
	 Reference Energy          =    -382.9036797133143750 [Eh]
	 Singles Energy            =      -0.0000000000000000 [Eh]
	 Same-Spin Energy          =      -0.3829258904690626 [Eh]
	 Opposite-Spin Energy      =      -1.2541156906389690 [Eh]
	 Correlation Energy        =      -1.6370415811080317 [Eh]
	 Total Energy              =    -384.5407212944223829 [Eh]

	 ================> DF-SCS-MP2 Energies <==================
	-----------------------------------------------------------
	 SCS Same-Spin Scale       =       0.3333333333333333 [-]
	 SCS Opposite-Spin Scale   =       1.2000000000000000 [-]
	 SCS Same-Spin Energy      =      -0.1276419634896875 [Eh]
	 SCS Opposite-Spin Energy  =      -1.5049388287667627 [Eh]
	 SCS Correlation Energy    =      -1.6325807922564501 [Eh]
	 SCS Total Energy          =    -384.5362605055708514 [Eh]
	-----------------------------------------------------------

  Dipole Moment: [D]
     X:    -0.1589      Y:     1.3257      Z:     0.1916     Total:     1.3489

*** Psi4 exiting successfully. Buy a developer a beer!
