                               Psi4 1.3.2 release

  ==> Input File <==

--------------------------------------------------------------------------
#psi4
#
memory 32 gb

molecule  {
0 1
  O        3.1501630     0.3869830     0.0122970
  O        1.7226580    -1.3643080    -0.2059640
  C       -2.9163610     0.3476720    -0.5022120
  C       -1.6852532     0.7616734    -0.4200641
  C        0.8585340     0.8235180     0.4136200
  C       -0.5245990     0.2621860     0.3264500
  C       -3.2476580    -0.8824200     0.3361610
  C        1.9107340    -0.1856640     0.0271730
  H       -3.5825680     1.1749950    -0.2170990
  H       -3.1475630     0.1432210    -1.5599470
  H       -1.2553160     1.7190160    -0.9933200
  H        0.9787830     1.7133270    -0.2211670
  H        1.0972480     1.1531100     1.4329360
  H       -0.7130820    -0.6444280     0.9033180
  H       -4.2956480    -1.1625270     0.2123440
  H       -2.6314050    -1.7369230     0.0388270
  H       -3.0739380    -0.6897760     1.4001060
  H        3.7686820    -0.3352680    -0.2293440
units angstrom
no_reorient  #important for SAPT in psi4, default
symmetry c1  #important for SAPT in psi4, default
}

set PROPERTIES_ORIGIN ["COM"]
properties('MP2/aug-cc-pvtz', properties = ['dipole'])
--------------------------------------------------------------------------

    Molecular point group: c1
  Charge       = 0
  Multiplicity = 1
  Basis Set: AUG-CC-PVTZ
    Blend: AUG-CC-PVTZ
  Basis Set: (AUG-CC-PVTZ AUX)
    Blend: AUG-CC-PVTZ-JKFIT

    Orbital Energies [Eh]
    ---------------------

    Doubly Occupied:

       1A    -20.615875     2A    -20.552092     3A    -11.390796
       4A    -11.258087     5A    -11.253141     6A    -11.244812
       7A    -11.222862     8A    -11.218590     9A     -1.458449
      10A     -1.357616    11A     -1.122160    12A     -1.060307
      13A     -0.945069    14A     -0.889934    15A     -0.803418
      16A     -0.724395    17A     -0.700209    18A     -0.683846
      19A     -0.660999    20A     -0.637640    21A     -0.630287
      22A     -0.591629    23A     -0.580610    24A     -0.556710
      25A     -0.528326    26A     -0.519209    27A     -0.510667
      28A     -0.482826    29A     -0.455843    30A     -0.448124
      31A     -0.319157

  @DF-RHF Final Energy:  -382.83750345994434

   => Energetics <=

    Nuclear Repulsion Energy =            355.1463555460932184
    One-Electron Energy =               -1225.1203448132375797
    Two-Electron Energy =                 487.1364858072000175
    Total Energy =                       -382.8375034599443438
  Basis Set: (AUG-CC-PVTZ AUX)
    Blend: AUG-CC-PVTZ-RI
    Molecular point group: c1

    Geometry (in Angstrom), charge = 0, multiplicity = 1:

       Center              X                  Y                   Z               Mass
    ------------   -----------------  -----------------  -----------------  -----------------
         O            3.170065840798     0.393675965247     0.013625147523    15.994914619570
         O            1.742560840798    -1.357615034753    -0.204635852477    15.994914619570
         C           -2.896458159202     0.354364965247    -0.500883852477    12.000000000000
         C           -1.665350359202     0.768366365247    -0.418735952477    12.000000000000
         C            0.878436840798     0.830210965247     0.414948147523    12.000000000000
         C           -0.504696159202     0.268878965247     0.327778147523    12.000000000000
         C           -3.227755159202    -0.875727034753     0.337489147523    12.000000000000
         C            1.930636840798    -0.178971034753     0.028501147523    12.000000000000
         H           -3.562665159202     1.181687965247    -0.215770852477     1.007825032230
         H           -3.127660159202     0.149913965247    -1.558618852477     1.007825032230
         H           -1.235413159202     1.725708965247    -0.991991852477     1.007825032230
         H            0.998685840798     1.720019965247    -0.219838852477     1.007825032230
         H            1.117150840798     1.159802965247     1.434264147523     1.007825032230
         H           -0.693179159202    -0.637735034753     0.904646147523     1.007825032230
         H           -4.275745159202    -1.155834034753     0.213672147523     1.007825032230
         H           -2.611502159202    -1.730230034753     0.040155147523     1.007825032230
         H           -3.054035159202    -0.683083034753     1.401434147523     1.007825032230
         H            3.788584840798    -0.328575034753    -0.228015852477     1.007825032230

  Basis Set: AUG-CC-PVTZ
    Blend: AUG-CC-PVTZ
  Basis Set: (AUG-CC-PVTZ AUX)
    Blend: AUG-CC-PVTZ-JKFIT
	 Reference Energy          =    -382.8375034599443438 [Eh]
	 Singles Energy            =      -0.0000000000000000 [Eh]
	 Same-Spin Energy          =      -0.3882215972221257 [Eh]
	 Opposite-Spin Energy      =      -1.2626901492043419 [Eh]
	 Correlation Energy        =      -1.6509117464264675 [Eh]
	 Total Energy              =    -384.4884152063708029 [Eh]

	 ================> DF-SCS-MP2 Energies <==================
	-----------------------------------------------------------
	 SCS Same-Spin Scale       =       0.3333333333333333 [-]
	 SCS Opposite-Spin Scale   =       1.2000000000000000 [-]
	 SCS Same-Spin Energy      =      -0.1294071990740419 [Eh]
	 SCS Opposite-Spin Energy  =      -1.5152281790452102 [Eh]
	 SCS Correlation Energy    =      -1.6446353781192522 [Eh]
	 SCS Total Energy          =    -384.4821388380635767 [Eh]
	-----------------------------------------------------------

  Dipole Moment: [D]
     X:    -0.4350      Y:     1.3012      Z:     0.1654     Total:     1.3819

*** Psi4 exiting successfully. Buy a developer a beer!
