                               Psi4 1.4a3.dev225

  ==> Input File <==

--------------------------------------------------------------------------
#psi4
#
memory 32 gb

molecule  {
0 1
  O       -3.2271830    -0.3786580    -0.1569640
  O       -1.8275510     1.3993140    -0.2614160
  C        2.8225670    -0.4310850    -0.3953020
  C        1.4009980    -0.8942070    -0.2419560
  C       -0.9807690    -0.7586230     0.4926230
  C        0.4608768    -0.2091647     0.3679589
  C        3.1298050     0.9339520     0.2103920
  C       -2.0113430     0.2195500    -0.0192140
  H        3.4859920    -1.1868430     0.0468460
  H        3.0699840    -0.4203720    -1.4654230
  H        1.1737130    -1.8673930    -0.6818980
  H       -1.0998220    -1.7054460    -0.0447970
  H       -1.2414610    -0.9681590     1.5400430
  H        0.5929560     0.7502750     0.8121930
  H        4.1791340     1.1958370     0.0500290
  H        2.5131630     1.7137800    -0.2445400
  H        2.9424530     0.9385920     1.2876810
  H       -3.8316340     0.3284440    -0.4642740
units angstrom
no_reorient  #important for SAPT in psi4, default
symmetry c1  #important for SAPT in psi4, default
}

set PROPERTIES_ORIGIN ["COM"]
properties('MP2/aug-cc-pvtz', properties = ['dipole'])
--------------------------------------------------------------------------

    Molecular point group: c1
  Charge       = 0
  Multiplicity = 1
  Basis Set: AUG-CC-PVTZ
    Blend: AUG-CC-PVTZ
  Basis Set: (AUG-CC-PVTZ AUX)
    Blend: AUG-CC-PVTZ-JKFIT

    Orbital Energies [Eh]
    ---------------------

    Doubly Occupied:

       1A    -20.615928     2A    -20.551565     3A    -11.390587
       4A    -11.255680     5A    -11.231874     6A    -11.229648
       7A    -11.228451     8A    -11.214228     9A     -1.459448
      10A     -1.356716    11A     -1.103402    12A     -1.040937
      13A     -0.964163    14A     -0.869869    15A     -0.806054
      16A     -0.743009    17A     -0.702940    18A     -0.679985
      19A     -0.653356    20A     -0.623648    21A     -0.612671
      22A     -0.604603    23A     -0.580815    24A     -0.553344
      25A     -0.525688    26A     -0.498663    27A     -0.493275
      28A     -0.483824    29A     -0.475156    30A     -0.454443
      31A     -0.362116

  @DF-RHF Final Energy:  -382.90267161130186

   => Energetics <=

    Nuclear Repulsion Energy =            354.8834013602723303
    One-Electron Energy =               -1224.8399775311474968
    Two-Electron Energy =                 487.0539045595733683
    Total Energy =                       -382.9026716113018551
  Basis Set: (AUG-CC-PVTZ AUX)
    Blend: AUG-CC-PVTZ-RI
    Molecular point group: c1

    Geometry (in Angstrom), charge = 0, multiplicity = 1:

       Center              X                  Y                   Z               Mass
    ------------   -----------------  -----------------  -----------------  -----------------
         O           -3.129804931769    -0.391102599637    -0.149288505239    15.994914619570
         O           -1.730172931769     1.386869400363    -0.253740505239    15.994914619570
         C            2.919945068231    -0.443529599637    -0.387626505239    12.000000000000
         C            1.498376068231    -0.906651599637    -0.234280505239    12.000000000000
         C           -0.883390931769    -0.771067599637     0.500298494761    12.000000000000
         C            0.558254868231    -0.221609299637     0.375634394761    12.000000000000
         C            3.227183068231     0.921507400363     0.218067494761    12.000000000000
         C           -1.913964931769     0.207105400363    -0.011538505239    12.000000000000
         H            3.583370068231    -1.199287599637     0.054521494761     1.007825032230
         H            3.167362068231    -0.432816599637    -1.457747505239     1.007825032230
         H            1.271091068231    -1.879837599637    -0.674222505239     1.007825032230
         H           -1.002443931769    -1.717890599637    -0.037121505239     1.007825032230
         H           -1.144082931769    -0.980603599637     1.547718494761     1.007825032230
         H            0.690334068231     0.737830400363     0.819868494761     1.007825032230
         H            4.276512068231     1.183392400363     0.057704494761     1.007825032230
         H            2.610541068231     1.701335400363    -0.236864505239     1.007825032230
         H            3.039831068231     0.926147400363     1.295356494761     1.007825032230
         H           -3.734255931769     0.315999400363    -0.456598505239     1.007825032230

  Basis Set: AUG-CC-PVTZ
    Blend: AUG-CC-PVTZ
  Basis Set: (AUG-CC-PVTZ AUX)
    Blend: AUG-CC-PVTZ-JKFIT
	 Reference Energy          =    -382.9026716113018551 [Eh]
	 Singles Energy            =      -0.0000000000000000 [Eh]
	 Same-Spin Energy          =      -0.3824694282652226 [Eh]
	 Opposite-Spin Energy      =      -1.2533566055177321 [Eh]
	 Correlation Energy        =      -1.6358260337829547 [Eh]
	 Total Energy              =    -384.5384976450848171 [Eh]

	 ================> DF-SCS-MP2 Energies <==================
	-----------------------------------------------------------
	 SCS Same-Spin Scale       =       0.3333333333333333 [-]
	 SCS Opposite-Spin Scale   =       1.2000000000000000 [-]
	 SCS Same-Spin Energy      =      -0.1274898094217408 [Eh]
	 SCS Opposite-Spin Energy  =      -1.5040279266212784 [Eh]
	 SCS Correlation Energy    =      -1.6315177360430193 [Eh]
	 SCS Total Energy          =    -384.5341893473448636 [Eh]
	-----------------------------------------------------------

  Dipole Moment: [D]
     X:     0.1936      Y:    -1.4245      Z:     0.2386     Total:     1.4573

*** Psi4 exiting successfully. Buy a developer a beer!
