                               Psi4 1.3.2 release

  ==> Input File <==

--------------------------------------------------------------------------
#psi4
#
memory 32 gb

molecule  {
0 1
  O        3.1501630     0.3869830     0.0122970
  O        1.7226580    -1.3643080    -0.2059640
  C       -2.9163610     0.3476720    -0.5022120
  C       -1.4960630     0.8252950    -0.4074400
  C        0.8585340     0.8235180     0.4136200
  C       -0.5369124     0.3001715     0.2928435
  C       -3.2476580    -0.8824200     0.3361610
  C        1.9107340    -0.1856640     0.0271730
  H       -3.5825680     1.1749950    -0.2170990
  H       -3.1475630     0.1432210    -1.5599470
  H       -1.2553160     1.7190160    -0.9933200
  H        0.9421560     1.7096863    -0.2320483
  H        1.0972480     1.1531100     1.4329360
  H       -0.7130820    -0.6444280     0.9033180
  H       -4.2956480    -1.1625270     0.2123440
  H       -2.6314050    -1.7369230     0.0388270
  H       -3.0739380    -0.6897760     1.4001060
  H        3.7686820    -0.3352680    -0.2293440
units angstrom
no_reorient  #important for SAPT in psi4, default
symmetry c1  #important for SAPT in psi4, default
}

set PROPERTIES_ORIGIN ["COM"]
properties('MP2/aug-cc-pvtz', properties = ['dipole'])
--------------------------------------------------------------------------

    Molecular point group: c1
  Charge       = 0
  Multiplicity = 1
  Basis Set: AUG-CC-PVTZ
    Blend: AUG-CC-PVTZ
  Basis Set: (AUG-CC-PVTZ AUX)
    Blend: AUG-CC-PVTZ-JKFIT

    Orbital Energies [Eh]
    ---------------------

    Doubly Occupied:

       1A    -20.616439     2A    -20.553509     3A    -11.391808
       4A    -11.254727     5A    -11.230783     6A    -11.230459
       7A    -11.228116     8A    -11.214461     9A     -1.459232
      10A     -1.358697    11A     -1.108439    12A     -1.045415
      13A     -0.966334    14A     -0.868922    15A     -0.809146
      16A     -0.731389    17A     -0.702721    18A     -0.683593
      19A     -0.656184    20A     -0.626130    21A     -0.612441
      22A     -0.600085    23A     -0.583216    24A     -0.558875
      25A     -0.518796    26A     -0.498514    27A     -0.493768
      28A     -0.483999    29A     -0.471958    30A     -0.456673
      31A     -0.364535

  @DF-RHF Final Energy:  -382.90043690690840

   => Energetics <=

    Nuclear Repulsion Energy =            355.4105191955046621
    One-Electron Energy =               -1225.8631888142094795
    Two-Electron Energy =                 487.5522327117964210
    Total Energy =                       -382.9004369069083964
  Basis Set: (AUG-CC-PVTZ AUX)
    Blend: AUG-CC-PVTZ-RI
    Molecular point group: c1

    Geometry (in Angstrom), charge = 0, multiplicity = 1:

       Center              X                  Y                   Z               Mass
    ------------   -----------------  -----------------  -----------------  -----------------
         O            3.151781952785     0.383019031106     0.015928642485    15.994914619570
         O            1.724276952785    -1.368271968894    -0.202332357515    15.994914619570
         C           -2.914742047215     0.343708031106    -0.498580357515    12.000000000000
         C           -1.494444047215     0.821331031106    -0.403808357515    12.000000000000
         C            0.860152952785     0.819554031106     0.417251642485    12.000000000000
         C           -0.535293447215     0.296207531106     0.296475142485    12.000000000000
         C           -3.246039047215    -0.886383968894     0.339792642485    12.000000000000
         C            1.912352952785    -0.189627968894     0.030804642485    12.000000000000
         H           -3.580949047215     1.171031031106    -0.213467357515     1.007825032230
         H           -3.145944047215     0.139257031106    -1.556315357515     1.007825032230
         H           -1.253697047215     1.715052031106    -0.989688357515     1.007825032230
         H            0.943774952785     1.705722331106    -0.228416657515     1.007825032230
         H            1.098866952785     1.149146031106     1.436567642485     1.007825032230
         H           -0.711463047215    -0.648391968894     0.906949642485     1.007825032230
         H           -4.294029047215    -1.166490968894     0.215975642485     1.007825032230
         H           -2.629786047215    -1.740886968894     0.042458642485     1.007825032230
         H           -3.072319047215    -0.693739968894     1.403737642485     1.007825032230
         H            3.770300952785    -0.339231968894    -0.225712357515     1.007825032230

  Basis Set: AUG-CC-PVTZ
    Blend: AUG-CC-PVTZ
  Basis Set: (AUG-CC-PVTZ AUX)
    Blend: AUG-CC-PVTZ-JKFIT
	 Reference Energy          =    -382.9004369069083964 [Eh]
	 Singles Energy            =      -0.0000000000000000 [Eh]
	 Same-Spin Energy          =      -0.3829053544030527 [Eh]
	 Opposite-Spin Energy      =      -1.2538269231807804 [Eh]
	 Correlation Energy        =      -1.6367322775838331 [Eh]
	 Total Energy              =    -384.5371691844922566 [Eh]

	 ================> DF-SCS-MP2 Energies <==================
	-----------------------------------------------------------
	 SCS Same-Spin Scale       =       0.3333333333333333 [-]
	 SCS Opposite-Spin Scale   =       1.2000000000000000 [-]
	 SCS Same-Spin Energy      =      -0.1276351181343509 [Eh]
	 SCS Opposite-Spin Energy  =      -1.5045923078169363 [Eh]
	 SCS Correlation Energy    =      -1.6322274259512872 [Eh]
	 SCS Total Energy          =    -384.5326643328596674 [Eh]
	-----------------------------------------------------------

  Dipole Moment: [D]
     X:    -0.1656      Y:     1.3863      Z:     0.2015     Total:     1.4106

*** Psi4 exiting successfully. Buy a developer a beer!
