                               Psi4 1.3.2 release

  ==> Input File <==

--------------------------------------------------------------------------
#psi4
#
memory 32 gb

molecule  {
0 1
  O        3.1501630     0.3869830     0.0122970
  O        1.7226580    -1.3643080    -0.2059640
  C       -2.9163610     0.3476720    -0.5022120
  C       -1.4960630     0.8252950    -0.4074400
  C        0.8585340     0.8235180     0.4136200
  C       -0.7096035     0.1871036     0.3147904
  C       -3.2476580    -0.8824200     0.3361610
  C        1.9107340    -0.1856640     0.0271730
  H       -3.5825680     1.1749950    -0.2170990
  H       -3.1475630     0.1432210    -1.5599470
  H       -1.2553160     1.7190160    -0.9933200
  H        0.9787830     1.7133270    -0.2211670
  H        1.0972480     1.1531100     1.4329360
  H       -0.7130820    -0.6444280     0.9033180
  H       -4.2956480    -1.1625270     0.2123440
  H       -2.6314050    -1.7369230     0.0388270
  H       -3.0739380    -0.6897760     1.4001060
  H        3.7686820    -0.3352680    -0.2293440
units angstrom
no_reorient  #important for SAPT in psi4, default
symmetry c1  #important for SAPT in psi4, default
}

set PROPERTIES_ORIGIN ["COM"]
properties('MP2/aug-cc-pvtz', properties = ['dipole'])
--------------------------------------------------------------------------

    Molecular point group: c1
  Charge       = 0
  Multiplicity = 1
  Basis Set: AUG-CC-PVTZ
    Blend: AUG-CC-PVTZ
  Basis Set: (AUG-CC-PVTZ AUX)
    Blend: AUG-CC-PVTZ-JKFIT

    Orbital Energies [Eh]
    ---------------------

    Doubly Occupied:

       1A    -20.613127     2A    -20.549531     3A    -11.387418
       4A    -11.254168     5A    -11.228521     6A    -11.225945
       7A    -11.223201     8A    -11.214904     9A     -1.455694
      10A     -1.355114    11A     -1.112595    12A     -1.027388
      13A     -0.971158    14A     -0.868649    15A     -0.799632
      16A     -0.752570    17A     -0.700645    18A     -0.673827
      19A     -0.646429    20A     -0.629876    21A     -0.619708
      22A     -0.613211    23A     -0.579190    24A     -0.550433
      25A     -0.516124    26A     -0.499108    27A     -0.496749
      28A     -0.481171    29A     -0.453157    30A     -0.439879
      31A     -0.383674

  @DF-RHF Final Energy:  -382.86841933246103

   => Energetics <=

    Nuclear Repulsion Energy =            354.8110954664117003
    One-Electron Energy =               -1224.7134350607732358
    Two-Electron Energy =                 487.0339202619005619
    Total Energy =                       -382.8684193324610305
  Basis Set: (AUG-CC-PVTZ AUX)
    Blend: AUG-CC-PVTZ-RI
    Molecular point group: c1

    Geometry (in Angstrom), charge = 0, multiplicity = 1:

       Center              X                  Y                   Z               Mass
    ------------   -----------------  -----------------  -----------------  -----------------
         O            3.169625503762     0.394881645228     0.013523681802    15.994914619570
         O            1.742120503762    -1.356409354772    -0.204737318198    15.994914619570
         C           -2.896898496238     0.355570645228    -0.500985318198    12.000000000000
         C           -1.476600496238     0.833193645228    -0.406213318198    12.000000000000
         C            0.877996503762     0.831416645228     0.414846681802    12.000000000000
         C           -0.690140996238     0.195002245228     0.316017081802    12.000000000000
         C           -3.228195496238    -0.874521354772     0.337387681802    12.000000000000
         C            1.930196503762    -0.177765354772     0.028399681802    12.000000000000
         H           -3.563105496238     1.182893645228    -0.215872318198     1.007825032230
         H           -3.128100496238     0.151119645228    -1.558720318198     1.007825032230
         H           -1.235853496238     1.726914645228    -0.992093318198     1.007825032230
         H            0.998245503762     1.721225645228    -0.219940318198     1.007825032230
         H            1.116710503762     1.161008645228     1.434162681802     1.007825032230
         H           -0.693619496238    -0.636529354772     0.904544681802     1.007825032230
         H           -4.276185496238    -1.154628354772     0.213570681802     1.007825032230
         H           -2.611942496238    -1.729024354772     0.040053681802     1.007825032230
         H           -3.054475496238    -0.681877354772     1.401332681802     1.007825032230
         H            3.788144503762    -0.327369354772    -0.228117318198     1.007825032230

  Basis Set: AUG-CC-PVTZ
    Blend: AUG-CC-PVTZ
  Basis Set: (AUG-CC-PVTZ AUX)
    Blend: AUG-CC-PVTZ-JKFIT
	 Reference Energy          =    -382.8684193324610305 [Eh]
	 Singles Energy            =      -0.0000000000000000 [Eh]
	 Same-Spin Energy          =      -0.3823613613085342 [Eh]
	 Opposite-Spin Energy      =      -1.2534224981861195 [Eh]
	 Correlation Energy        =      -1.6357838594946537 [Eh]
	 Total Energy              =    -384.5042031919556962 [Eh]

	 ================> DF-SCS-MP2 Energies <==================
	-----------------------------------------------------------
	 SCS Same-Spin Scale       =       0.3333333333333333 [-]
	 SCS Opposite-Spin Scale   =       1.2000000000000000 [-]
	 SCS Same-Spin Energy      =      -0.1274537871028447 [Eh]
	 SCS Opposite-Spin Energy  =      -1.5041069978233435 [Eh]
	 SCS Correlation Energy    =      -1.6315607849261882 [Eh]
	 SCS Total Energy          =    -384.4999801173872243 [Eh]
	-----------------------------------------------------------

  Dipole Moment: [D]
     X:    -0.3408      Y:     1.3961      Z:     0.1953     Total:     1.4503

*** Psi4 exiting successfully. Buy a developer a beer!
