                               Psi4 1.3.2 release

  ==> Input File <==

--------------------------------------------------------------------------
#psi4
#
memory 32 gb

molecule  {
0 1
  O        3.1501630     0.3869830     0.0122970
  O        1.7226580    -1.3643080    -0.2059640
  C       -2.9163610     0.3476720    -0.5022120
  C       -1.4960630     0.8252950    -0.4074400
  C        0.8361378     0.8807700     0.3651572
  C       -0.5245990     0.2621860     0.3264500
  C       -3.2476580    -0.8824200     0.3361610
  C        1.9107340    -0.1856640     0.0271730
  H       -3.5825680     1.1749950    -0.2170990
  H       -3.1475630     0.1432210    -1.5599470
  H       -1.2553160     1.7190160    -0.9933200
  H        0.9787830     1.7133270    -0.2211670
  H        1.0972480     1.1531100     1.4329360
  H       -0.7668241    -0.6437567     0.8839860
  H       -4.2956480    -1.1625270     0.2123440
  H       -2.6314050    -1.7369230     0.0388270
  H       -3.0739380    -0.6897760     1.4001060
  H        3.7686820    -0.3352680    -0.2293440
units angstrom
no_reorient  #important for SAPT in psi4, default
symmetry c1  #important for SAPT in psi4, default
}

set PROPERTIES_ORIGIN ["COM"]
properties('MP2/aug-cc-pvtz', properties = ['dipole'])
--------------------------------------------------------------------------

    Molecular point group: c1
  Charge       = 0
  Multiplicity = 1
  Basis Set: AUG-CC-PVTZ
    Blend: AUG-CC-PVTZ
  Basis Set: (AUG-CC-PVTZ AUX)
    Blend: AUG-CC-PVTZ-JKFIT

    Orbital Energies [Eh]
    ---------------------

    Doubly Occupied:

       1A    -20.615427     2A    -20.553409     3A    -11.391588
       4A    -11.255685     5A    -11.233373     6A    -11.231527
       7A    -11.229329     8A    -11.215185     9A     -1.457662
      10A     -1.357665    11A     -1.103415    12A     -1.043223
      13A     -0.957543    14A     -0.868905    15A     -0.806535
      16A     -0.742849    17A     -0.702727    18A     -0.677650
      19A     -0.649821    20A     -0.631378    21A     -0.612094
      22A     -0.600323    23A     -0.574466    24A     -0.551378
      25A     -0.541080    26A     -0.498334    27A     -0.489264
      28A     -0.486468    29A     -0.480290    30A     -0.453094
      31A     -0.351530

  @DF-RHF Final Energy:  -382.89623338930897

   => Energetics <=

    Nuclear Repulsion Energy =            354.6768876884725046
    One-Electron Energy =               -1224.4198042903285568
    Two-Electron Energy =                 486.8466832125470205
    Total Energy =                       -382.8962333893089749
  Basis Set: (AUG-CC-PVTZ AUX)
    Blend: AUG-CC-PVTZ-RI
    Molecular point group: c1

    Geometry (in Angstrom), charge = 0, multiplicity = 1:

       Center              X                  Y                   Z               Mass
    ------------   -----------------  -----------------  -----------------  -----------------
         O            3.152993883649     0.380954091095     0.017566194618    15.994914619570
         O            1.725488883649    -1.370336908905    -0.200694805382    15.994914619570
         C           -2.913530116351     0.341643091095    -0.496942805382    12.000000000000
         C           -1.493232116351     0.819266091095    -0.402170805382    12.000000000000
         C            0.838968683649     0.874741091095     0.370426394618    12.000000000000
         C           -0.521768116351     0.256157091095     0.331719194618    12.000000000000
         C           -3.244827116351    -0.888448908905     0.341430194618    12.000000000000
         C            1.913564883649    -0.191692908905     0.032442194618    12.000000000000
         H           -3.579737116351     1.168966091095    -0.211829805382     1.007825032230
         H           -3.144732116351     0.137192091095    -1.554677805382     1.007825032230
         H           -1.252485116351     1.712987091095    -0.988050805382     1.007825032230
         H            0.981613883649     1.707298091095    -0.215897805382     1.007825032230
         H            1.100078883649     1.147081091095     1.438205194618     1.007825032230
         H           -0.763993216351    -0.649785608905     0.889255194618     1.007825032230
         H           -4.292817116351    -1.168555908905     0.217613194618     1.007825032230
         H           -2.628574116351    -1.742951908905     0.044096194618     1.007825032230
         H           -3.071107116351    -0.695804908905     1.405375194618     1.007825032230
         H            3.771512883649    -0.341296908905    -0.224074805382     1.007825032230

  Basis Set: AUG-CC-PVTZ
    Blend: AUG-CC-PVTZ
  Basis Set: (AUG-CC-PVTZ AUX)
    Blend: AUG-CC-PVTZ-JKFIT
	 Reference Energy          =    -382.8962333893089749 [Eh]
	 Singles Energy            =      -0.0000000000000000 [Eh]
	 Same-Spin Energy          =      -0.3832019140386518 [Eh]
	 Opposite-Spin Energy      =      -1.2546692149414080 [Eh]
	 Correlation Energy        =      -1.6378711289800598 [Eh]
	 Total Energy              =    -384.5341045182890412 [Eh]

	 ================> DF-SCS-MP2 Energies <==================
	-----------------------------------------------------------
	 SCS Same-Spin Scale       =       0.3333333333333333 [-]
	 SCS Opposite-Spin Scale   =       1.2000000000000000 [-]
	 SCS Same-Spin Energy      =      -0.1277339713462173 [Eh]
	 SCS Opposite-Spin Energy  =      -1.5056030579296895 [Eh]
	 SCS Correlation Energy    =      -1.6333370292759068 [Eh]
	 SCS Total Energy          =    -384.5295704185848535 [Eh]
	-----------------------------------------------------------

  Dipole Moment: [D]
     X:    -0.1646      Y:     1.3722      Z:     0.1651     Total:     1.3919

*** Psi4 exiting successfully. Buy a developer a beer!
