                               Psi4 1.3.2 release

  ==> Input File <==

--------------------------------------------------------------------------
#psi4
#
memory 32 gb

molecule  {
0 1
  O        3.1501630     0.3869830     0.0122970
  O        1.7226580    -1.3643080    -0.2059640
  C       -2.9163610     0.3476720    -0.5022120
  C       -1.4960630     0.8252950    -0.4074400
  C        0.8550630     0.8331711     0.4055559
  C       -0.5245990     0.2621860     0.3264500
  C       -3.2476580    -0.8824200     0.3361610
  C        1.9107340    -0.1856640     0.0271730
  H       -3.5825680     1.1749950    -0.2170990
  H       -3.1475630     0.1432210    -1.5599470
  H       -1.2553160     1.7190160    -0.9933200
  H        0.9787830     1.7133270    -0.2211670
  H        1.0972480     1.1531100     1.4329360
  H       -0.7220789    -0.6444887     0.9002044
  H       -4.2956480    -1.1625270     0.2123440
  H       -2.6314050    -1.7369230     0.0388270
  H       -3.0739380    -0.6897760     1.4001060
  H        3.7686820    -0.3352680    -0.2293440
units angstrom
no_reorient  #important for SAPT in psi4, default
symmetry c1  #important for SAPT in psi4, default
}

set PROPERTIES_ORIGIN ["COM"]
properties('MP2/aug-cc-pvtz', properties = ['dipole'])
--------------------------------------------------------------------------

    Molecular point group: c1
  Charge       = 0
  Multiplicity = 1
  Basis Set: AUG-CC-PVTZ
    Blend: AUG-CC-PVTZ
  Basis Set: (AUG-CC-PVTZ AUX)
    Blend: AUG-CC-PVTZ-JKFIT

    Orbital Energies [Eh]
    ---------------------

    Doubly Occupied:

       1A    -20.615698     2A    -20.552910     3A    -11.390681
       4A    -11.254379     5A    -11.235116     6A    -11.232153
       7A    -11.229948     8A    -11.214819     9A     -1.458480
      10A     -1.358068    11A     -1.103119    12A     -1.045067
      13A     -0.959753    14A     -0.869988    15A     -0.805935
      16A     -0.739637    17A     -0.702908    18A     -0.681442
      19A     -0.653576    20A     -0.626902    21A     -0.612111
      22A     -0.599096    23A     -0.581035    24A     -0.552480
      25A     -0.530504    26A     -0.498215    27A     -0.490995
      28A     -0.485252    29A     -0.480355    30A     -0.455424
      31A     -0.353645

  @DF-RHF Final Energy:  -382.90306329758704

   => Energetics <=

    Nuclear Repulsion Energy =            355.0069169038259815
    One-Electron Energy =               -1225.0805759217007562
    Two-Electron Energy =                 487.1705957202877357
    Total Energy =                       -382.9030632975870390
  Basis Set: (AUG-CC-PVTZ AUX)
    Blend: AUG-CC-PVTZ-RI
    Molecular point group: c1

    Geometry (in Angstrom), charge = 0, multiplicity = 1:

       Center              X                  Y                   Z               Mass
    ------------   -----------------  -----------------  -----------------  -----------------
         O            3.150607609297     0.385967978680     0.013172943575    15.994914619570
         O            1.723102609297    -1.365323021320    -0.205088056425    15.994914619570
         C           -2.915916390703     0.346656978680    -0.501336056425    12.000000000000
         C           -1.495618390703     0.824279978680    -0.406564056425    12.000000000000
         C            0.855507609297     0.832156078680     0.406431843575    12.000000000000
         C           -0.524154390703     0.261170978680     0.327325943575    12.000000000000
         C           -3.247213390703    -0.883435021320     0.337036943575    12.000000000000
         C            1.911178609297    -0.186679021320     0.028048943575    12.000000000000
         H           -3.582123390703     1.173979978680    -0.216223056425     1.007825032230
         H           -3.147118390703     0.142205978680    -1.559071056425     1.007825032230
         H           -1.254871390703     1.718000978680    -0.992444056425     1.007825032230
         H            0.979227609297     1.712311978680    -0.220291056425     1.007825032230
         H            1.097692609297     1.152094978680     1.433811943575     1.007825032230
         H           -0.721634290703    -0.645503721320     0.901080343575     1.007825032230
         H           -4.295203390703    -1.163542021320     0.213219943575     1.007825032230
         H           -2.630960390703    -1.737938021320     0.039702943575     1.007825032230
         H           -3.073493390703    -0.690791021320     1.400981943575     1.007825032230
         H            3.769126609297    -0.336283021320    -0.228468056425     1.007825032230

  Basis Set: AUG-CC-PVTZ
    Blend: AUG-CC-PVTZ
  Basis Set: (AUG-CC-PVTZ AUX)
    Blend: AUG-CC-PVTZ-JKFIT
	 Reference Energy          =    -382.9030632975870390 [Eh]
	 Singles Energy            =      -0.0000000000000000 [Eh]
	 Same-Spin Energy          =      -0.3831166412069229 [Eh]
	 Opposite-Spin Energy      =      -1.2544808745322458 [Eh]
	 Correlation Energy        =      -1.6375975157391687 [Eh]
	 Total Energy              =    -384.5406608133262125 [Eh]

	 ================> DF-SCS-MP2 Energies <==================
	-----------------------------------------------------------
	 SCS Same-Spin Scale       =       0.3333333333333333 [-]
	 SCS Opposite-Spin Scale   =       1.2000000000000000 [-]
	 SCS Same-Spin Energy      =      -0.1277055470689743 [Eh]
	 SCS Opposite-Spin Energy  =      -1.5053770494386949 [Eh]
	 SCS Correlation Energy    =      -1.6330825965076692 [Eh]
	 SCS Total Energy          =    -384.5361458940947159 [Eh]
	-----------------------------------------------------------

  Dipole Moment: [D]
     X:    -0.1740      Y:     1.3887      Z:     0.1998     Total:     1.4138

*** Psi4 exiting successfully. Buy a developer a beer!
