                               Psi4 1.3.2 release

  ==> Input File <==

--------------------------------------------------------------------------
#psi4
#
memory 32 gb

molecule  {
0 1
  O        3.1501630     0.3869830     0.0122970
  O        1.7226580    -1.3643080    -0.2059640
  C       -2.9163610     0.3476720    -0.5022120
  C       -1.5250969     0.7912554    -0.3936320
  C        0.8714252     0.7843577     0.4456232
  C       -0.5245990     0.2621860     0.3264500
  C       -3.2476580    -0.8824200     0.3361610
  C        1.9107340    -0.1856640     0.0271730
  H       -3.5825680     1.1749950    -0.2170990
  H       -3.1475630     0.1432210    -1.5599470
  H       -1.2553160     1.7190160    -0.9933200
  H        0.9787830     1.7133270    -0.2211670
  H        1.0972480     1.1531100     1.4329360
  H       -0.7130820    -0.6444280     0.9033180
  H       -4.2956480    -1.1625270     0.2123440
  H       -2.6314050    -1.7369230     0.0388270
  H       -3.0739380    -0.6897760     1.4001060
  H        3.7686820    -0.3352680    -0.2293440
units angstrom
no_reorient  #important for SAPT in psi4, default
symmetry c1  #important for SAPT in psi4, default
}

set PROPERTIES_ORIGIN ["COM"]
properties('MP2/aug-cc-pvtz', properties = ['dipole'])
--------------------------------------------------------------------------

    Molecular point group: c1
  Charge       = 0
  Multiplicity = 1
  Basis Set: AUG-CC-PVTZ
    Blend: AUG-CC-PVTZ
  Basis Set: (AUG-CC-PVTZ AUX)
    Blend: AUG-CC-PVTZ-JKFIT

    Orbital Energies [Eh]
    ---------------------

    Doubly Occupied:

       1A    -20.616233     2A    -20.552410     3A    -11.390327
       4A    -11.256283     5A    -11.238645     6A    -11.232552
       7A    -11.229767     8A    -11.214809     9A     -1.459491
      10A     -1.358595    11A     -1.105857    12A     -1.051449
      13A     -0.961776    14A     -0.875090    15A     -0.807645
      16A     -0.730756    17A     -0.702726    18A     -0.687015
      19A     -0.658327    20A     -0.626647    21A     -0.615150
      22A     -0.594926    23A     -0.586546    24A     -0.555081
      25A     -0.518617    26A     -0.500372    27A     -0.498726
      28A     -0.482690    29A     -0.472047    30A     -0.457192
      31A     -0.354614

  @DF-RHF Final Energy:  -382.89645846404244

   => Energetics <=

    Nuclear Repulsion Energy =            355.6386815792482707
    One-Electron Energy =               -1226.2855641651945007
    Two-Electron Energy =                 487.7504241219038477
    Total Energy =                       -382.8964584640424391
  Basis Set: (AUG-CC-PVTZ AUX)
    Blend: AUG-CC-PVTZ-RI
    Molecular point group: c1

    Geometry (in Angstrom), charge = 0, multiplicity = 1:

       Center              X                  Y                   Z               Mass
    ------------   -----------------  -----------------  -----------------  -----------------
         O            3.151861186104     0.394683605600     0.007477734481    15.994914619570
         O            1.724356186104    -1.356607394400    -0.210783265519    15.994914619570
         C           -2.914662813896     0.355372605600    -0.507031265519    12.000000000000
         C           -1.523398713896     0.798956005600    -0.398451265519    12.000000000000
         C            0.873123386104     0.792058305600     0.440803934481    12.000000000000
         C           -0.522900813896     0.269886605600     0.321630734481    12.000000000000
         C           -3.245959813896    -0.874719394400     0.331341734481    12.000000000000
         C            1.912432186104    -0.177963394400     0.022353734481    12.000000000000
         H           -3.580869813896     1.182695605600    -0.221918265519     1.007825032230
         H           -3.145864813896     0.150921605600    -1.564766265519     1.007825032230
         H           -1.253617813896     1.726716605600    -0.998139265519     1.007825032230
         H            0.980481186104     1.721027605600    -0.225986265519     1.007825032230
         H            1.098946186104     1.160810605600     1.428116734481     1.007825032230
         H           -0.711383813896    -0.636727394400     0.898498734481     1.007825032230
         H           -4.293949813896    -1.154826394400     0.207524734481     1.007825032230
         H           -2.629706813896    -1.729222394400     0.034007734481     1.007825032230
         H           -3.072239813896    -0.682075394400     1.395286734481     1.007825032230
         H            3.770380186104    -0.327567394400    -0.234163265519     1.007825032230

  Basis Set: AUG-CC-PVTZ
    Blend: AUG-CC-PVTZ
  Basis Set: (AUG-CC-PVTZ AUX)
    Blend: AUG-CC-PVTZ-JKFIT
	 Reference Energy          =    -382.8964584640424391 [Eh]
	 Singles Energy            =      -0.0000000000000000 [Eh]
	 Same-Spin Energy          =      -0.3837802115992104 [Eh]
	 Opposite-Spin Energy      =      -1.2554921407832729 [Eh]
	 Correlation Energy        =      -1.6392723523824833 [Eh]
	 Total Energy              =    -384.5357308164249162 [Eh]

	 ================> DF-SCS-MP2 Energies <==================
	-----------------------------------------------------------
	 SCS Same-Spin Scale       =       0.3333333333333333 [-]
	 SCS Opposite-Spin Scale   =       1.2000000000000000 [-]
	 SCS Same-Spin Energy      =      -0.1279267371997368 [Eh]
	 SCS Opposite-Spin Energy  =      -1.5065905689399275 [Eh]
	 SCS Correlation Energy    =      -1.6345173061396643 [Eh]
	 SCS Total Energy          =    -384.5309757701821241 [Eh]
	-----------------------------------------------------------

  Dipole Moment: [D]
     X:    -0.2362      Y:     1.3753      Z:     0.2355     Total:     1.4152

*** Psi4 exiting successfully. Buy a developer a beer!
