                               Psi4 1.3.2 release

  ==> Input File <==

--------------------------------------------------------------------------
#psi4
#
memory 32 gb

molecule  {
0 1
  O        3.1404144     0.4077541     0.0187326
  O        1.7226580    -1.3643080    -0.2059640
  C       -2.9163610     0.3476720    -0.5022120
  C       -1.4960630     0.8252950    -0.4074400
  C        0.8772752     0.8418727     0.4158189
  C       -0.5245990     0.2621860     0.3264500
  C       -3.2476580    -0.8824200     0.3361610
  C        1.9107340    -0.1856640     0.0271730
  H       -3.5825680     1.1749950    -0.2170990
  H       -3.1475630     0.1432210    -1.5599470
  H       -1.2553160     1.7190160    -0.9933200
  H        0.9787830     1.7133270    -0.2211670
  H        1.0972480     1.1531100     1.4329360
  H       -0.7130820    -0.6444280     0.9033180
  H       -4.2956480    -1.1625270     0.2123440
  H       -2.6314050    -1.7369230     0.0388270
  H       -3.0739380    -0.6897760     1.4001060
  H        3.7686820    -0.3352680    -0.2293440
units angstrom
no_reorient  #important for SAPT in psi4, default
symmetry c1  #important for SAPT in psi4, default
}

set PROPERTIES_ORIGIN ["COM"]
properties('MP2/aug-cc-pvtz', properties = ['dipole'])
--------------------------------------------------------------------------

    Molecular point group: c1
  Charge       = 0
  Multiplicity = 1
  Basis Set: AUG-CC-PVTZ
    Blend: AUG-CC-PVTZ
  Basis Set: (AUG-CC-PVTZ AUX)
    Blend: AUG-CC-PVTZ-JKFIT

    Orbital Energies [Eh]
    ---------------------

    Doubly Occupied:

       1A    -20.618276     2A    -20.554906     3A    -11.390898
       4A    -11.252260     5A    -11.234633     6A    -11.232676
       7A    -11.229527     8A    -11.214400     9A     -1.456771
      10A     -1.358297    11A     -1.100389    12A     -1.044171
      13A     -0.959798    14A     -0.868165    15A     -0.801701
      16A     -0.738570    17A     -0.702624    18A     -0.681175
      19A     -0.655524    20A     -0.624098    21A     -0.611664
      22A     -0.598818    23A     -0.582325    24A     -0.552969
      25A     -0.527572    26A     -0.497791    27A     -0.490525
      28A     -0.486018    29A     -0.479014    30A     -0.456593
      31A     -0.353658

  @DF-RHF Final Energy:  -382.90006453559613

   => Energetics <=

    Nuclear Repulsion Energy =            354.7891109356176003
    One-Electron Energy =               -1224.6667393220752729
    Two-Electron Energy =                 486.9775638508615430
    Total Energy =                       -382.9000645355961296
  Basis Set: (AUG-CC-PVTZ AUX)
    Blend: AUG-CC-PVTZ-RI
    Molecular point group: c1

    Geometry (in Angstrom), charge = 0, multiplicity = 1:

       Center              X                  Y                   Z               Mass
    ------------   -----------------  -----------------  -----------------  -----------------
         O            3.139809761542     0.402910554979     0.017598946872    15.994914619570
         O            1.722053361542    -1.369151545021    -0.207097653128    15.994914619570
         C           -2.916965638458     0.342828454979    -0.503345653128    12.000000000000
         C           -1.496667638458     0.820451454979    -0.408573653128    12.000000000000
         C            0.876670561542     0.837029154979     0.414685246872    12.000000000000
         C           -0.525203638458     0.257342454979     0.325316346872    12.000000000000
         C           -3.248262638458    -0.887263545021     0.335027346872    12.000000000000
         C            1.910129361542    -0.190507545021     0.026039346872    12.000000000000
         H           -3.583172638458     1.170151454979    -0.218232653128     1.007825032230
         H           -3.148167638458     0.138377454979    -1.561080653128     1.007825032230
         H           -1.255920638458     1.714172454979    -0.994453653128     1.007825032230
         H            0.978178361542     1.708483454979    -0.222300653128     1.007825032230
         H            1.096643361542     1.148266454979     1.431802346872     1.007825032230
         H           -0.713686638458    -0.649271545021     0.902184346872     1.007825032230
         H           -4.296252638458    -1.167370545021     0.211210346872     1.007825032230
         H           -2.632009638458    -1.741766545021     0.037693346872     1.007825032230
         H           -3.074542638458    -0.694619545021     1.398972346872     1.007825032230
         H            3.768077361542    -0.340111545021    -0.230477653128     1.007825032230

  Basis Set: AUG-CC-PVTZ
    Blend: AUG-CC-PVTZ
  Basis Set: (AUG-CC-PVTZ AUX)
    Blend: AUG-CC-PVTZ-JKFIT
	 Reference Energy          =    -382.9000645355961296 [Eh]
	 Singles Energy            =      -0.0000000000000000 [Eh]
	 Same-Spin Energy          =      -0.3834392947889601 [Eh]
	 Opposite-Spin Energy      =      -1.2554690961106376 [Eh]
	 Correlation Energy        =      -1.6389083908995976 [Eh]
	 Total Energy              =    -384.5389729264957168 [Eh]

	 ================> DF-SCS-MP2 Energies <==================
	-----------------------------------------------------------
	 SCS Same-Spin Scale       =       0.3333333333333333 [-]
	 SCS Opposite-Spin Scale   =       1.2000000000000000 [-]
	 SCS Same-Spin Energy      =      -0.1278130982629867 [Eh]
	 SCS Opposite-Spin Energy  =      -1.5065629153327651 [Eh]
	 SCS Correlation Energy    =      -1.6343760135957517 [Eh]
	 SCS Total Energy          =    -384.5344405491918565 [Eh]
	-----------------------------------------------------------

  Dipole Moment: [D]
     X:    -0.1156      Y:     1.3565      Z:     0.1991     Total:     1.3759

*** Psi4 exiting successfully. Buy a developer a beer!
