                               Psi4 1.3.2 release

  ==> Input File <==

--------------------------------------------------------------------------
#psi4
#
memory 32 gb

molecule  {
0 1
  O        3.1501630     0.3869830     0.0122970
  O        1.7226580    -1.3643080    -0.2059640
  C       -2.9163610     0.3476720    -0.5022120
  C       -1.5906581     0.7934842    -0.4137520
  C        0.8585340     0.8235180     0.4136200
  C       -0.5245990     0.2621860     0.3264500
  C       -3.2476580    -0.8824200     0.3361610
  C        1.9107340    -0.1856640     0.0271730
  H       -3.5825680     1.1749950    -0.2170990
  H       -3.1475630     0.1432210    -1.5599470
  H       -1.2553160     1.7190160    -0.9933200
  H        0.9787830     1.7133270    -0.2211670
  H        1.0972480     1.1531100     1.4329360
  H       -0.7130820    -0.6444280     0.9033180
  H       -4.2956480    -1.1625270     0.2123440
  H       -2.6314050    -1.7369230     0.0388270
  H       -3.0739380    -0.6897760     1.4001060
  H        3.7686820    -0.3352680    -0.2293440
units angstrom
no_reorient  #important for SAPT in psi4, default
symmetry c1  #important for SAPT in psi4, default
}

set PROPERTIES_ORIGIN ["COM"]
properties('MP2/aug-cc-pvtz', properties = ['dipole'])
--------------------------------------------------------------------------

    Molecular point group: c1
  Charge       = 0
  Multiplicity = 1
  Basis Set: AUG-CC-PVTZ
    Blend: AUG-CC-PVTZ
  Basis Set: (AUG-CC-PVTZ AUX)
    Blend: AUG-CC-PVTZ-JKFIT

    Orbital Energies [Eh]
    ---------------------

    Doubly Occupied:

       1A    -20.616010     2A    -20.552664     3A    -11.390923
       4A    -11.256455     5A    -11.244018     6A    -11.239097
       7A    -11.226732     8A    -11.216229     9A     -1.458752
      10A     -1.358096    11A     -1.106143    12A     -1.054928
      13A     -0.951971    14A     -0.880884    15A     -0.805279
      16A     -0.731501    17A     -0.701985    18A     -0.682846
      19A     -0.656635    20A     -0.632631    21A     -0.619627
      22A     -0.593110    23A     -0.580996    24A     -0.553933
      25A     -0.527764    26A     -0.506694    27A     -0.503638
      28A     -0.483290    29A     -0.470625    30A     -0.456171
      31A     -0.336903

  @DF-RHF Final Energy:  -382.88569095276745

   => Energetics <=

    Nuclear Repulsion Energy =            355.0104909381781226
    One-Electron Energy =               -1224.9993010962116387
    Two-Electron Energy =                 487.1031192052660685
    Total Energy =                       -382.8856909527674475
  Basis Set: (AUG-CC-PVTZ AUX)
    Blend: AUG-CC-PVTZ-RI
    Molecular point group: c1

    Geometry (in Angstrom), charge = 0, multiplicity = 1:

       Center              X                  Y                   Z               Mass
    ------------   -----------------  -----------------  -----------------  -----------------
         O            3.160114404740     0.390329458481     0.012961112499    15.994914619570
         O            1.732609404740    -1.360961541519    -0.205299887501    15.994914619570
         C           -2.906409595260     0.351018458481    -0.501547887501    12.000000000000
         C           -1.580706695260     0.796830658481    -0.413087887501    12.000000000000
         C            0.868485404740     0.826864458481     0.414284112499    12.000000000000
         C           -0.514647595260     0.265532458481     0.327114112499    12.000000000000
         C           -3.237706595260    -0.879073541519     0.336825112499    12.000000000000
         C            1.920685404740    -0.182317541519     0.027837112499    12.000000000000
         H           -3.572616595260     1.178341458481    -0.216434887501     1.007825032230
         H           -3.137611595260     0.146567458481    -1.559282887501     1.007825032230
         H           -1.245364595260     1.722362458481    -0.992655887501     1.007825032230
         H            0.988734404740     1.716673458481    -0.220502887501     1.007825032230
         H            1.107199404740     1.156456458481     1.433600112499     1.007825032230
         H           -0.703130595260    -0.641081541519     0.903982112499     1.007825032230
         H           -4.285696595260    -1.159180541519     0.213008112499     1.007825032230
         H           -2.621453595260    -1.733576541519     0.039491112499     1.007825032230
         H           -3.063986595260    -0.686429541519     1.400770112499     1.007825032230
         H            3.778633404740    -0.331921541519    -0.228679887501     1.007825032230

  Basis Set: AUG-CC-PVTZ
    Blend: AUG-CC-PVTZ
  Basis Set: (AUG-CC-PVTZ AUX)
    Blend: AUG-CC-PVTZ-JKFIT
	 Reference Energy          =    -382.8856909527674475 [Eh]
	 Singles Energy            =      -0.0000000000000000 [Eh]
	 Same-Spin Energy          =      -0.3851037627451850 [Eh]
	 Opposite-Spin Energy      =      -1.2576798797250355 [Eh]
	 Correlation Energy        =      -1.6427836424702205 [Eh]
	 Total Energy              =    -384.5284745952376397 [Eh]

	 ================> DF-SCS-MP2 Energies <==================
	-----------------------------------------------------------
	 SCS Same-Spin Scale       =       0.3333333333333333 [-]
	 SCS Opposite-Spin Scale   =       1.2000000000000000 [-]
	 SCS Same-Spin Energy      =      -0.1283679209150617 [Eh]
	 SCS Opposite-Spin Energy  =      -1.5092158556700426 [Eh]
	 SCS Correlation Energy    =      -1.6375837765851042 [Eh]
	 SCS Total Energy          =    -384.5232747293525790 [Eh]
	-----------------------------------------------------------

  Dipole Moment: [D]
     X:    -0.2818      Y:     1.3541      Z:     0.1868     Total:     1.3957

*** Psi4 exiting successfully. Buy a developer a beer!
