                               Psi4 1.3.2 release

  ==> Input File <==

--------------------------------------------------------------------------
#psi4
#
memory 32 gb

molecule  {
0 1
  O        3.1501630     0.3869830     0.0122970
  O        1.7226580    -1.3643080    -0.2059640
  C       -2.9163610     0.3476720    -0.5022120
  C       -1.4960630     0.8252950    -0.4074400
  C        0.8585340     0.8235180     0.4136200
  C       -0.5245990     0.2621860     0.3264500
  C       -3.2476580    -0.8824200     0.3361610
  C        1.9107340    -0.1856640     0.0271730
  H       -3.5825680     1.1749950    -0.2170990
  H       -3.1475630     0.1432210    -1.5599470
  H       -1.2553160     1.7190160    -0.9933200
  H        0.9787830     1.7133270    -0.2211670
  H        1.0972480     1.1531100     1.4329360
  H       -0.7130820    -0.6444280     0.9033180
  H       -4.2956480    -1.1625270     0.2123440
  H       -2.6314050    -1.7369230     0.0388270
  H       -3.0739380    -0.6897760     1.4001060
  H        3.6425981    -0.1880386    -0.1800860
units angstrom
no_reorient  #important for SAPT in psi4, default
symmetry c1  #important for SAPT in psi4, default
}

set PROPERTIES_ORIGIN ["COM"]
properties('MP2/aug-cc-pvtz', properties = ['dipole'])
--------------------------------------------------------------------------

    Molecular point group: c1
  Charge       = 0
  Multiplicity = 1
  Basis Set: AUG-CC-PVTZ
    Blend: AUG-CC-PVTZ
  Basis Set: (AUG-CC-PVTZ AUX)
    Blend: AUG-CC-PVTZ-JKFIT

    Orbital Energies [Eh]
    ---------------------

    Doubly Occupied:

       1A    -20.598658     2A    -20.556924     3A    -11.394448
       4A    -11.255410     5A    -11.236531     6A    -11.233202
       7A    -11.230773     8A    -11.215358     9A     -1.503299
      10A     -1.378718    11A     -1.105203    12A     -1.049794
      13A     -0.968524    14A     -0.884581    15A     -0.833624
      16A     -0.740395    17A     -0.720353    18A     -0.687423
      19A     -0.658953    20A     -0.630627    21A     -0.613068
      22A     -0.603502    23A     -0.591938    24A     -0.556009
      25A     -0.529524    26A     -0.498879    27A     -0.493078
      28A     -0.488915    29A     -0.482236    30A     -0.459381
      31A     -0.355144

  @DF-RHF Final Energy:  -382.86029802511337

   => Energetics <=

    Nuclear Repulsion Energy =            356.4897381734215855
    One-Electron Energy =               -1227.5911264378589749
    Two-Electron Energy =                 488.2410902393240804
    Total Energy =                       -382.8602980251133658
  Basis Set: (AUG-CC-PVTZ AUX)
    Blend: AUG-CC-PVTZ-RI
    Molecular point group: c1

    Geometry (in Angstrom), charge = 0, multiplicity = 1:

       Center              X                  Y                   Z               Mass
    ------------   -----------------  -----------------  -----------------  -----------------
         O            3.151276957022     0.385682136664     0.011861879077    15.994914619570
         O            1.723771957022    -1.365608863336    -0.206399120923    15.994914619570
         C           -2.915247042978     0.346371136664    -0.502647120923    12.000000000000
         C           -1.494949042978     0.823994136664    -0.407875120923    12.000000000000
         C            0.859647957022     0.822217136664     0.413184879077    12.000000000000
         C           -0.523485042978     0.260885136664     0.326014879077    12.000000000000
         C           -3.246544042978    -0.883720863336     0.335725879077    12.000000000000
         C            1.911847957022    -0.186964863336     0.026737879077    12.000000000000
         H           -3.581454042978     1.173694136664    -0.217534120923     1.007825032230
         H           -3.146449042978     0.141920136664    -1.560382120923     1.007825032230
         H           -1.254202042978     1.717715136664    -0.993755120923     1.007825032230
         H            0.979896957022     1.712026136664    -0.221602120923     1.007825032230
         H            1.098361957022     1.151809136664     1.432500879077     1.007825032230
         H           -0.711968042978    -0.645728863336     0.902882879077     1.007825032230
         H           -4.294534042978    -1.163827863336     0.211908879077     1.007825032230
         H           -2.630291042978    -1.738223863336     0.038391879077     1.007825032230
         H           -3.072824042978    -0.691076863336     1.399670879077     1.007825032230
         H            3.643712057022    -0.189339463336    -0.180521120923     1.007825032230

  Basis Set: AUG-CC-PVTZ
    Blend: AUG-CC-PVTZ
  Basis Set: (AUG-CC-PVTZ AUX)
    Blend: AUG-CC-PVTZ-JKFIT
	 Reference Energy          =    -382.8602980251133658 [Eh]
	 Singles Energy            =      -0.0000000000000000 [Eh]
	 Same-Spin Energy          =      -0.3806942820931575 [Eh]
	 Opposite-Spin Energy      =      -1.2492836010937982 [Eh]
	 Correlation Energy        =      -1.6299778831869558 [Eh]
	 Total Energy              =    -384.4902759083003048 [Eh]

	 ================> DF-SCS-MP2 Energies <==================
	-----------------------------------------------------------
	 SCS Same-Spin Scale       =       0.3333333333333333 [-]
	 SCS Opposite-Spin Scale   =       1.2000000000000000 [-]
	 SCS Same-Spin Energy      =      -0.1268980940310525 [Eh]
	 SCS Opposite-Spin Energy  =      -1.4991403213125578 [Eh]
	 SCS Correlation Energy    =      -1.6260384153436103 [Eh]
	 SCS Total Energy          =    -384.4863364404569666 [Eh]
	-----------------------------------------------------------

  Dipole Moment: [D]
     X:    -0.3966      Y:     1.5063      Z:     0.2575     Total:     1.5787

*** Psi4 exiting successfully. Buy a developer a beer!
