                               Psi4 1.4a3.dev225

  ==> Input File <==

--------------------------------------------------------------------------
#psi4
#
memory 32 gb

molecule  {
0 1
  O       -3.2271830    -0.3786580    -0.1569640
  O       -1.8275510     1.3993140    -0.2614160
  C        2.8225670    -0.4310850    -0.3953020
  C        1.4009980    -0.8942070    -0.2419560
  C       -0.9807690    -0.7586230     0.4926230
  C        0.4143070    -0.2269140     0.3719860
  C        3.1298050     0.9339520     0.2103920
  C       -1.9976954     0.2065963    -0.0124359
  H        3.4859920    -1.1868430     0.0468460
  H        3.0699840    -0.4203720    -1.4654230
  H        1.1737130    -1.8673930    -0.6818980
  H       -1.0998220    -1.7054460    -0.0447970
  H       -1.2414610    -0.9681590     1.5400430
  H        0.5929560     0.7502750     0.8121930
  H        4.1791340     1.1958370     0.0500290
  H        2.5131630     1.7137800    -0.2445400
  H        2.9424530     0.9385920     1.2876810
  H       -3.8316340     0.3284440    -0.4642740
units angstrom
no_reorient  #important for SAPT in psi4, default
symmetry c1  #important for SAPT in psi4, default
}

set PROPERTIES_ORIGIN ["COM"]
properties('MP2/aug-cc-pvtz', properties = ['dipole'])
--------------------------------------------------------------------------

    Molecular point group: c1
  Charge       = 0
  Multiplicity = 1
  Basis Set: AUG-CC-PVTZ
    Blend: AUG-CC-PVTZ
  Basis Set: (AUG-CC-PVTZ AUX)
    Blend: AUG-CC-PVTZ-JKFIT

    Orbital Energies [Eh]
    ---------------------

    Doubly Occupied:

       1A    -20.614579     2A    -20.551231     3A    -11.392800
       4A    -11.255870     5A    -11.236190     6A    -11.233130
       7A    -11.230458     8A    -11.214830     9A     -1.454528
      10A     -1.349642    11A     -1.105658    12A     -1.048905
      13A     -0.963524    14A     -0.871575    15A     -0.806760
      16A     -0.741313    17A     -0.700325    18A     -0.681596
      19A     -0.655955    20A     -0.624848    21A     -0.613177
      22A     -0.599036    23A     -0.581101    24A     -0.554539
      25A     -0.529588    26A     -0.499215    27A     -0.492957
      28A     -0.483511    29A     -0.477029    30A     -0.455893
      31A     -0.355870

  @DF-RHF Final Energy:  -382.90180272372510

   => Energetics <=

    Nuclear Repulsion Energy =            354.9806542354204453
    One-Electron Energy =               -1225.0136528976297541
    Two-Electron Energy =                 487.1311959384842680
    Total Energy =                       -382.9018027237250976
  Basis Set: (AUG-CC-PVTZ AUX)
    Blend: AUG-CC-PVTZ-RI
    Molecular point group: c1

    Geometry (in Angstrom), charge = 0, multiplicity = 1:

       Center              X                  Y                   Z               Mass
    ------------   -----------------  -----------------  -----------------  -----------------
         O           -3.126341505353    -0.387872633800    -0.150425215881    15.994914619570
         O           -1.726709505353     1.390099366200    -0.254877215881    15.994914619570
         C            2.923408494647    -0.440299633800    -0.388763215881    12.000000000000
         C            1.501839494647    -0.903421633800    -0.235417215881    12.000000000000
         C           -0.879927505353    -0.767837633800     0.499161784119    12.000000000000
         C            0.515148494647    -0.236128633800     0.378524784119    12.000000000000
         C            3.230646494647     0.924737366200     0.216930784119    12.000000000000
         C           -1.896853905353     0.197381666200    -0.005897115881    12.000000000000
         H            3.586833494647    -1.196057633800     0.053384784119     1.007825032230
         H            3.170825494647    -0.429586633800    -1.458884215881     1.007825032230
         H            1.274554494647    -1.876607633800    -0.675359215881     1.007825032230
         H           -0.998980505353    -1.714660633800    -0.038258215881     1.007825032230
         H           -1.140619505353    -0.977373633800     1.546581784119     1.007825032230
         H            0.693797494647     0.741060366200     0.818731784119     1.007825032230
         H            4.279975494647     1.186622366200     0.056567784119     1.007825032230
         H            2.614004494647     1.704565366200    -0.238001215881     1.007825032230
         H            3.043294494647     0.929377366200     1.294219784119     1.007825032230
         H           -3.730792505353     0.319229366200    -0.457735215881     1.007825032230

  Basis Set: AUG-CC-PVTZ
    Blend: AUG-CC-PVTZ
  Basis Set: (AUG-CC-PVTZ AUX)
    Blend: AUG-CC-PVTZ-JKFIT
	 Reference Energy          =    -382.9018027237250976 [Eh]
	 Singles Energy            =      -0.0000000000000000 [Eh]
	 Same-Spin Energy          =      -0.3834001432207821 [Eh]
	 Opposite-Spin Energy      =      -1.2550149488874260 [Eh]
	 Correlation Energy        =      -1.6384150921082081 [Eh]
	 Total Energy              =    -384.5402178158333300 [Eh]

	 ================> DF-SCS-MP2 Energies <==================
	-----------------------------------------------------------
	 SCS Same-Spin Scale       =       0.3333333333333333 [-]
	 SCS Opposite-Spin Scale   =       1.2000000000000000 [-]
	 SCS Same-Spin Energy      =      -0.1278000477402607 [Eh]
	 SCS Opposite-Spin Energy  =      -1.5060179386649113 [Eh]
	 SCS Correlation Energy    =      -1.6338179864051721 [Eh]
	 SCS Total Energy          =    -384.5356207101302743 [Eh]
	-----------------------------------------------------------

  Dipole Moment: [D]
     X:     0.2688      Y:    -1.4819      Z:     0.2751     Total:     1.5310

*** Psi4 exiting successfully. Buy a developer a beer!
