                               Psi4 1.3.2 release

  ==> Input File <==

--------------------------------------------------------------------------
#psi4
#
memory 32 gb

molecule  {
0 1
  O        3.1501630     0.3869830     0.0122970
  O        1.7226580    -1.3643080    -0.2059640
  C       -2.9163610     0.3476720    -0.5022120
  C       -1.4960630     0.8252950    -0.4074400
  C        0.8585340     0.8235180     0.4136200
  C       -0.5552368     0.2297349     0.3406126
  C       -3.2476580    -0.8824200     0.3361610
  C        1.9107340    -0.1856640     0.0271730
  H       -3.5825680     1.1749950    -0.2170990
  H       -3.1475630     0.1432210    -1.5599470
  H       -1.2914894     1.7198400    -1.0056796
  H        0.9787830     1.7133270    -0.2211670
  H        1.0972480     1.1531100     1.4329360
  H       -0.7130820    -0.6444280     0.9033180
  H       -4.2956480    -1.1625270     0.2123440
  H       -2.6314050    -1.7369230     0.0388270
  H       -3.0739380    -0.6897760     1.4001060
  H        3.7686820    -0.3352680    -0.2293440
units angstrom
no_reorient  #important for SAPT in psi4, default
symmetry c1  #important for SAPT in psi4, default
}

set PROPERTIES_ORIGIN ["COM"]
properties('MP2/aug-cc-pvtz', properties = ['dipole'])
--------------------------------------------------------------------------

    Molecular point group: c1
  Charge       = 0
  Multiplicity = 1
  Basis Set: AUG-CC-PVTZ
    Blend: AUG-CC-PVTZ
  Basis Set: (AUG-CC-PVTZ AUX)
    Blend: AUG-CC-PVTZ-JKFIT

    Orbital Energies [Eh]
    ---------------------

    Doubly Occupied:

       1A    -20.615120     2A    -20.552142     3A    -11.389653
       4A    -11.255048     5A    -11.236330     6A    -11.232476
       7A    -11.228252     8A    -11.214296     9A     -1.457996
      10A     -1.357536    11A     -1.100485    12A     -1.041911
      13A     -0.959686    14A     -0.870983    15A     -0.803473
      16A     -0.744933    17A     -0.702845    18A     -0.680426
      19A     -0.652220    20A     -0.624236    21A     -0.611708
      22A     -0.603819    23A     -0.581787    24A     -0.549775
      25A     -0.529741    26A     -0.497796    27A     -0.491770
      28A     -0.484545    29A     -0.477380    30A     -0.454604
      31A     -0.355184

  @DF-RHF Final Energy:  -382.90097455007583

   => Energetics <=

    Nuclear Repulsion Energy =            354.7913889280138164
    One-Electron Energy =               -1224.6684157780466649
    Two-Electron Energy =                 486.9760522999570185
    Total Energy =                       -382.9009745500758299
  Basis Set: (AUG-CC-PVTZ AUX)
    Blend: AUG-CC-PVTZ-RI
    Molecular point group: c1

    Geometry (in Angstrom), charge = 0, multiplicity = 1:

       Center              X                  Y                   Z               Mass
    ------------   -----------------  -----------------  -----------------  -----------------
         O            3.153705678085     0.390389537972     0.010916378454    15.994914619570
         O            1.726200678085    -1.360901462028    -0.207344621546    15.994914619570
         C           -2.912818321915     0.351078537972    -0.503592621546    12.000000000000
         C           -1.492520321915     0.828701537972    -0.408820621546    12.000000000000
         C            0.862076678085     0.826924537972     0.412239378454    12.000000000000
         C           -0.551694121915     0.233141437972     0.339231978454    12.000000000000
         C           -3.244115321915    -0.879013462028     0.334780378454    12.000000000000
         C            1.914276678085    -0.182257462028     0.025792378454    12.000000000000
         H           -3.579025321915     1.178401537972    -0.218479621546     1.007825032230
         H           -3.144020321915     0.146627537972    -1.561327621546     1.007825032230
         H           -1.287946721915     1.723246537972    -1.007060221546     1.007825032230
         H            0.982325678085     1.716733537972    -0.222547621546     1.007825032230
         H            1.100790678085     1.156516537972     1.431555378454     1.007825032230
         H           -0.709539321915    -0.641021462028     0.901937378454     1.007825032230
         H           -4.292105321915    -1.159120462028     0.210963378454     1.007825032230
         H           -2.627862321915    -1.733516462028     0.037446378454     1.007825032230
         H           -3.070395321915    -0.686369462028     1.398725378454     1.007825032230
         H            3.772224678085    -0.331861462028    -0.230724621546     1.007825032230

  Basis Set: AUG-CC-PVTZ
    Blend: AUG-CC-PVTZ
  Basis Set: (AUG-CC-PVTZ AUX)
    Blend: AUG-CC-PVTZ-JKFIT
	 Reference Energy          =    -382.9009745500758299 [Eh]
	 Singles Energy            =      -0.0000000000000000 [Eh]
	 Same-Spin Energy          =      -0.3828277671447750 [Eh]
	 Opposite-Spin Energy      =      -1.2543201784898819 [Eh]
	 Correlation Energy        =      -1.6371479456346569 [Eh]
	 Total Energy              =    -384.5381224957104678 [Eh]

	 ================> DF-SCS-MP2 Energies <==================
	-----------------------------------------------------------
	 SCS Same-Spin Scale       =       0.3333333333333333 [-]
	 SCS Opposite-Spin Scale   =       1.2000000000000000 [-]
	 SCS Same-Spin Energy      =      -0.1276092557149250 [Eh]
	 SCS Opposite-Spin Energy  =      -1.5051842141878582 [Eh]
	 SCS Correlation Energy    =      -1.6327934699027833 [Eh]
	 SCS Total Energy          =    -384.5337680199785950 [Eh]
	-----------------------------------------------------------

  Dipole Moment: [D]
     X:    -0.2018      Y:     1.4064      Z:     0.1952     Total:     1.4342

*** Psi4 exiting successfully. Buy a developer a beer!
