                               Psi4 1.3.2 release

  ==> Input File <==

--------------------------------------------------------------------------
#psi4
#
memory 32 gb

molecule  {
0 1
  O        3.1501630     0.3869830     0.0122970
  O        1.7226580    -1.3643080    -0.2059640
  C       -2.9163610     0.3476720    -0.5022120
  C       -1.4960630     0.8252950    -0.4074400
  C        0.8585340     0.8235180     0.4136200
  C       -0.3797587     0.1782293     0.4358692
  C       -3.2476580    -0.8824200     0.3361610
  C        1.9107340    -0.1856640     0.0271730
  H       -3.5825680     1.1749950    -0.2170990
  H       -3.1475630     0.1432210    -1.5599470
  H       -1.2553160     1.7190160    -0.9933200
  H        0.9787830     1.7133270    -0.2211670
  H        1.0972480     1.1531100     1.4329360
  H       -0.7130820    -0.6444280     0.9033180
  H       -4.2956480    -1.1625270     0.2123440
  H       -2.6314050    -1.7369230     0.0388270
  H       -3.0739380    -0.6897760     1.4001060
  H        3.7686820    -0.3352680    -0.2293440
units angstrom
no_reorient  #important for SAPT in psi4, default
symmetry c1  #important for SAPT in psi4, default
}

set PROPERTIES_ORIGIN ["COM"]
properties('MP2/aug-cc-pvtz', properties = ['dipole'])
--------------------------------------------------------------------------

    Molecular point group: c1
  Charge       = 0
  Multiplicity = 1
  Basis Set: AUG-CC-PVTZ
    Blend: AUG-CC-PVTZ
  Basis Set: (AUG-CC-PVTZ AUX)
    Blend: AUG-CC-PVTZ-JKFIT

    Orbital Energies [Eh]
    ---------------------

    Doubly Occupied:

       1A    -20.614959     2A    -20.553677     3A    -11.389245
       4A    -11.259966     5A    -11.252386     6A    -11.244691
       7A    -11.232356     8A    -11.215778     9A     -1.458753
      10A     -1.358879    11A     -1.104262    12A     -1.052867
      13A     -0.937055    14A     -0.876975    15A     -0.801020
      16A     -0.755412    17A     -0.705368    18A     -0.686148
      19A     -0.656017    20A     -0.631089    21A     -0.611951
      22A     -0.592787    23A     -0.582554    24A     -0.573147
      25A     -0.532879    26A     -0.498170    27A     -0.494770
      28A     -0.483776    29A     -0.473118    30A     -0.455482
      31A     -0.310490

  @DF-RHF Final Energy:  -382.84176434589455

   => Energetics <=

    Nuclear Repulsion Energy =            354.6672406119205903
    One-Electron Energy =               -1224.2259589339473678
    Two-Electron Energy =                 486.7169539761322881
    Total Energy =                       -382.8417643458945463
  Basis Set: (AUG-CC-PVTZ AUX)
    Blend: AUG-CC-PVTZ-RI
    Molecular point group: c1

    Geometry (in Angstrom), charge = 0, multiplicity = 1:

       Center              X                  Y                   Z               Mass
    ------------   -----------------  -----------------  -----------------  -----------------
         O            3.134925720833     0.395815224547     0.000786151674    15.994914619570
         O            1.707420720833    -1.355475775453    -0.217474848326    15.994914619570
         C           -2.931598279167     0.356504224547    -0.513722848326    12.000000000000
         C           -1.511300279167     0.834127224547    -0.418950848326    12.000000000000
         C            0.843296720833     0.832350224547     0.402109151674    12.000000000000
         C           -0.394995979167     0.187061524547     0.424358351674    12.000000000000
         C           -3.262895279167    -0.873587775453     0.324650151674    12.000000000000
         C            1.895496720833    -0.176831775453     0.015662151674    12.000000000000
         H           -3.597805279167     1.183827224547    -0.228609848326     1.007825032230
         H           -3.162800279167     0.152053224547    -1.571457848326     1.007825032230
         H           -1.270553279167     1.727848224547    -1.004830848326     1.007825032230
         H            0.963545720833     1.722159224547    -0.232677848326     1.007825032230
         H            1.082010720833     1.161942224547     1.421425151674     1.007825032230
         H           -0.728319279167    -0.635595775453     0.891807151674     1.007825032230
         H           -4.310885279167    -1.153694775453     0.200833151674     1.007825032230
         H           -2.646642279167    -1.728090775453     0.027316151674     1.007825032230
         H           -3.089175279167    -0.680943775453     1.388595151674     1.007825032230
         H            3.753444720833    -0.326435775453    -0.240854848326     1.007825032230

  Basis Set: AUG-CC-PVTZ
    Blend: AUG-CC-PVTZ
  Basis Set: (AUG-CC-PVTZ AUX)
    Blend: AUG-CC-PVTZ-JKFIT
	 Reference Energy          =    -382.8417643458945463 [Eh]
	 Singles Energy            =      -0.0000000000000000 [Eh]
	 Same-Spin Energy          =      -0.3876632177804877 [Eh]
	 Opposite-Spin Energy      =      -1.2637016280856281 [Eh]
	 Correlation Energy        =      -1.6513648458661159 [Eh]
	 Total Energy              =    -384.4931291917606586 [Eh]

	 ================> DF-SCS-MP2 Energies <==================
	-----------------------------------------------------------
	 SCS Same-Spin Scale       =       0.3333333333333333 [-]
	 SCS Opposite-Spin Scale   =       1.2000000000000000 [-]
	 SCS Same-Spin Energy      =      -0.1292210725934959 [Eh]
	 SCS Opposite-Spin Energy  =      -1.5164419537027538 [Eh]
	 SCS Correlation Energy    =      -1.6456630262962497 [Eh]
	 SCS Total Energy          =    -384.4874273721907798 [Eh]
	-----------------------------------------------------------

  Dipole Moment: [D]
     X:    -0.1238      Y:     1.3738      Z:     0.2190     Total:     1.3966

*** Psi4 exiting successfully. Buy a developer a beer!
