                               Psi4 1.3.2 release

  ==> Input File <==

--------------------------------------------------------------------------
#psi4
#
memory 32 gb

molecule  {
0 1
  O        3.1501630     0.3869830     0.0122970
  O        1.7226580    -1.3643080    -0.2059640
  C       -2.9163610     0.3476720    -0.5022120
  C       -1.4960630     0.8252950    -0.4074400
  C        0.8585340     0.8235180     0.4136200
  C       -0.5245990     0.2621860     0.3264500
  C       -3.2476580    -0.8824200     0.3361610
  C        1.9284464    -0.1519162    -0.0091449
  H       -3.5825680     1.1749950    -0.2170990
  H       -3.1475630     0.1432210    -1.5599470
  H       -1.2553160     1.7190160    -0.9933200
  H        1.0083436     1.6960969    -0.2385591
  H        1.0972480     1.1531100     1.4329360
  H       -0.7130820    -0.6444280     0.9033180
  H       -4.2956480    -1.1625270     0.2123440
  H       -2.6314050    -1.7369230     0.0388270
  H       -3.0739380    -0.6897760     1.4001060
  H        3.7686820    -0.3352680    -0.2293440
units angstrom
no_reorient  #important for SAPT in psi4, default
symmetry c1  #important for SAPT in psi4, default
}

set PROPERTIES_ORIGIN ["COM"]
properties('MP2/aug-cc-pvtz', properties = ['dipole'])
--------------------------------------------------------------------------

    Molecular point group: c1
  Charge       = 0
  Multiplicity = 1
  Basis Set: AUG-CC-PVTZ
    Blend: AUG-CC-PVTZ
  Basis Set: (AUG-CC-PVTZ AUX)
    Blend: AUG-CC-PVTZ-JKFIT

    Orbital Energies [Eh]
    ---------------------

    Doubly Occupied:

       1A    -20.624588     2A    -20.546006     3A    -11.391959
       4A    -11.254672     5A    -11.235214     6A    -11.232178
       7A    -11.229694     8A    -11.214242     9A     -1.467189
      10A     -1.344702    11A     -1.102442    12A     -1.045442
      13A     -0.961360    14A     -0.872255    15A     -0.814145
      16A     -0.738213    17A     -0.704441    18A     -0.681429
      19A     -0.657104    20A     -0.628044    21A     -0.611683
      22A     -0.598819    23A     -0.577754    24A     -0.552332
      25A     -0.528718    26A     -0.497712    27A     -0.490587
      28A     -0.481884    29A     -0.472495    30A     -0.451085
      31A     -0.354028

  @DF-RHF Final Energy:  -382.89869892734561

   => Energetics <=

    Nuclear Repulsion Energy =            354.9483016309466734
    One-Electron Energy =               -1224.9691699351908483
    Two-Electron Energy =                 487.1221693768986256
    Total Energy =                       -382.8986989273456061
  Basis Set: (AUG-CC-PVTZ AUX)
    Blend: AUG-CC-PVTZ-RI
    Molecular point group: c1

    Geometry (in Angstrom), charge = 0, multiplicity = 1:

       Center              X                  Y                   Z               Mass
    ------------   -----------------  -----------------  -----------------  -----------------
         O            3.148038441702     0.383584904905     0.016271407502    15.994914619570
         O            1.720533441702    -1.367706095095    -0.201989592498    15.994914619570
         C           -2.918485558298     0.344273904905    -0.498237592498    12.000000000000
         C           -1.498187558298     0.821896904905    -0.403465592498    12.000000000000
         C            0.856409441702     0.820119904905     0.417594407502    12.000000000000
         C           -0.526723558298     0.258787904905     0.330424407502    12.000000000000
         C           -3.249782558298    -0.885818095095     0.340135407502    12.000000000000
         C            1.926321841702    -0.155314295095    -0.005170492498    12.000000000000
         H           -3.584692558298     1.171596904905    -0.213124592498     1.007825032230
         H           -3.149687558298     0.139822904905    -1.555972592498     1.007825032230
         H           -1.257440558298     1.715617904905    -0.989345592498     1.007825032230
         H            1.006219041702     1.692698804905    -0.234584692498     1.007825032230
         H            1.095123441702     1.149711904905     1.436910407502     1.007825032230
         H           -0.715206558298    -0.647826095095     0.907292407502     1.007825032230
         H           -4.297772558298    -1.165925095095     0.216318407502     1.007825032230
         H           -2.633529558298    -1.740321095095     0.042801407502     1.007825032230
         H           -3.076062558298    -0.693174095095     1.404080407502     1.007825032230
         H            3.766557441702    -0.338666095095    -0.225369592498     1.007825032230

  Basis Set: AUG-CC-PVTZ
    Blend: AUG-CC-PVTZ
  Basis Set: (AUG-CC-PVTZ AUX)
    Blend: AUG-CC-PVTZ-JKFIT
	 Reference Energy          =    -382.8986989273456061 [Eh]
	 Singles Energy            =      -0.0000000000000000 [Eh]
	 Same-Spin Energy          =      -0.3835793411753450 [Eh]
	 Opposite-Spin Energy      =      -1.2553074531140149 [Eh]
	 Correlation Energy        =      -1.6388867942893599 [Eh]
	 Total Energy              =    -384.5375857216349686 [Eh]

	 ================> DF-SCS-MP2 Energies <==================
	-----------------------------------------------------------
	 SCS Same-Spin Scale       =       0.3333333333333333 [-]
	 SCS Opposite-Spin Scale   =       1.2000000000000000 [-]
	 SCS Same-Spin Energy      =      -0.1278597803917816 [Eh]
	 SCS Opposite-Spin Energy  =      -1.5063689437368180 [Eh]
	 SCS Correlation Energy    =      -1.6342287241285995 [Eh]
	 SCS Total Energy          =    -384.5329276514742105 [Eh]
	-----------------------------------------------------------

  Dipole Moment: [D]
     X:     0.0271      Y:     1.5729      Z:     0.1798     Total:     1.5834

*** Psi4 exiting successfully. Buy a developer a beer!
