                               Psi4 1.3.2 release

  ==> Input File <==

--------------------------------------------------------------------------
#psi4
#
memory 32 gb

molecule  {
0 1
  O        3.1501630     0.3869830     0.0122970
  O        1.7226580    -1.3643080    -0.2059640
  C       -2.9163610     0.3476720    -0.5022120
  C       -1.4960630     0.8252950    -0.4074400
  C        0.8585340     0.8235180     0.4136200
  C       -0.5245990     0.2621860     0.3264500
  C       -3.2476580    -0.8824200     0.3361610
  C        1.9368150    -0.1345940    -0.0271134
  H       -3.5825680     1.1749950    -0.2170990
  H       -3.1475630     0.1432210    -1.5599470
  H       -1.2553160     1.7190160    -0.9933200
  H        1.0230577     1.6870818    -0.2469585
  H        1.0972480     1.1531100     1.4329360
  H       -0.7130820    -0.6444280     0.9033180
  H       -4.2956480    -1.1625270     0.2123440
  H       -2.6314050    -1.7369230     0.0388270
  H       -3.0739380    -0.6897760     1.4001060
  H        3.7686820    -0.3352680    -0.2293440
units angstrom
no_reorient  #important for SAPT in psi4, default
symmetry c1  #important for SAPT in psi4, default
}

set PROPERTIES_ORIGIN ["COM"]
properties('MP2/aug-cc-pvtz', properties = ['dipole'])
--------------------------------------------------------------------------

    Molecular point group: c1
  Charge       = 0
  Multiplicity = 1
  Basis Set: AUG-CC-PVTZ
    Blend: AUG-CC-PVTZ
  Basis Set: (AUG-CC-PVTZ AUX)
    Blend: AUG-CC-PVTZ-JKFIT

    Orbital Energies [Eh]
    ---------------------

    Doubly Occupied:

       1A    -20.628822     2A    -20.542667     3A    -11.392859
       4A    -11.255053     5A    -11.235105     6A    -11.232154
       7A    -11.229527     8A    -11.214006     9A     -1.473184
      10A     -1.335972    11A     -1.102174    12A     -1.045528
      13A     -0.962062    14A     -0.873504    15A     -0.818195
      16A     -0.738046    17A     -0.705818    18A     -0.680708
      19A     -0.659038    20A     -0.628871    21A     -0.611495
      22A     -0.599545    23A     -0.574724    24A     -0.551659
      25A     -0.528706    26A     -0.497492    27A     -0.490255
      28A     -0.481494    29A     -0.466974    30A     -0.448154
      31A     -0.354031

  @DF-RHF Final Energy:  -382.89422176473408

   => Energetics <=

    Nuclear Repulsion Energy =            354.8784424025319026
    One-Electron Energy =               -1224.8296840537225307
    Two-Electron Energy =                 487.0570198864566009
    Total Energy =                       -382.8942217647340840
  Basis Set: (AUG-CC-PVTZ AUX)
    Blend: AUG-CC-PVTZ-RI
    Molecular point group: c1

    Geometry (in Angstrom), charge = 0, multiplicity = 1:

       Center              X                  Y                   Z               Mass
    ------------   -----------------  -----------------  -----------------  -----------------
         O            3.147028058790     0.381842254750     0.018235910862    15.994914619570
         O            1.719523058790    -1.369448745250    -0.200025089138    15.994914619570
         C           -2.919495941210     0.342531254750    -0.496273089138    12.000000000000
         C           -1.499197941210     0.820154254750    -0.401501089138    12.000000000000
         C            0.855399058790     0.818377254750     0.419558910862    12.000000000000
         C           -0.527733941210     0.257045254750     0.332388910862    12.000000000000
         C           -3.250792941210    -0.887560745250     0.342099910862    12.000000000000
         C            1.933680058790    -0.139734745250    -0.021174489138    12.000000000000
         H           -3.585702941210     1.169854254750    -0.211160089138     1.007825032230
         H           -3.150697941210     0.138080254750    -1.554008089138     1.007825032230
         H           -1.258450941210     1.713875254750    -0.987381089138     1.007825032230
         H            1.019922758790     1.681941054750    -0.241019589138     1.007825032230
         H            1.094113058790     1.147969254750     1.438874910862     1.007825032230
         H           -0.716216941210    -0.649568745250     0.909256910862     1.007825032230
         H           -4.298782941210    -1.167667745250     0.218282910862     1.007825032230
         H           -2.634539941210    -1.742063745250     0.044765910862     1.007825032230
         H           -3.077072941210    -0.694916745250     1.406044910862     1.007825032230
         H            3.765547058790    -0.340408745250    -0.223405089138     1.007825032230

  Basis Set: AUG-CC-PVTZ
    Blend: AUG-CC-PVTZ
  Basis Set: (AUG-CC-PVTZ AUX)
    Blend: AUG-CC-PVTZ-JKFIT
	 Reference Energy          =    -382.8942217647340840 [Eh]
	 Singles Energy            =      -0.0000000000000000 [Eh]
	 Same-Spin Energy          =      -0.3838817220759563 [Eh]
	 Opposite-Spin Energy      =      -1.2558733757638210 [Eh]
	 Correlation Energy        =      -1.6397550978397772 [Eh]
	 Total Energy              =    -384.5339768625738657 [Eh]

	 ================> DF-SCS-MP2 Energies <==================
	-----------------------------------------------------------
	 SCS Same-Spin Scale       =       0.3333333333333333 [-]
	 SCS Opposite-Spin Scale   =       1.2000000000000000 [-]
	 SCS Same-Spin Energy      =      -0.1279605740253188 [Eh]
	 SCS Opposite-Spin Energy  =      -1.5070480509165851 [Eh]
	 SCS Correlation Energy    =      -1.6350086249419038 [Eh]
	 SCS Total Energy          =    -384.5292303896760018 [Eh]
	-----------------------------------------------------------

  Dipole Moment: [D]
     X:     0.1218      Y:     1.6614      Z:     0.1693     Total:     1.6745

*** Psi4 exiting successfully. Buy a developer a beer!
