                               Psi4 1.3.2 release

  ==> Input File <==

--------------------------------------------------------------------------
#psi4
#
memory 32 gb

molecule  {
0 1
  O        3.1501630     0.3869830     0.0122970
  O        1.7226580    -1.3643080    -0.2059640
  C       -2.9163610     0.3476720    -0.5022120
  C       -1.4886182     0.8336993    -0.4107529
  C        0.8550472     0.8332031     0.4056011
  C       -0.5245990     0.2621860     0.3264500
  C       -3.2476580    -0.8824200     0.3361610
  C        1.9107340    -0.1856640     0.0271730
  H       -3.5825680     1.1749950    -0.2170990
  H       -3.1475630     0.1432210    -1.5599470
  H       -1.2553160     1.7190160    -0.9933200
  H        0.9787830     1.7133270    -0.2211670
  H        1.0972480     1.1531100     1.4329360
  H       -0.7130820    -0.6444280     0.9033180
  H       -4.2956480    -1.1625270     0.2123440
  H       -2.6314050    -1.7369230     0.0388270
  H       -3.0739380    -0.6897760     1.4001060
  H        3.7686820    -0.3352680    -0.2293440
units angstrom
no_reorient  #important for SAPT in psi4, default
symmetry c1  #important for SAPT in psi4, default
}

set PROPERTIES_ORIGIN ["COM"]
properties('MP2/aug-cc-pvtz', properties = ['dipole'])
--------------------------------------------------------------------------

    Molecular point group: c1
  Charge       = 0
  Multiplicity = 1
  Basis Set: AUG-CC-PVTZ
    Blend: AUG-CC-PVTZ
  Basis Set: (AUG-CC-PVTZ AUX)
    Blend: AUG-CC-PVTZ-JKFIT

    Orbital Energies [Eh]
    ---------------------

    Doubly Occupied:

       1A    -20.615621     2A    -20.552896     3A    -11.390571
       4A    -11.253910     5A    -11.234890     6A    -11.232357
       7A    -11.230166     8A    -11.214776     9A     -1.458424
      10A     -1.358042    11A     -1.102642    12A     -1.044085
      13A     -0.959853    14A     -0.869085    15A     -0.805600
      16A     -0.741502    17A     -0.702971    18A     -0.681433
      19A     -0.653394    20A     -0.626198    21A     -0.611433
      22A     -0.600228    23A     -0.581100    24A     -0.552116
      25A     -0.530329    26A     -0.497707    27A     -0.490536
      28A     -0.485734    29A     -0.480199    30A     -0.455298
      31A     -0.353942

  @DF-RHF Final Energy:  -382.90307606340338

   => Energetics <=

    Nuclear Repulsion Energy =            354.9351922108820645
    One-Electron Energy =               -1224.9424628846854830
    Two-Electron Energy =                 487.1041946104000431
    Total Energy =                       -382.9030760634033754
  Basis Set: (AUG-CC-PVTZ AUX)
    Blend: AUG-CC-PVTZ-RI
    Molecular point group: c1

    Geometry (in Angstrom), charge = 0, multiplicity = 1:

       Center              X                  Y                   Z               Mass
    ------------   -----------------  -----------------  -----------------  -----------------
         O            3.149746585763     0.385079940804     0.013489197133    15.994914619570
         O            1.722241585763    -1.366211059196    -0.204771802867    15.994914619570
         C           -2.916777414237     0.345768940804    -0.501019802867    12.000000000000
         C           -1.489034614237     0.831796240804    -0.409560702867    12.000000000000
         C            0.854630785763     0.831300040804     0.406793297133    12.000000000000
         C           -0.525015414237     0.260282940804     0.327642197133    12.000000000000
         C           -3.248074414237    -0.884323059196     0.337353197133    12.000000000000
         C            1.910317585763    -0.187567059196     0.028365197133    12.000000000000
         H           -3.582984414237     1.173091940804    -0.215906802867     1.007825032230
         H           -3.147979414237     0.141317940804    -1.558754802867     1.007825032230
         H           -1.255732414237     1.717112940804    -0.992127802867     1.007825032230
         H            0.978366585763     1.711423940804    -0.219974802867     1.007825032230
         H            1.096831585763     1.151206940804     1.434128197133     1.007825032230
         H           -0.713498414237    -0.646331059196     0.904510197133     1.007825032230
         H           -4.296064414237    -1.164430059196     0.213536197133     1.007825032230
         H           -2.631821414237    -1.738826059196     0.040019197133     1.007825032230
         H           -3.074354414237    -0.691679059196     1.401298197133     1.007825032230
         H            3.768265585763    -0.337171059196    -0.228151802867     1.007825032230

  Basis Set: AUG-CC-PVTZ
    Blend: AUG-CC-PVTZ
  Basis Set: (AUG-CC-PVTZ AUX)
    Blend: AUG-CC-PVTZ-JKFIT
	 Reference Energy          =    -382.9030760634033754 [Eh]
	 Singles Energy            =      -0.0000000000000000 [Eh]
	 Same-Spin Energy          =      -0.3830197879987214 [Eh]
	 Opposite-Spin Energy      =      -1.2543910579137489 [Eh]
	 Correlation Energy        =      -1.6374108459124703 [Eh]
	 Total Energy              =    -384.5404869093158595 [Eh]

	 ================> DF-SCS-MP2 Energies <==================
	-----------------------------------------------------------
	 SCS Same-Spin Scale       =       0.3333333333333333 [-]
	 SCS Opposite-Spin Scale   =       1.2000000000000000 [-]
	 SCS Same-Spin Energy      =      -0.1276732626662405 [Eh]
	 SCS Opposite-Spin Energy  =      -1.5052692694964986 [Eh]
	 SCS Correlation Energy    =      -1.6329425321627391 [Eh]
	 SCS Total Energy          =    -384.5360185955661336 [Eh]
	-----------------------------------------------------------

  Dipole Moment: [D]
     X:    -0.1643      Y:     1.3930      Z:     0.2005     Total:     1.4169

*** Psi4 exiting successfully. Buy a developer a beer!
