                               Psi4 1.3.2 release

  ==> Input File <==

--------------------------------------------------------------------------
#psi4
#
memory 32 gb

molecule  {
0 1
  O        3.1501630     0.3869830     0.0122970
  O        1.7226580    -1.3643080    -0.2059640
  C       -2.9163610     0.3476720    -0.5022120
  C       -1.4014679     0.8571058    -0.4011280
  C        0.8585340     0.8235180     0.4136200
  C       -0.5245990     0.2621860     0.3264500
  C       -3.2476580    -0.8824200     0.3361610
  C        1.9107340    -0.1856640     0.0271730
  H       -3.5825680     1.1749950    -0.2170990
  H       -3.1475630     0.1432210    -1.5599470
  H       -1.2553160     1.7190160    -0.9933200
  H        0.9787830     1.7133270    -0.2211670
  H        1.0972480     1.1531100     1.4329360
  H       -0.7130820    -0.6444280     0.9033180
  H       -4.2956480    -1.1625270     0.2123440
  H       -2.6314050    -1.7369230     0.0388270
  H       -3.0739380    -0.6897760     1.4001060
  H        3.7686820    -0.3352680    -0.2293440
units angstrom
no_reorient  #important for SAPT in psi4, default
symmetry c1  #important for SAPT in psi4, default
}

set PROPERTIES_ORIGIN ["COM"]
properties('MP2/aug-cc-pvtz', properties = ['dipole'])
--------------------------------------------------------------------------

    Molecular point group: c1
  Charge       = 0
  Multiplicity = 1
  Basis Set: AUG-CC-PVTZ
    Blend: AUG-CC-PVTZ
  Basis Set: (AUG-CC-PVTZ AUX)
    Blend: AUG-CC-PVTZ-JKFIT

    Orbital Energies [Eh]
    ---------------------

    Doubly Occupied:

       1A    -20.615348     2A    -20.552803     3A    -11.389905
       4A    -11.252054     5A    -11.232199     6A    -11.228635
       7A    -11.225665     8A    -11.213734     9A     -1.458388
      10A     -1.358061    11A     -1.107856    12A     -1.036066
      13A     -0.967624    14A     -0.860532    15A     -0.805801
      16A     -0.747018    17A     -0.703538    18A     -0.682377
      19A     -0.654068    20A     -0.620739    21A     -0.609468
      22A     -0.606616    23A     -0.583204    24A     -0.552491
      25A     -0.528915    26A     -0.496480    27A     -0.493697
      28A     -0.484016    29A     -0.462746    30A     -0.450643
      31A     -0.370775

  @DF-RHF Final Energy:  -382.89539016561105

   => Energetics <=

    Nuclear Repulsion Energy =            355.2922146906644230
    One-Electron Energy =               -1225.6722881147729822
    Two-Electron Energy =                 487.4846832584975118
    Total Energy =                       -382.8953901656110475
  Basis Set: (AUG-CC-PVTZ AUX)
    Blend: AUG-CC-PVTZ-RI
    Molecular point group: c1

    Geometry (in Angstrom), charge = 0, multiplicity = 1:

       Center              X                  Y                   Z               Mass
    ------------   -----------------  -----------------  -----------------  -----------------
         O            3.140211532624     0.383636444950     0.011633063490    15.994914619570
         O            1.712706532624    -1.367654555050    -0.206627936510    15.994914619570
         C           -2.926312467376     0.344325444950    -0.502875936510    12.000000000000
         C           -1.411419367376     0.853759244950    -0.401791936510    12.000000000000
         C            0.848582532624     0.820171444950     0.412956063490    12.000000000000
         C           -0.534550467376     0.258839444950     0.325786063490    12.000000000000
         C           -3.257609467376    -0.885766555050     0.335497063490    12.000000000000
         C            1.900782532624    -0.189010555050     0.026509063490    12.000000000000
         H           -3.592519467376     1.171648444950    -0.217762936510     1.007825032230
         H           -3.157514467376     0.139874444950    -1.560610936510     1.007825032230
         H           -1.265267467376     1.715669444950    -0.993983936510     1.007825032230
         H            0.968831532624     1.709980444950    -0.221830936510     1.007825032230
         H            1.087296532624     1.149763444950     1.432272063490     1.007825032230
         H           -0.723033467376    -0.647774555050     0.902654063490     1.007825032230
         H           -4.305599467376    -1.165873555050     0.211680063490     1.007825032230
         H           -2.641356467376    -1.740269555050     0.038163063490     1.007825032230
         H           -3.083889467376    -0.693122555050     1.399442063490     1.007825032230
         H            3.758730532624    -0.338614555050    -0.230007936510     1.007825032230

  Basis Set: AUG-CC-PVTZ
    Blend: AUG-CC-PVTZ
  Basis Set: (AUG-CC-PVTZ AUX)
    Blend: AUG-CC-PVTZ-JKFIT
	 Reference Energy          =    -382.8953901656110475 [Eh]
	 Singles Energy            =      -0.0000000000000000 [Eh]
	 Same-Spin Energy          =      -0.3822221329655668 [Eh]
	 Opposite-Spin Energy      =      -1.2531236934580061 [Eh]
	 Correlation Energy        =      -1.6353458264235730 [Eh]
	 Total Energy              =    -384.5307359920346357 [Eh]

	 ================> DF-SCS-MP2 Energies <==================
	-----------------------------------------------------------
	 SCS Same-Spin Scale       =       0.3333333333333333 [-]
	 SCS Opposite-Spin Scale   =       1.2000000000000000 [-]
	 SCS Same-Spin Energy      =      -0.1274073776551889 [Eh]
	 SCS Opposite-Spin Energy  =      -1.5037484321496073 [Eh]
	 SCS Correlation Energy    =      -1.6311558098047962 [Eh]
	 SCS Total Energy          =    -384.5265459754158428 [Eh]
	-----------------------------------------------------------

  Dipole Moment: [D]
     X:    -0.0961      Y:     1.4214      Z:     0.2248     Total:     1.4423

*** Psi4 exiting successfully. Buy a developer a beer!
