                               Psi4 1.4a3.dev225

  ==> Input File <==

--------------------------------------------------------------------------
#psi4
#
memory 32 gb

molecule  {
0 1
  O       -3.2271830    -0.3786580    -0.1569640
  O       -1.8275510     1.3993140    -0.2614160
  C        2.8225670    -0.4310850    -0.3953020
  C        1.4009980    -0.8942070    -0.2419560
  C       -0.9807690    -0.7586230     0.4926230
  C        0.4511221    -0.2518119     0.3490788
  C        3.1298050     0.9339520     0.2103920
  C       -2.0113430     0.2195500    -0.0192140
  H        3.4859920    -1.1868430     0.0468460
  H        3.0699840    -0.4203720    -1.4654230
  H        1.1737130    -1.8673930    -0.6818980
  H       -1.0998220    -1.7054460    -0.0447970
  H       -1.2414610    -0.9681590     1.5400430
  H        0.5929560     0.7502750     0.8121930
  H        4.1791340     1.1958370     0.0500290
  H        2.5131630     1.7137800    -0.2445400
  H        2.9424530     0.9385920     1.2876810
  H       -3.8316340     0.3284440    -0.4642740
units angstrom
no_reorient  #important for SAPT in psi4, default
symmetry c1  #important for SAPT in psi4, default
}

set PROPERTIES_ORIGIN ["COM"]
properties('MP2/aug-cc-pvtz', properties = ['dipole'])
--------------------------------------------------------------------------

    Molecular point group: c1
  Charge       = 0
  Multiplicity = 1
  Basis Set: AUG-CC-PVTZ
    Blend: AUG-CC-PVTZ
  Basis Set: (AUG-CC-PVTZ AUX)
    Blend: AUG-CC-PVTZ-JKFIT

    Orbital Energies [Eh]
    ---------------------

    Doubly Occupied:

       1A    -20.616636     2A    -20.552154     3A    -11.391608
       4A    -11.255603     5A    -11.229669     6A    -11.229318
       7A    -11.226656     8A    -11.214081     9A     -1.460084
      10A     -1.357259    11A     -1.107491    12A     -1.042866
      13A     -0.967835    14A     -0.868972    15A     -0.808878
      16A     -0.735097    17A     -0.702811    18A     -0.681561
      19A     -0.655312    20A     -0.624693    21A     -0.612929
      22A     -0.603273    23A     -0.581723    24A     -0.556589
      25A     -0.521473    26A     -0.498955    27A     -0.493963
      28A     -0.483076    29A     -0.472531    30A     -0.455221
      31A     -0.367327

  @DF-RHF Final Energy:  -382.90207471142213

   => Energetics <=

    Nuclear Repulsion Energy =            355.1825879814841187
    One-Electron Energy =               -1225.4180362099912145
    Two-Electron Energy =                 487.3333735170849081
    Total Energy =                       -382.9020747114221308
  Basis Set: (AUG-CC-PVTZ AUX)
    Blend: AUG-CC-PVTZ-RI
    Molecular point group: c1

    Geometry (in Angstrom), charge = 0, multiplicity = 1:

       Center              X                  Y                   Z               Mass
    ------------   -----------------  -----------------  -----------------  -----------------
         O           -3.128778734077    -0.386616099978    -0.147302312424    15.994914619570
         O           -1.729146734077     1.391355900022    -0.251754312424    15.994914619570
         C            2.920971265923    -0.439043099978    -0.385640312424    12.000000000000
         C            1.499402265923    -0.902165099978    -0.232294312424    12.000000000000
         C           -0.882364734077    -0.766581099978     0.502284687576    12.000000000000
         C            0.549526365923    -0.259769999978     0.358740487576    12.000000000000
         C            3.228209265923     0.925993900022     0.220053687576    12.000000000000
         C           -1.912938734077     0.211591900022    -0.009552312424    12.000000000000
         H            3.584396265923    -1.194801099978     0.056507687576     1.007825032230
         H            3.168388265923    -0.428330099978    -1.455761312424     1.007825032230
         H            1.272117265923    -1.875351099978    -0.672236312424     1.007825032230
         H           -1.001417734077    -1.713404099978    -0.035135312424     1.007825032230
         H           -1.143056734077    -0.976117099978     1.549704687576     1.007825032230
         H            0.691360265923     0.742316900022     0.821854687576     1.007825032230
         H            4.277538265923     1.187878900022     0.059690687576     1.007825032230
         H            2.611567265923     1.705821900022    -0.234878312424     1.007825032230
         H            3.040857265923     0.930633900022     1.297342687576     1.007825032230
         H           -3.733229734077     0.320485900022    -0.454612312424     1.007825032230

  Basis Set: AUG-CC-PVTZ
    Blend: AUG-CC-PVTZ
  Basis Set: (AUG-CC-PVTZ AUX)
    Blend: AUG-CC-PVTZ-JKFIT
	 Reference Energy          =    -382.9020747114221308 [Eh]
	 Singles Energy            =      -0.0000000000000000 [Eh]
	 Same-Spin Energy          =      -0.3824872040765920 [Eh]
	 Opposite-Spin Energy      =      -1.2530344166204377 [Eh]
	 Correlation Energy        =      -1.6355216206970298 [Eh]
	 Total Energy              =    -384.5375963321191648 [Eh]

	 ================> DF-SCS-MP2 Energies <==================
	-----------------------------------------------------------
	 SCS Same-Spin Scale       =       0.3333333333333333 [-]
	 SCS Opposite-Spin Scale   =       1.2000000000000000 [-]
	 SCS Same-Spin Energy      =      -0.1274957346921973 [Eh]
	 SCS Opposite-Spin Energy  =      -1.5036412999445252 [Eh]
	 SCS Correlation Energy    =      -1.6311370346367227 [Eh]
	 SCS Total Energy          =    -384.5332117460588393 [Eh]
	-----------------------------------------------------------

  Dipole Moment: [D]
     X:     0.1661      Y:    -1.4216      Z:     0.2382     Total:     1.4509

*** Psi4 exiting successfully. Buy a developer a beer!
