                               Psi4 1.4a3.dev225

  ==> Input File <==

--------------------------------------------------------------------------
#psi4
#
memory 32 gb

molecule  {
0 1
  O       -3.2271830    -0.3786580    -0.1569640
  O       -1.8275510     1.3993140    -0.2614160
  C        2.8225670    -0.4310850    -0.3953020
  C        1.4009980    -0.8942070    -0.2419560
  C       -0.9807690    -0.7586230     0.4926230
  C        0.4143070    -0.2269140     0.3719860
  C        3.1298050     0.9339520     0.2103920
  C       -2.0113430     0.2195500    -0.0192140
  H        3.4859920    -1.1868430     0.0468460
  H        3.0699840    -0.4203720    -1.4654230
  H        1.1737130    -1.8673930    -0.6818980
  H       -1.0998220    -1.7054460    -0.0447970
  H       -1.2414610    -0.9681590     1.5400430
  H        0.5929560     0.7502750     0.8121930
  H        4.1791340     1.1958370     0.0500290
  H        2.5131630     1.7137800    -0.2445400
  H        2.9424530     0.9385920     1.2876810
  H       -3.8007849     0.2923560    -0.4485900
units angstrom
no_reorient  #important for SAPT in psi4, default
symmetry c1  #important for SAPT in psi4, default
}

set PROPERTIES_ORIGIN ["COM"]
properties('MP2/aug-cc-pvtz', properties = ['dipole'])
--------------------------------------------------------------------------

    Molecular point group: c1
  Charge       = 0
  Multiplicity = 1
  Basis Set: AUG-CC-PVTZ
    Blend: AUG-CC-PVTZ
  Basis Set: (AUG-CC-PVTZ AUX)
    Blend: AUG-CC-PVTZ-JKFIT

    Orbital Energies [Eh]
    ---------------------

    Doubly Occupied:

       1A    -20.613003     2A    -20.553227     3A    -11.392159
       4A    -11.254992     5A    -11.235379     6A    -11.232184
       7A    -11.229997     8A    -11.214542     9A     -1.468129
      10A     -1.362318    11A     -1.103719    12A     -1.046463
      13A     -0.962409    14A     -0.873025    15A     -0.814862
      16A     -0.740473    17A     -0.708119    18A     -0.683585
      19A     -0.656842    20A     -0.625719    21A     -0.612947
      22A     -0.601325    23A     -0.584491    24A     -0.554892
      25A     -0.528960    26A     -0.498893    27A     -0.492791
      28A     -0.485286    29A     -0.480101    30A     -0.456588
      31A     -0.354797

  @DF-RHF Final Energy:  -382.90455543201165

   => Energetics <=

    Nuclear Repulsion Energy =            355.3012428794392008
    One-Electron Energy =               -1225.5671609239470854
    Two-Electron Energy =                 487.3613626124962366
    Total Energy =                       -382.9045554320116480
  Basis Set: (AUG-CC-PVTZ AUX)
    Blend: AUG-CC-PVTZ-RI
    Molecular point group: c1

    Geometry (in Angstrom), charge = 0, multiplicity = 1:

       Center              X                  Y                   Z               Mass
    ------------   -----------------  -----------------  -----------------  -----------------
         O           -3.125178334155    -0.388916519265    -0.149850730254    15.994914619570
         O           -1.725546334155     1.389055480735    -0.254302730254    15.994914619570
         C            2.924571665845    -0.441343519265    -0.388188730254    12.000000000000
         C            1.503002665845    -0.904465519265    -0.234842730254    12.000000000000
         C           -0.878764334155    -0.768881519265     0.499736269746    12.000000000000
         C            0.516311665845    -0.237172519265     0.379099269746    12.000000000000
         C            3.231809665845     0.923693480735     0.217505269746    12.000000000000
         C           -1.909338334155     0.209291480735    -0.012100730254    12.000000000000
         H            3.587996665845    -1.197101519265     0.053959269746     1.007825032230
         H            3.171988665845    -0.430630519265    -1.458309730254     1.007825032230
         H            1.275717665845    -1.877651519265    -0.674784730254     1.007825032230
         H           -0.997817334155    -1.715704519265    -0.037683730254     1.007825032230
         H           -1.139456334155    -0.978417519265     1.547156269746     1.007825032230
         H            0.694960665845     0.740016480735     0.819306269746     1.007825032230
         H            4.281138665845     1.185578480735     0.057142269746     1.007825032230
         H            2.615167665845     1.703521480735    -0.237426730254     1.007825032230
         H            3.044457665845     0.928333480735     1.294794269746     1.007825032230
         H           -3.698780234155     0.282097480735    -0.441476730254     1.007825032230

  Basis Set: AUG-CC-PVTZ
    Blend: AUG-CC-PVTZ
  Basis Set: (AUG-CC-PVTZ AUX)
    Blend: AUG-CC-PVTZ-JKFIT
	 Reference Energy          =    -382.9045554320116480 [Eh]
	 Singles Energy            =      -0.0000000000000000 [Eh]
	 Same-Spin Energy          =      -0.3823751977755462 [Eh]
	 Opposite-Spin Energy      =      -1.2527895341441619 [Eh]
	 Correlation Energy        =      -1.6351647319197080 [Eh]
	 Total Energy              =    -384.5397201639313494 [Eh]

	 ================> DF-SCS-MP2 Energies <==================
	-----------------------------------------------------------
	 SCS Same-Spin Scale       =       0.3333333333333333 [-]
	 SCS Opposite-Spin Scale   =       1.2000000000000000 [-]
	 SCS Same-Spin Energy      =      -0.1274583992585154 [Eh]
	 SCS Opposite-Spin Energy  =      -1.5033474409729943 [Eh]
	 SCS Correlation Energy    =      -1.6308058402315098 [Eh]
	 SCS Total Energy          =    -384.5353612722431649 [Eh]
	-----------------------------------------------------------

  Dipole Moment: [D]
     X:     0.2153      Y:    -1.4469      Z:     0.2583     Total:     1.4855

*** Psi4 exiting successfully. Buy a developer a beer!
