                               Psi4 1.3.2 release

  ==> Input File <==

--------------------------------------------------------------------------
#psi4
#
memory 32 gb

molecule  {
0 1
  O        3.1501630     0.3869830     0.0122970
  O        1.7226580    -1.3643080    -0.2059640
  C       -2.9163610     0.3476720    -0.5022120
  C       -1.4960630     0.8252950    -0.4074400
  C        0.8585340     0.8235180     0.4136200
  C       -0.5424324     0.3194063     0.2760929
  C       -3.2476580    -0.8824200     0.3361610
  C        1.9107340    -0.1856640     0.0271730
  H       -3.5825680     1.1749950    -0.2170990
  H       -3.1475630     0.1432210    -1.5599470
  H       -1.2553160     1.7190160    -0.9933200
  H        0.9238015     1.7074607    -0.2371948
  H        1.0972480     1.1531100     1.4329360
  H       -0.7130820    -0.6444280     0.9033180
  H       -4.2956480    -1.1625270     0.2123440
  H       -2.6314050    -1.7369230     0.0388270
  H       -3.0739380    -0.6897760     1.4001060
  H        3.7686820    -0.3352680    -0.2293440
units angstrom
no_reorient  #important for SAPT in psi4, default
symmetry c1  #important for SAPT in psi4, default
}

set PROPERTIES_ORIGIN ["COM"]
properties('MP2/aug-cc-pvtz', properties = ['dipole'])
--------------------------------------------------------------------------

    Molecular point group: c1
  Charge       = 0
  Multiplicity = 1
  Basis Set: AUG-CC-PVTZ
    Blend: AUG-CC-PVTZ
  Basis Set: (AUG-CC-PVTZ AUX)
    Blend: AUG-CC-PVTZ-JKFIT

    Orbital Energies [Eh]
    ---------------------

    Doubly Occupied:

       1A    -20.616803     2A    -20.553876     3A    -11.392478
       4A    -11.255140     5A    -11.230833     6A    -11.229446
       7A    -11.225179     8A    -11.214299     9A     -1.459547
      10A     -1.358985    11A     -1.111466    12A     -1.045456
      13A     -0.969513    14A     -0.868442    15A     -0.810839
      16A     -0.727762    17A     -0.702567    18A     -0.684300
      19A     -0.657234    20A     -0.626153    21A     -0.612638
      22A     -0.600523    23A     -0.583798    24A     -0.561810
      25A     -0.515568    26A     -0.498713    27A     -0.494858
      28A     -0.484142    29A     -0.465695    30A     -0.456846
      31A     -0.369927

  @DF-RHF Final Energy:  -382.89571918282007

   => Energetics <=

    Nuclear Repulsion Energy =            355.5856468557604444
    One-Electron Energy =               -1226.1930581751214504
    Two-Electron Energy =                 487.7116921365409894
    Total Energy =                       -382.8957191828200735
  Basis Set: (AUG-CC-PVTZ AUX)
    Blend: AUG-CC-PVTZ-RI
    Molecular point group: c1

    Geometry (in Angstrom), charge = 0, multiplicity = 1:

       Center              X                  Y                   Z               Mass
    ------------   -----------------  -----------------  -----------------  -----------------
         O            3.152524826031     0.381015187564     0.017736282031    15.994914619570
         O            1.725019826031    -1.370275812436    -0.200524717969    15.994914619570
         C           -2.913999173969     0.341704187564    -0.496772717969    12.000000000000
         C           -1.493701173969     0.819327187564    -0.402000717969    12.000000000000
         C            0.860895826031     0.817550187564     0.419059282031    12.000000000000
         C           -0.540070573969     0.313438487564     0.281532182031    12.000000000000
         C           -3.245296173969    -0.888387812436     0.341600282031    12.000000000000
         C            1.913095826031    -0.191631812436     0.032612282031    12.000000000000
         H           -3.580206173969     1.169027187564    -0.211659717969     1.007825032230
         H           -3.145201173969     0.137253187564    -1.554507717969     1.007825032230
         H           -1.252954173969     1.713048187564    -0.987880717969     1.007825032230
         H            0.926163326031     1.701492887564    -0.231755517969     1.007825032230
         H            1.099609826031     1.147142187564     1.438375282031     1.007825032230
         H           -0.710720173969    -0.650395812436     0.908757282031     1.007825032230
         H           -4.293286173969    -1.168494812436     0.217783282031     1.007825032230
         H           -2.629043173969    -1.742890812436     0.044266282031     1.007825032230
         H           -3.071576173969    -0.695743812436     1.405545282031     1.007825032230
         H            3.771043826031    -0.341235812436    -0.223904717969     1.007825032230

  Basis Set: AUG-CC-PVTZ
    Blend: AUG-CC-PVTZ
  Basis Set: (AUG-CC-PVTZ AUX)
    Blend: AUG-CC-PVTZ-JKFIT
	 Reference Energy          =    -382.8957191828200735 [Eh]
	 Singles Energy            =      -0.0000000000000000 [Eh]
	 Same-Spin Energy          =      -0.3828814840224805 [Eh]
	 Opposite-Spin Energy      =      -1.2536671571807321 [Eh]
	 Correlation Energy        =      -1.6365486412032126 [Eh]
	 Total Energy              =    -384.5322678240232790 [Eh]

	 ================> DF-SCS-MP2 Energies <==================
	-----------------------------------------------------------
	 SCS Same-Spin Scale       =       0.3333333333333333 [-]
	 SCS Opposite-Spin Scale   =       1.2000000000000000 [-]
	 SCS Same-Spin Energy      =      -0.1276271613408268 [Eh]
	 SCS Opposite-Spin Energy  =      -1.5044005886168785 [Eh]
	 SCS Correlation Energy    =      -1.6320277499577054 [Eh]
	 SCS Total Energy          =    -384.5277469327778022 [Eh]
	-----------------------------------------------------------

  Dipole Moment: [D]
     X:    -0.1588      Y:     1.3869      Z:     0.1963     Total:     1.4097

*** Psi4 exiting successfully. Buy a developer a beer!
