                               Psi4 1.4a3.dev225

  ==> Input File <==

--------------------------------------------------------------------------
#psi4
#
memory 32 gb

molecule  {
0 1
  O       -3.2271830    -0.3786580    -0.1569640
  O       -1.8275510     1.3993140    -0.2614160
  C        2.8225670    -0.4310850    -0.3953020
  C        1.4009980    -0.8942070    -0.2419560
  C       -0.9807690    -0.7586230     0.4926230
  C        0.4143070    -0.2269140     0.3719860
  C        3.1298050     0.9339520     0.2103920
  C       -2.0113430     0.2195500    -0.0192140
  H        3.4859920    -1.1868430     0.0468460
  H        3.0699840    -0.4203720    -1.4654230
  H        1.1737130    -1.8673930    -0.6818980
  H       -1.0998220    -1.7054460    -0.0447970
  H       -1.2414610    -0.9681590     1.5400430
  H        0.6011769     0.7952424     0.8324501
  H        4.1791340     1.1958370     0.0500290
  H        2.5131630     1.7137800    -0.2445400
  H        2.9424530     0.9385920     1.2876810
  H       -3.8316340     0.3284440    -0.4642740
units angstrom
no_reorient  #important for SAPT in psi4, default
symmetry c1  #important for SAPT in psi4, default
}

set PROPERTIES_ORIGIN ["COM"]
properties('MP2/aug-cc-pvtz', properties = ['dipole'])
--------------------------------------------------------------------------

    Molecular point group: c1
  Charge       = 0
  Multiplicity = 1
  Basis Set: AUG-CC-PVTZ
    Blend: AUG-CC-PVTZ
  Basis Set: (AUG-CC-PVTZ AUX)
    Blend: AUG-CC-PVTZ-JKFIT

    Orbital Energies [Eh]
    ---------------------

    Doubly Occupied:

       1A    -20.616463     2A    -20.552155     3A    -11.391224
       4A    -11.255311     5A    -11.237959     6A    -11.234980
       7A    -11.229864     8A    -11.214223     9A     -1.460032
      10A     -1.357279    11A     -1.102435    12A     -1.045591
      13A     -0.960447    14A     -0.869481    15A     -0.807601
      16A     -0.733897    17A     -0.702519    18A     -0.682401
      19A     -0.655799    20A     -0.624604    21A     -0.612662
      22A     -0.599270    23A     -0.581320    24A     -0.554237
      25A     -0.524433    26A     -0.498648    27A     -0.492145
      28A     -0.483480    29A     -0.478490    30A     -0.455582
      31A     -0.354784

  @DF-RHF Final Energy:  -382.90131674698142

   => Energetics <=

    Nuclear Repulsion Energy =            354.7770722967405845
    One-Electron Energy =               -1224.6181448051711413
    Two-Electron Energy =                 486.9397557614491348
    Total Energy =                       -382.9013167469814221
  Basis Set: (AUG-CC-PVTZ AUX)
    Blend: AUG-CC-PVTZ-RI
    Molecular point group: c1

    Geometry (in Angstrom), charge = 0, multiplicity = 1:

       Center              X                  Y                   Z               Mass
    ------------   -----------------  -----------------  -----------------  -----------------
         O           -3.124978407352    -0.389632667564    -0.149891134938    15.994914619570
         O           -1.725346407352     1.388339332436    -0.254343134938    15.994914619570
         C            2.924771592648    -0.442059667564    -0.388229134938    12.000000000000
         C            1.503202592648    -0.905181667564    -0.234883134938    12.000000000000
         C           -0.878564407352    -0.769597667564     0.499695865062    12.000000000000
         C            0.516511592648    -0.237888667564     0.379058865062    12.000000000000
         C            3.232009592648     0.922977332436     0.217464865062    12.000000000000
         C           -1.909138407352     0.208575332436    -0.012141134938    12.000000000000
         H            3.588196592648    -1.197817667564     0.053918865062     1.007825032230
         H            3.172188592648    -0.431346667564    -1.458350134938     1.007825032230
         H            1.275917592648    -1.878367667564    -0.674825134938     1.007825032230
         H           -0.997617407352    -1.716420667564    -0.037724134938     1.007825032230
         H           -1.139256407352    -0.979133667564     1.547115865062     1.007825032230
         H            0.703381492648     0.784267732436     0.839522965062     1.007825032230
         H            4.281338592648     1.184862332436     0.057101865062     1.007825032230
         H            2.615367592648     1.702805332436    -0.237467134938     1.007825032230
         H            3.044657592648     0.927617332436     1.294753865062     1.007825032230
         H           -3.729429407352     0.317469332436    -0.457201134938     1.007825032230

  Basis Set: AUG-CC-PVTZ
    Blend: AUG-CC-PVTZ
  Basis Set: (AUG-CC-PVTZ AUX)
    Blend: AUG-CC-PVTZ-JKFIT
	 Reference Energy          =    -382.9013167469814221 [Eh]
	 Singles Energy            =      -0.0000000000000000 [Eh]
	 Same-Spin Energy          =      -0.3831777898252980 [Eh]
	 Opposite-Spin Energy      =      -1.2546877846390347 [Eh]
	 Correlation Energy        =      -1.6378655744643327 [Eh]
	 Total Energy              =    -384.5391823214457645 [Eh]

	 ================> DF-SCS-MP2 Energies <==================
	-----------------------------------------------------------
	 SCS Same-Spin Scale       =       0.3333333333333333 [-]
	 SCS Opposite-Spin Scale   =       1.2000000000000000 [-]
	 SCS Same-Spin Energy      =      -0.1277259299417660 [Eh]
	 SCS Opposite-Spin Energy  =      -1.5056253415668417 [Eh]
	 SCS Correlation Energy    =      -1.6333512715086076 [Eh]
	 SCS Total Energy          =    -384.5346680184900379 [Eh]
	-----------------------------------------------------------

  Dipole Moment: [D]
     X:     0.1574      Y:    -1.4238      Z:     0.2344     Total:     1.4515

*** Psi4 exiting successfully. Buy a developer a beer!
