                               Psi4 1.4a3.dev225

  ==> Input File <==

--------------------------------------------------------------------------
#psi4
#
memory 32 gb

molecule  {
0 1
  O       -3.2271830    -0.3786580    -0.1569640
  O       -1.8275510     1.3993140    -0.2614160
  C        2.8225670    -0.4310850    -0.3953020
  C        1.4009980    -0.8942070    -0.2419560
  C       -0.9807690    -0.7586230     0.4926230
  C        0.3774919    -0.2020161     0.3948932
  C        3.1298050     0.9339520     0.2103920
  C       -2.0113430     0.2195500    -0.0192140
  H        3.4859920    -1.1868430     0.0468460
  H        3.0699840    -0.4203720    -1.4654230
  H        1.1737130    -1.8673930    -0.6818980
  H       -1.0998220    -1.7054460    -0.0447970
  H       -1.2414610    -0.9681590     1.5400430
  H        0.5929560     0.7502750     0.8121930
  H        4.1791340     1.1958370     0.0500290
  H        2.5131630     1.7137800    -0.2445400
  H        2.9424530     0.9385920     1.2876810
  H       -3.8316340     0.3284440    -0.4642740
units angstrom
no_reorient  #important for SAPT in psi4, default
symmetry c1  #important for SAPT in psi4, default
}

set PROPERTIES_ORIGIN ["COM"]
properties('MP2/aug-cc-pvtz', properties = ['dipole'])
--------------------------------------------------------------------------

    Molecular point group: c1
  Charge       = 0
  Multiplicity = 1
  Basis Set: AUG-CC-PVTZ
    Blend: AUG-CC-PVTZ
  Basis Set: (AUG-CC-PVTZ AUX)
    Blend: AUG-CC-PVTZ-JKFIT

    Orbital Energies [Eh]
    ---------------------

    Doubly Occupied:

       1A    -20.616214     2A    -20.552363     3A    -11.390820
       4A    -11.254017     5A    -11.242101     6A    -11.235203
       7A    -11.230424     8A    -11.214706     9A     -1.459996
      10A     -1.357444    11A     -1.101054    12A     -1.048053
      13A     -0.954110    14A     -0.872363    15A     -0.806035
      16A     -0.744970    17A     -0.703597    18A     -0.683102
      19A     -0.656332    20A     -0.624819    21A     -0.612636
      22A     -0.597873    23A     -0.581377    24A     -0.551131
      25A     -0.537677    26A     -0.498634    27A     -0.490720
      28A     -0.487278    29A     -0.481383    30A     -0.456009
      31A     -0.342536

  @DF-RHF Final Energy:  -382.89759007176161

   => Energetics <=

    Nuclear Repulsion Energy =            354.8451342560218791
    One-Electron Energy =               -1224.7154989262849085
    Two-Electron Energy =                 486.9727745985014167
    Total Energy =                       -382.8975900717616128
  Basis Set: (AUG-CC-PVTZ AUX)
    Blend: AUG-CC-PVTZ-RI
    Molecular point group: c1

    Geometry (in Angstrom), charge = 0, multiplicity = 1:

       Center              X                  Y                   Z               Mass
    ------------   -----------------  -----------------  -----------------  -----------------
         O           -3.121032812489    -0.391854634740    -0.152122002579    15.994914619570
         O           -1.721400812489     1.386117365260    -0.256574002579    15.994914619570
         C            2.928717187511    -0.444281634740    -0.390460002579    12.000000000000
         C            1.507148187511    -0.907403634740    -0.237114002579    12.000000000000
         C           -0.874618812489    -0.771819634740     0.497464997421    12.000000000000
         C            0.483642087511    -0.215212734740     0.399735197421    12.000000000000
         C            3.235955187511     0.920755365260     0.215233997421    12.000000000000
         C           -1.905192812489     0.206353365260    -0.014372002579    12.000000000000
         H            3.592142187511    -1.200039634740     0.051687997421     1.007825032230
         H            3.176134187511    -0.433568634740    -1.460581002579     1.007825032230
         H            1.279863187511    -1.880589634740    -0.677056002579     1.007825032230
         H           -0.993671812489    -1.718642634740    -0.039955002579     1.007825032230
         H           -1.135310812489    -0.981355634740     1.544884997421     1.007825032230
         H            0.699106187511     0.737078365260     0.817034997421     1.007825032230
         H            4.285284187511     1.182640365260     0.054870997421     1.007825032230
         H            2.619313187511     1.700583365260    -0.239698002579     1.007825032230
         H            3.048603187511     0.925395365260     1.292522997421     1.007825032230
         H           -3.725483812489     0.315247365260    -0.459432002579     1.007825032230

  Basis Set: AUG-CC-PVTZ
    Blend: AUG-CC-PVTZ
  Basis Set: (AUG-CC-PVTZ AUX)
    Blend: AUG-CC-PVTZ-JKFIT
	 Reference Energy          =    -382.8975900717616128 [Eh]
	 Singles Energy            =      -0.0000000000000000 [Eh]
	 Same-Spin Energy          =      -0.3837812946664936 [Eh]
	 Opposite-Spin Energy      =      -1.2558582531755680 [Eh]
	 Correlation Energy        =      -1.6396395478420616 [Eh]
	 Total Energy              =    -384.5372296196036928 [Eh]

	 ================> DF-SCS-MP2 Energies <==================
	-----------------------------------------------------------
	 SCS Same-Spin Scale       =       0.3333333333333333 [-]
	 SCS Opposite-Spin Scale   =       1.2000000000000000 [-]
	 SCS Same-Spin Energy      =      -0.1279270982221645 [Eh]
	 SCS Opposite-Spin Energy  =      -1.5070299038106816 [Eh]
	 SCS Correlation Energy    =      -1.6349570020328461 [Eh]
	 SCS Total Energy          =    -384.5325470737944329 [Eh]
	-----------------------------------------------------------

  Dipole Moment: [D]
     X:     0.1615      Y:    -1.4133      Z:     0.2409     Total:     1.4428

*** Psi4 exiting successfully. Buy a developer a beer!
