                               Psi4 1.4a3.dev225

  ==> Input File <==

--------------------------------------------------------------------------
#psi4
#
memory 32 gb

molecule  {
0 1
  O       -3.2271830    -0.3786580    -0.1569640
  O       -1.8275510     1.3993140    -0.2614160
  C        2.8225670    -0.4310850    -0.3953020
  C        1.4009980    -0.8942070    -0.2419560
  C       -0.9807690    -0.7586230     0.4926230
  C        0.4143070    -0.2269140     0.3719860
  C        3.1298050     0.9339520     0.2103920
  C       -2.0113430     0.2195500    -0.0192140
  H        3.4859920    -1.1868430     0.0468460
  H        3.0699840    -0.4203720    -1.4654230
  H        1.1737130    -1.8673930    -0.6818980
  H       -1.0976479    -1.6881556    -0.0349829
  H       -1.2414610    -0.9681590     1.5400430
  H        0.5929560     0.7502750     0.8121930
  H        4.1791340     1.1958370     0.0500290
  H        2.5131630     1.7137800    -0.2445400
  H        2.9424530     0.9385920     1.2876810
  H       -3.8316340     0.3284440    -0.4642740
units angstrom
no_reorient  #important for SAPT in psi4, default
symmetry c1  #important for SAPT in psi4, default
}

set PROPERTIES_ORIGIN ["COM"]
properties('MP2/aug-cc-pvtz', properties = ['dipole'])
--------------------------------------------------------------------------

    Molecular point group: c1
  Charge       = 0
  Multiplicity = 1
  Basis Set: AUG-CC-PVTZ
    Blend: AUG-CC-PVTZ
  Basis Set: (AUG-CC-PVTZ AUX)
    Blend: AUG-CC-PVTZ-JKFIT

    Orbital Energies [Eh]
    ---------------------

    Doubly Occupied:

       1A    -20.616487     2A    -20.552147     3A    -11.391076
       4A    -11.252481     5A    -11.235103     6A    -11.231875
       7A    -11.229820     8A    -11.214372     9A     -1.460042
      10A     -1.357291    11A     -1.103689    12A     -1.046239
      13A     -0.961109    14A     -0.870611    15A     -0.807960
      16A     -0.741239    17A     -0.703161    18A     -0.682744
      19A     -0.656043    20A     -0.625212    21A     -0.612712
      22A     -0.600876    23A     -0.581460    24A     -0.554660
      25A     -0.529848    26A     -0.498710    27A     -0.492444
      28A     -0.484456    29A     -0.479404    30A     -0.455770
      31A     -0.354505

  @DF-RHF Final Energy:  -382.90391397682379

   => Energetics <=

    Nuclear Repulsion Energy =            355.0876028118684644
    One-Electron Energy =               -1225.2159394527136556
    Two-Electron Energy =                 487.2244226640214038
    Total Energy =                       -382.9039139768237874
  Basis Set: (AUG-CC-PVTZ AUX)
    Blend: AUG-CC-PVTZ-RI
    Molecular point group: c1

    Geometry (in Angstrom), charge = 0, multiplicity = 1:

       Center              X                  Y                   Z               Mass
    ------------   -----------------  -----------------  -----------------  -----------------
         O           -3.124924982096    -0.389388133128    -0.149798867961    15.994914619570
         O           -1.725292982096     1.388583866872    -0.254250867961    15.994914619570
         C            2.924825017904    -0.441815133128    -0.388136867961    12.000000000000
         C            1.503256017904    -0.904937133128    -0.234790867961    12.000000000000
         C           -0.878510982096    -0.769353133128     0.499788132039    12.000000000000
         C            0.516565017904    -0.237644133128     0.379151132039    12.000000000000
         C            3.232063017904     0.923221866872     0.217557132039    12.000000000000
         C           -1.909084982096     0.208819866872    -0.012048867961    12.000000000000
         H            3.588250017904    -1.197573133128     0.054011132039     1.007825032230
         H            3.172242017904    -0.431102133128    -1.458257867961     1.007825032230
         H            1.275971017904    -1.878123133128    -0.674732867961     1.007825032230
         H           -0.995389882096    -1.698885733128    -0.027817767961     1.007825032230
         H           -1.139202982096    -0.978889133128     1.547208132039     1.007825032230
         H            0.695214017904     0.739544866872     0.819358132039     1.007825032230
         H            4.281392017904     1.185106866872     0.057194132039     1.007825032230
         H            2.615421017904     1.703049866872    -0.237374867961     1.007825032230
         H            3.044711017904     0.927861866872     1.294846132039     1.007825032230
         H           -3.729375982096     0.317713866872    -0.457108867961     1.007825032230

  Basis Set: AUG-CC-PVTZ
    Blend: AUG-CC-PVTZ
  Basis Set: (AUG-CC-PVTZ AUX)
    Blend: AUG-CC-PVTZ-JKFIT
	 Reference Energy          =    -382.9039139768237874 [Eh]
	 Singles Energy            =      -0.0000000000000000 [Eh]
	 Same-Spin Energy          =      -0.3829848473741047 [Eh]
	 Opposite-Spin Energy      =      -1.2540821118043184 [Eh]
	 Correlation Energy        =      -1.6370669591784230 [Eh]
	 Total Energy              =    -384.5409809360021995 [Eh]

	 ================> DF-SCS-MP2 Energies <==================
	-----------------------------------------------------------
	 SCS Same-Spin Scale       =       0.3333333333333333 [-]
	 SCS Opposite-Spin Scale   =       1.2000000000000000 [-]
	 SCS Same-Spin Energy      =      -0.1276616157913682 [Eh]
	 SCS Opposite-Spin Energy  =      -1.5048985341651819 [Eh]
	 SCS Correlation Energy    =      -1.6325601499565501 [Eh]
	 SCS Total Energy          =    -384.5364741267803197 [Eh]
	-----------------------------------------------------------

  Dipole Moment: [D]
     X:     0.1621      Y:    -1.4214      Z:     0.2396     Total:     1.4506

*** Psi4 exiting successfully. Buy a developer a beer!
