                               Psi4 1.3.2 release

  ==> Input File <==

--------------------------------------------------------------------------
#psi4
#
memory 32 gb

molecule  {
0 1
  O        3.1501630     0.3869830     0.0122970
  O        1.7226580    -1.3643080    -0.2059640
  C       -2.9163610     0.3476720    -0.5022120
  C       -1.4960630     0.8252950    -0.4074400
  C        0.8585340     0.8235180     0.4136200
  C       -0.5106005     0.2248844     0.3601627
  C       -3.2476580    -0.8824200     0.3361610
  C        1.9107340    -0.1856640     0.0271730
  H       -3.5825680     1.1749950    -0.2170990
  H       -3.1475630     0.1432210    -1.5599470
  H       -1.2553160     1.7190160    -0.9933200
  H        1.0152635     1.7158836    -0.2095123
  H        1.0972480     1.1531100     1.4329360
  H       -0.7130820    -0.6444280     0.9033180
  H       -4.2956480    -1.1625270     0.2123440
  H       -2.6314050    -1.7369230     0.0388270
  H       -3.0739380    -0.6897760     1.4001060
  H        3.7686820    -0.3352680    -0.2293440
units angstrom
no_reorient  #important for SAPT in psi4, default
symmetry c1  #important for SAPT in psi4, default
}

set PROPERTIES_ORIGIN ["COM"]
properties('MP2/aug-cc-pvtz', properties = ['dipole'])
--------------------------------------------------------------------------

    Molecular point group: c1
  Charge       = 0
  Multiplicity = 1
  Basis Set: AUG-CC-PVTZ
    Blend: AUG-CC-PVTZ
  Basis Set: (AUG-CC-PVTZ AUX)
    Blend: AUG-CC-PVTZ-JKFIT

    Orbital Energies [Eh]
    ---------------------

    Doubly Occupied:

       1A    -20.615102     2A    -20.552138     3A    -11.389278
       4A    -11.254287     5A    -11.242125     6A    -11.235219
       7A    -11.229905     8A    -11.215032     9A     -1.458101
      10A     -1.357648    11A     -1.098786    12A     -1.045798
      13A     -0.954643    14A     -0.872133    15A     -0.803123
      16A     -0.747071    17A     -0.703184    18A     -0.681405
      19A     -0.652546    20A     -0.626579    21A     -0.611924
      22A     -0.597847    23A     -0.581646    24A     -0.546173
      25A     -0.539836    26A     -0.498005    27A     -0.489550
      28A     -0.487934    29A     -0.481236    30A     -0.454775
      31A     -0.344038

  @DF-RHF Final Energy:  -382.89682438515251

   => Energetics <=

    Nuclear Repulsion Energy =            354.7557189240305888
    One-Electron Energy =               -1224.5709538721541776
    Two-Electron Energy =                 486.9184105629710757
    Total Energy =                       -382.8968243851525131
  Basis Set: (AUG-CC-PVTZ AUX)
    Blend: AUG-CC-PVTZ-RI
    Molecular point group: c1

    Geometry (in Angstrom), charge = 0, multiplicity = 1:

       Center              X                  Y                   Z               Mass
    ------------   -----------------  -----------------  -----------------  -----------------
         O            3.148368005868     0.390884504159     0.008647528012    15.994914619570
         O            1.720863005868    -1.360406495841    -0.209613471988    15.994914619570
         C           -2.918155994132     0.351573504159    -0.505861471988    12.000000000000
         C           -1.497857994132     0.829196504159    -0.411089471988    12.000000000000
         C            0.856739005868     0.827419504159     0.409970528012    12.000000000000
         C           -0.512395494132     0.228785904159     0.356513228012    12.000000000000
         C           -3.249452994132    -0.878518495841     0.332511528012    12.000000000000
         C            1.908939005868    -0.181762495841     0.023523528012    12.000000000000
         H           -3.584362994132     1.178896504159    -0.220748471988     1.007825032230
         H           -3.149357994132     0.147122504159    -1.563596471988     1.007825032230
         H           -1.257110994132     1.722917504159    -0.996969471988     1.007825032230
         H            1.013468505868     1.719785104159    -0.213161771988     1.007825032230
         H            1.095453005868     1.157011504159     1.429286528012     1.007825032230
         H           -0.714876994132    -0.640526495841     0.899668528012     1.007825032230
         H           -4.297442994132    -1.158625495841     0.208694528012     1.007825032230
         H           -2.633199994132    -1.733021495841     0.035177528012     1.007825032230
         H           -3.075732994132    -0.685874495841     1.396456528012     1.007825032230
         H            3.766887005868    -0.331366495841    -0.232993471988     1.007825032230

  Basis Set: AUG-CC-PVTZ
    Blend: AUG-CC-PVTZ
  Basis Set: (AUG-CC-PVTZ AUX)
    Blend: AUG-CC-PVTZ-JKFIT
	 Reference Energy          =    -382.8968243851525131 [Eh]
	 Singles Energy            =      -0.0000000000000000 [Eh]
	 Same-Spin Energy          =      -0.3836069643384545 [Eh]
	 Opposite-Spin Energy      =      -1.2557618389077225 [Eh]
	 Correlation Energy        =      -1.6393688032461771 [Eh]
	 Total Energy              =    -384.5361931883986699 [Eh]

	 ================> DF-SCS-MP2 Energies <==================
	-----------------------------------------------------------
	 SCS Same-Spin Scale       =       0.3333333333333333 [-]
	 SCS Opposite-Spin Scale   =       1.2000000000000000 [-]
	 SCS Same-Spin Energy      =      -0.1278689881128182 [Eh]
	 SCS Opposite-Spin Energy  =      -1.5069142066892669 [Eh]
	 SCS Correlation Energy    =      -1.6347831948020850 [Eh]
	 SCS Total Energy          =    -384.5316075799545956 [Eh]
	-----------------------------------------------------------

  Dipole Moment: [D]
     X:    -0.1859      Y:     1.4024      Z:     0.2065     Total:     1.4296

*** Psi4 exiting successfully. Buy a developer a beer!
