                               Psi4 1.4a3.dev225

  ==> Input File <==

--------------------------------------------------------------------------
#psi4
#
memory 32 gb

molecule  {
0 1
  O       -3.2271830    -0.3786580    -0.1569640
  O       -1.8275510     1.3993140    -0.2614160
  C        2.8225670    -0.4310850    -0.3953020
  C        1.4009980    -0.8942070    -0.2419560
  C       -0.9807690    -0.7586230     0.4926230
  C        0.4143070    -0.2269140     0.3719860
  C        3.1298050     0.9339520     0.2103920
  C       -2.0143602     0.2001828    -0.0152380
  H        3.4859920    -1.1868430     0.0468460
  H        3.0699840    -0.4203720    -1.4654230
  H        1.1737130    -1.8673930    -0.6818980
  H       -1.0998220    -1.7054460    -0.0447970
  H       -1.2414610    -0.9681590     1.5400430
  H        0.5929560     0.7502750     0.8121930
  H        4.1791340     1.1958370     0.0500290
  H        2.5131630     1.7137800    -0.2445400
  H        2.9424530     0.9385920     1.2876810
  H       -3.8316340     0.3284440    -0.4642740
units angstrom
no_reorient  #important for SAPT in psi4, default
symmetry c1  #important for SAPT in psi4, default
}

set PROPERTIES_ORIGIN ["COM"]
properties('MP2/aug-cc-pvtz', properties = ['dipole'])
--------------------------------------------------------------------------

    Molecular point group: c1
  Charge       = 0
  Multiplicity = 1
  Basis Set: AUG-CC-PVTZ
    Blend: AUG-CC-PVTZ
  Basis Set: (AUG-CC-PVTZ AUX)
    Blend: AUG-CC-PVTZ-JKFIT

    Orbital Energies [Eh]
    ---------------------

    Doubly Occupied:

       1A    -20.619733     2A    -20.548516     3A    -11.392875
       4A    -11.255465     5A    -11.235523     6A    -11.232504
       7A    -11.229979     8A    -11.214357     9A     -1.460899
      10A     -1.347399    11A     -1.104268    12A     -1.047374
      13A     -0.962786    14A     -0.871991    15A     -0.811286
      16A     -0.740369    17A     -0.702226    18A     -0.682307
      19A     -0.656905    20A     -0.625429    21A     -0.612741
      22A     -0.599377    23A     -0.578927    24A     -0.555087
      25A     -0.529022    26A     -0.498727    27A     -0.492446
      28A     -0.482544    29A     -0.474589    30A     -0.454324
      31A     -0.355119

  @DF-RHF Final Energy:  -382.90171022425272

   => Energetics <=

    Nuclear Repulsion Energy =            354.9221562634435827
    One-Electron Energy =               -1224.8975486345702848
    Two-Electron Energy =                 487.0736821468739208
    Total Energy =                       -382.9017102242527244
  Basis Set: (AUG-CC-PVTZ AUX)
    Blend: AUG-CC-PVTZ-RI
    Molecular point group: c1

    Geometry (in Angstrom), charge = 0, multiplicity = 1:

       Center              X                  Y                   Z               Mass
    ------------   -----------------  -----------------  -----------------  -----------------
         O           -3.124588362837    -0.387197931462    -0.150130434027    15.994914619570
         O           -1.724956362837     1.390774068538    -0.254582434027    15.994914619570
         C            2.925161637163    -0.439624931462    -0.388468434027    12.000000000000
         C            1.503592637163    -0.902746931462    -0.235122434027    12.000000000000
         C           -0.878174362837    -0.767162931462     0.499456565973    12.000000000000
         C            0.516901637163    -0.235453931462     0.378819565973    12.000000000000
         C            3.232399637163     0.925412068538     0.217225565973    12.000000000000
         C           -1.911765562837     0.191642868538    -0.008404434027    12.000000000000
         H            3.588586637163    -1.195382931462     0.053679565973     1.007825032230
         H            3.172578637163    -0.428911931462    -1.458589434027     1.007825032230
         H            1.276307637163    -1.875932931462    -0.675064434027     1.007825032230
         H           -0.997227362837    -1.713985931462    -0.037963434027     1.007825032230
         H           -1.138866362837    -0.976698931462     1.546876565973     1.007825032230
         H            0.695550637163     0.741735068538     0.819026565973     1.007825032230
         H            4.281728637163     1.187297068538     0.056862565973     1.007825032230
         H            2.615757637163     1.705240068538    -0.237706434027     1.007825032230
         H            3.045047637163     0.930052068538     1.294514565973     1.007825032230
         H           -3.729039362837     0.319904068538    -0.457440434027     1.007825032230

  Basis Set: AUG-CC-PVTZ
    Blend: AUG-CC-PVTZ
  Basis Set: (AUG-CC-PVTZ AUX)
    Blend: AUG-CC-PVTZ-JKFIT
	 Reference Energy          =    -382.9017102242527244 [Eh]
	 Singles Energy            =      -0.0000000000000000 [Eh]
	 Same-Spin Energy          =      -0.3833936745855599 [Eh]
	 Opposite-Spin Energy      =      -1.2549003737101163 [Eh]
	 Correlation Energy        =      -1.6382940482956763 [Eh]
	 Total Energy              =    -384.5400042725484013 [Eh]

	 ================> DF-SCS-MP2 Energies <==================
	-----------------------------------------------------------
	 SCS Same-Spin Scale       =       0.3333333333333333 [-]
	 SCS Opposite-Spin Scale   =       1.2000000000000000 [-]
	 SCS Same-Spin Energy      =      -0.1277978915285199 [Eh]
	 SCS Opposite-Spin Energy  =      -1.5058804484521395 [Eh]
	 SCS Correlation Energy    =      -1.6336783399806596 [Eh]
	 SCS Total Energy          =    -384.5353885642333580 [Eh]
	-----------------------------------------------------------

  Dipole Moment: [D]
     X:     0.1222      Y:    -1.5411      Z:     0.2576     Total:     1.5673

*** Psi4 exiting successfully. Buy a developer a beer!
