                               Psi4 1.4a3.dev225

  ==> Input File <==

--------------------------------------------------------------------------
#psi4
#
memory 32 gb

molecule  {
0 1
  O       -3.2271830    -0.3786580    -0.1569640
  O       -1.8275510     1.3993140    -0.2614160
  C        2.8225670    -0.4310850    -0.3953020
  C        1.4009980    -0.8942070    -0.2419560
  C       -0.9807690    -0.7586230     0.4926230
  C        0.4143070    -0.2269140     0.3719860
  C        3.1298050     0.9339520     0.2103920
  C       -2.0113430     0.2195500    -0.0192140
  H        3.4859920    -1.1868430     0.0468460
  H        3.0699840    -0.4203720    -1.4654230
  H        1.1737130    -1.8673930    -0.6818980
  H       -1.1019961    -1.7227364    -0.0546111
  H       -1.2414610    -0.9681590     1.5400430
  H        0.5929560     0.7502750     0.8121930
  H        4.1791340     1.1958370     0.0500290
  H        2.5131630     1.7137800    -0.2445400
  H        2.9424530     0.9385920     1.2876810
  H       -3.8316340     0.3284440    -0.4642740
units angstrom
no_reorient  #important for SAPT in psi4, default
symmetry c1  #important for SAPT in psi4, default
}

set PROPERTIES_ORIGIN ["COM"]
properties('MP2/aug-cc-pvtz', properties = ['dipole'])
--------------------------------------------------------------------------

    Molecular point group: c1
  Charge       = 0
  Multiplicity = 1
  Basis Set: AUG-CC-PVTZ
    Blend: AUG-CC-PVTZ
  Basis Set: (AUG-CC-PVTZ AUX)
    Blend: AUG-CC-PVTZ-JKFIT

    Orbital Energies [Eh]
    ---------------------

    Doubly Occupied:

       1A    -20.616362     2A    -20.552339     3A    -11.391330
       4A    -11.256988     5A    -11.235196     6A    -11.232088
       7A    -11.229857     8A    -11.214436     9A     -1.460018
      10A     -1.357375    11A     -1.102904    12A     -1.044977
      13A     -0.960566    14A     -0.870680    15A     -0.807109
      16A     -0.739180    17A     -0.703185    18A     -0.681906
      19A     -0.655523    20A     -0.623956    21A     -0.612767
      22A     -0.599893    23A     -0.581560    24A     -0.553393
      25A     -0.527277    26A     -0.498761    27A     -0.492473
      28A     -0.484302    29A     -0.479533    30A     -0.455668
      31A     -0.354584

  @DF-RHF Final Energy:  -382.90321354507381

   => Energetics <=

    Nuclear Repulsion Energy =            354.8969096036669271
    One-Electron Energy =               -1224.8478804359540391
    Two-Electron Energy =                 487.0477572872133010
    Total Energy =                       -382.9032135450738110
  Basis Set: (AUG-CC-PVTZ AUX)
    Blend: AUG-CC-PVTZ-RI
    Molecular point group: c1

    Geometry (in Angstrom), charge = 0, multiplicity = 1:

       Center              X                  Y                   Z               Mass
    ------------   -----------------  -----------------  -----------------  -----------------
         O           -3.124886564470    -0.389082601590    -0.149625447041    15.994914619570
         O           -1.725254564470     1.388889398410    -0.254077447041    15.994914619570
         C            2.924863435530    -0.441509601590    -0.387963447041    12.000000000000
         C            1.503294435530    -0.904631601590    -0.234617447041    12.000000000000
         C           -0.878472564470    -0.769047601590     0.499961552959    12.000000000000
         C            0.516603435530    -0.237338601590     0.379324552959    12.000000000000
         C            3.232101435530     0.923527398410     0.217730552959    12.000000000000
         C           -1.909046564470     0.209125398410    -0.011875447041    12.000000000000
         H            3.588288435530    -1.197267601590     0.054184552959     1.007825032230
         H            3.172280435530    -0.430796601590    -1.458084447041     1.007825032230
         H            1.276009435530    -1.877817601590    -0.674559447041     1.007825032230
         H           -0.999699664470    -1.733161001590    -0.047272547041     1.007825032230
         H           -1.139164564470    -0.978583601590     1.547381552959     1.007825032230
         H            0.695252435530     0.739850398410     0.819531552959     1.007825032230
         H            4.281430435530     1.185412398410     0.057367552959     1.007825032230
         H            2.615459435530     1.703355398410    -0.237201447041     1.007825032230
         H            3.044749435530     0.928167398410     1.295019552959     1.007825032230
         H           -3.729337564470     0.318019398410    -0.456935447041     1.007825032230

  Basis Set: AUG-CC-PVTZ
    Blend: AUG-CC-PVTZ
  Basis Set: (AUG-CC-PVTZ AUX)
    Blend: AUG-CC-PVTZ-JKFIT
	 Reference Energy          =    -382.9032135450738110 [Eh]
	 Singles Energy            =      -0.0000000000000000 [Eh]
	 Same-Spin Energy          =      -0.3830453193519188 [Eh]
	 Opposite-Spin Energy      =      -1.2543986416806618 [Eh]
	 Correlation Energy        =      -1.6374439610325806 [Eh]
	 Total Energy              =    -384.5406575061064132 [Eh]

	 ================> DF-SCS-MP2 Energies <==================
	-----------------------------------------------------------
	 SCS Same-Spin Scale       =       0.3333333333333333 [-]
	 SCS Opposite-Spin Scale   =       1.2000000000000000 [-]
	 SCS Same-Spin Energy      =      -0.1276817731173062 [Eh]
	 SCS Opposite-Spin Energy  =      -1.5052783700167942 [Eh]
	 SCS Correlation Energy    =      -1.6329601431341005 [Eh]
	 SCS Total Energy          =    -384.5361736882078958 [Eh]
	-----------------------------------------------------------

  Dipole Moment: [D]
     X:     0.1687      Y:    -1.4115      Z:     0.2404     Total:     1.4418

*** Psi4 exiting successfully. Buy a developer a beer!
