                               Psi4 1.3.2 release

  ==> Input File <==

--------------------------------------------------------------------------
#psi4
#
memory 32 gb

molecule  {
0 1
  O        3.1501630     0.3869830     0.0122970
  O        1.7226580    -1.3643080    -0.2059640
  C       -2.9163610     0.3476720    -0.5022120
  C       -1.5233283     0.8953386    -0.3844287
  C        0.8585340     0.8235180     0.4136200
  C       -0.5245990     0.2621860     0.3264500
  C       -3.2476580    -0.8824200     0.3361610
  C        1.9107340    -0.1856640     0.0271730
  H       -3.5359065     1.2076593    -0.2086650
  H       -3.1475630     0.1432210    -1.5599470
  H       -1.2553160     1.7190160    -0.9933200
  H        0.9787830     1.7133270    -0.2211670
  H        1.0972480     1.1531100     1.4329360
  H       -0.7130820    -0.6444280     0.9033180
  H       -4.2956480    -1.1625270     0.2123440
  H       -2.6314050    -1.7369230     0.0388270
  H       -3.0739380    -0.6897760     1.4001060
  H        3.7686820    -0.3352680    -0.2293440
units angstrom
no_reorient  #important for SAPT in psi4, default
symmetry c1  #important for SAPT in psi4, default
}

set PROPERTIES_ORIGIN ["COM"]
properties('MP2/aug-cc-pvtz', properties = ['dipole'])
--------------------------------------------------------------------------

    Molecular point group: c1
  Charge       = 0
  Multiplicity = 1
  Basis Set: AUG-CC-PVTZ
    Blend: AUG-CC-PVTZ
  Basis Set: (AUG-CC-PVTZ AUX)
    Blend: AUG-CC-PVTZ-JKFIT

    Orbital Energies [Eh]
    ---------------------

    Doubly Occupied:

       1A    -20.615610     2A    -20.552779     3A    -11.390361
       4A    -11.253659     5A    -11.238245     6A    -11.236843
       7A    -11.230120     8A    -11.216084     9A     -1.458538
      10A     -1.358098    11A     -1.099202    12A     -1.045514
      13A     -0.956311    14A     -0.871750    15A     -0.803742
      16A     -0.744480    17A     -0.703184    18A     -0.682230
      19A     -0.653540    20A     -0.626159    21A     -0.613004
      22A     -0.598664    23A     -0.580969    24A     -0.550706
      25A     -0.528603    26A     -0.501375    27A     -0.492478
      28A     -0.485706    29A     -0.481341    30A     -0.455356
      31A     -0.344605

  @DF-RHF Final Energy:  -382.89660002779095

   => Energetics <=

    Nuclear Repulsion Energy =            354.4518017984810285
    One-Electron Energy =               -1223.9582911106817846
    Two-Electron Energy =                 486.6098892844098032
    Total Energy =                       -382.8966000277909529
  Basis Set: (AUG-CC-PVTZ AUX)
    Blend: AUG-CC-PVTZ-RI
    Molecular point group: c1

    Geometry (in Angstrom), charge = 0, multiplicity = 1:

       Center              X                  Y                   Z               Mass
    ------------   -----------------  -----------------  -----------------  -----------------
         O            3.152619019256     0.379325742945     0.009801774692    15.994914619570
         O            1.725114019256    -1.371965257055    -0.208459225308    15.994914619570
         C           -2.913904980744     0.340014742945    -0.504707225308    12.000000000000
         C           -1.520872280744     0.887681342945    -0.386923925308    12.000000000000
         C            0.860990019256     0.815860742945     0.411124774692    12.000000000000
         C           -0.522142980744     0.254528742945     0.323954774692    12.000000000000
         C           -3.245201980744    -0.890077257055     0.333665774692    12.000000000000
         C            1.913190019256    -0.193321257055     0.024677774692    12.000000000000
         H           -3.533450480744     1.200002042945    -0.211160225308     1.007825032230
         H           -3.145106980744     0.135563742945    -1.562442225308     1.007825032230
         H           -1.252859980744     1.711358742945    -0.995815225308     1.007825032230
         H            0.981239019256     1.705669742945    -0.223662225308     1.007825032230
         H            1.099704019256     1.145452742945     1.430440774692     1.007825032230
         H           -0.710625980744    -0.652085257055     0.900822774692     1.007825032230
         H           -4.293191980744    -1.170184257055     0.209848774692     1.007825032230
         H           -2.628948980744    -1.744580257055     0.036331774692     1.007825032230
         H           -3.071481980744    -0.697433257055     1.397610774692     1.007825032230
         H            3.771138019256    -0.342925257055    -0.231839225308     1.007825032230

  Basis Set: AUG-CC-PVTZ
    Blend: AUG-CC-PVTZ
  Basis Set: (AUG-CC-PVTZ AUX)
    Blend: AUG-CC-PVTZ-JKFIT
	 Reference Energy          =    -382.8966000277909529 [Eh]
	 Singles Energy            =      -0.0000000000000000 [Eh]
	 Same-Spin Energy          =      -0.3836239031502855 [Eh]
	 Opposite-Spin Energy      =      -1.2557747767743581 [Eh]
	 Correlation Energy        =      -1.6393986799246436 [Eh]
	 Total Energy              =    -384.5359987077155779 [Eh]

	 ================> DF-SCS-MP2 Energies <==================
	-----------------------------------------------------------
	 SCS Same-Spin Scale       =       0.3333333333333333 [-]
	 SCS Opposite-Spin Scale   =       1.2000000000000000 [-]
	 SCS Same-Spin Energy      =      -0.1278746343834285 [Eh]
	 SCS Opposite-Spin Energy  =      -1.5069297321292296 [Eh]
	 SCS Correlation Energy    =      -1.6348043665126581 [Eh]
	 SCS Total Energy          =    -384.5314043943035927 [Eh]
	-----------------------------------------------------------

  Dipole Moment: [D]
     X:    -0.1625      Y:     1.3574      Z:     0.1524     Total:     1.3756

*** Psi4 exiting successfully. Buy a developer a beer!
