                               Psi4 1.3.2 release

  ==> Input File <==

--------------------------------------------------------------------------
#psi4
#
memory 32 gb

molecule  {
0 1
  O        3.1501630     0.3869830     0.0122970
  O        1.7226580    -1.3643080    -0.2059640
  C       -2.9163610     0.3476720    -0.5022120
  C       -1.4960630     0.8252950    -0.4074400
  C        0.8585340     0.8235180     0.4136200
  C       -0.5245990     0.2621860     0.3264500
  C       -3.2476580    -0.8824200     0.3361610
  C        1.9416647     0.0081742     0.0655144
  H       -3.5825680     1.1749950    -0.2170990
  H       -3.1475630     0.1432210    -1.5599470
  H       -1.2553160     1.7190160    -0.9933200
  H        0.9787830     1.7133270    -0.2211670
  H        1.0972480     1.1531100     1.4329360
  H       -0.7130820    -0.6444280     0.9033180
  H       -4.2956480    -1.1625270     0.2123440
  H       -2.6314050    -1.7369230     0.0388270
  H       -3.0739380    -0.6897760     1.4001060
  H        3.7686820    -0.3352680    -0.2293440
units angstrom
no_reorient  #important for SAPT in psi4, default
symmetry c1  #important for SAPT in psi4, default
}

set PROPERTIES_ORIGIN ["COM"]
properties('MP2/aug-cc-pvtz', properties = ['dipole'])
--------------------------------------------------------------------------

    Molecular point group: c1
  Charge       = 0
  Multiplicity = 1
  Basis Set: AUG-CC-PVTZ
    Blend: AUG-CC-PVTZ
  Basis Set: (AUG-CC-PVTZ AUX)
    Blend: AUG-CC-PVTZ-JKFIT

    Orbital Energies [Eh]
    ---------------------

    Doubly Occupied:

       1A    -20.646189     2A    -20.513605     3A    -11.403372
       4A    -11.261464     5A    -11.239164     6A    -11.237505
       7A    -11.231304     8A    -11.214368     9A     -1.498976
      10A     -1.247462    11A     -1.115413    12A     -1.063548
      13A     -0.977833    14A     -0.886794    15A     -0.842744
      16A     -0.744057    17A     -0.706527    18A     -0.697037
      19A     -0.675992    20A     -0.634688    21A     -0.612629
      22A     -0.605126    23A     -0.566372    24A     -0.543818
      25A     -0.509331    26A     -0.498099    27A     -0.493337
      28A     -0.483350    29A     -0.423396    30A     -0.415010
      31A     -0.357766

  @DF-RHF Final Energy:  -382.83785872627442

   => Energetics <=

    Nuclear Repulsion Energy =            354.6893699813031162
    One-Electron Energy =               -1224.3619108040452375
    Two-Electron Energy =                 486.8346820964677022
    Total Energy =                       -382.8378587262744190
  Basis Set: (AUG-CC-PVTZ AUX)
    Blend: AUG-CC-PVTZ-RI
    Molecular point group: c1

    Geometry (in Angstrom), charge = 0, multiplicity = 1:

       Center              X                  Y                   Z               Mass
    ------------   -----------------  -----------------  -----------------  -----------------
         O            3.146909048730     0.366591108450     0.008263559932    15.994914619570
         O            1.719404048730    -1.384699891550    -0.209997440068    15.994914619570
         C           -2.919614951270     0.327280108450    -0.506245440068    12.000000000000
         C           -1.499316951270     0.804903108450    -0.411473440068    12.000000000000
         C            0.855280048730     0.803126108450     0.409586559932    12.000000000000
         C           -0.527852951270     0.241794108450     0.322416559932    12.000000000000
         C           -3.250911951270    -0.902811891550     0.332127559932    12.000000000000
         C            1.938410748730    -0.012217691550     0.061480959932    12.000000000000
         H           -3.585821951270     1.154603108450    -0.221132440068     1.007825032230
         H           -3.150816951270     0.122829108450    -1.563980440068     1.007825032230
         H           -1.258569951270     1.698624108450    -0.997353440068     1.007825032230
         H            0.975529048730     1.692935108450    -0.225200440068     1.007825032230
         H            1.093994048730     1.132718108450     1.428902559932     1.007825032230
         H           -0.716335951270    -0.664819891550     0.899284559932     1.007825032230
         H           -4.298901951270    -1.182918891550     0.208310559932     1.007825032230
         H           -2.634658951270    -1.757314891550     0.034793559932     1.007825032230
         H           -3.077191951270    -0.710167891550     1.396072559932     1.007825032230
         H            3.765428048730    -0.355659891550    -0.233377440068     1.007825032230

  Basis Set: AUG-CC-PVTZ
    Blend: AUG-CC-PVTZ
  Basis Set: (AUG-CC-PVTZ AUX)
    Blend: AUG-CC-PVTZ-JKFIT
	 Reference Energy          =    -382.8378587262744190 [Eh]
	 Singles Energy            =      -0.0000000000000000 [Eh]
	 Same-Spin Energy          =      -0.3874377449683767 [Eh]
	 Opposite-Spin Energy      =      -1.2618886679222379 [Eh]
	 Correlation Energy        =      -1.6493264128906144 [Eh]
	 Total Energy              =    -384.4871851391650353 [Eh]

	 ================> DF-SCS-MP2 Energies <==================
	-----------------------------------------------------------
	 SCS Same-Spin Scale       =       0.3333333333333333 [-]
	 SCS Opposite-Spin Scale   =       1.2000000000000000 [-]
	 SCS Same-Spin Energy      =      -0.1291459149894589 [Eh]
	 SCS Opposite-Spin Energy  =      -1.5142664015066853 [Eh]
	 SCS Correlation Energy    =      -1.6434123164961443 [Eh]
	 SCS Total Energy          =    -384.4812710427705724 [Eh]
	-----------------------------------------------------------

  Dipole Moment: [D]
     X:     0.2208      Y:     2.5377      Z:     0.4024     Total:     2.5789

*** Psi4 exiting successfully. Buy a developer a beer!
