                               Psi4 1.4a3.dev225

  ==> Input File <==

--------------------------------------------------------------------------
#psi4
#
memory 32 gb

molecule  {
0 1
  O       -3.2271830    -0.3786580    -0.1569640
  O       -1.8275510     1.3993140    -0.2614160
  C        2.8225670    -0.4310850    -0.3953020
  C        1.4009980    -0.8942070    -0.2419560
  C       -0.9807690    -0.7586230     0.4926230
  C        0.4290331    -0.2368731     0.3628231
  C        3.1298050     0.9339520     0.2103920
  C       -2.0113430     0.2195500    -0.0192140
  H        3.4859920    -1.1868430     0.0468460
  H        3.0699840    -0.4203720    -1.4654230
  H        1.1737130    -1.8673930    -0.6818980
  H       -1.0998220    -1.7054460    -0.0447970
  H       -1.2414610    -0.9681590     1.5400430
  H        0.5929560     0.7502750     0.8121930
  H        4.1791340     1.1958370     0.0500290
  H        2.5131630     1.7137800    -0.2445400
  H        2.9424530     0.9385920     1.2876810
  H       -3.8316340     0.3284440    -0.4642740
units angstrom
no_reorient  #important for SAPT in psi4, default
symmetry c1  #important for SAPT in psi4, default
}

set PROPERTIES_ORIGIN ["COM"]
properties('MP2/aug-cc-pvtz', properties = ['dipole'])
--------------------------------------------------------------------------

    Molecular point group: c1
  Charge       = 0
  Multiplicity = 1
  Basis Set: AUG-CC-PVTZ
    Blend: AUG-CC-PVTZ
  Basis Set: (AUG-CC-PVTZ AUX)
    Blend: AUG-CC-PVTZ-JKFIT

    Orbital Energies [Eh]
    ---------------------

    Doubly Occupied:

       1A    -20.616509     2A    -20.552202     3A    -11.391360
       4A    -11.255079     5A    -11.232479     6A    -11.230443
       7A    -11.229574     8A    -11.214275     9A     -1.460048
      10A     -1.357298    11A     -1.104713    12A     -1.044519
      13A     -0.963613    14A     -0.869967    15A     -0.808079
      16A     -0.738170    17A     -0.703021    18A     -0.682003
      19A     -0.655578    20A     -0.624578    21A     -0.612801
      22A     -0.601510    23A     -0.581587    24A     -0.555129
      25A     -0.525437    26A     -0.498805    27A     -0.493120
      28A     -0.483615    29A     -0.477318    30A     -0.455563
      31A     -0.359562

  @DF-RHF Final Energy:  -382.90414701478545

   => Energetics <=

    Nuclear Repulsion Energy =            355.0619711860579173
    One-Electron Energy =               -1225.1763207632920967
    Two-Electron Energy =                 487.2102025624487283
    Total Energy =                       -382.9041470147854511
  Basis Set: (AUG-CC-PVTZ AUX)
    Blend: AUG-CC-PVTZ-RI
    Molecular point group: c1

    Geometry (in Angstrom), charge = 0, multiplicity = 1:

       Center              X                  Y                   Z               Mass
    ------------   -----------------  -----------------  -----------------  -----------------
         O           -3.126454963913    -0.388187666719    -0.148748217367    15.994914619570
         O           -1.726822963913     1.389784333281    -0.253200217367    15.994914619570
         C            2.923295036087    -0.440614666719    -0.387086217367    12.000000000000
         C            1.501726036087    -0.903736666719    -0.233740217367    12.000000000000
         C           -0.880040963913    -0.768152666719     0.500838782633    12.000000000000
         C            0.529761136087    -0.246402766719     0.371038882633    12.000000000000
         C            3.230533036087     0.924422333281     0.218607782633    12.000000000000
         C           -1.910614963913     0.210020333281    -0.010998217367    12.000000000000
         H            3.586720036087    -1.196372666719     0.055061782633     1.007825032230
         H            3.170712036087    -0.429901666719    -1.457207217367     1.007825032230
         H            1.274441036087    -1.876922666719    -0.673682217367     1.007825032230
         H           -0.999093963913    -1.714975666719    -0.036581217367     1.007825032230
         H           -1.140732963913    -0.977688666719     1.548258782633     1.007825032230
         H            0.693684036087     0.740745333281     0.820408782633     1.007825032230
         H            4.279862036087     1.186307333281     0.058244782633     1.007825032230
         H            2.613891036087     1.704250333281    -0.236324217367     1.007825032230
         H            3.043181036087     0.929062333281     1.295896782633     1.007825032230
         H           -3.730905963913     0.318914333281    -0.456058217367     1.007825032230

  Basis Set: AUG-CC-PVTZ
    Blend: AUG-CC-PVTZ
  Basis Set: (AUG-CC-PVTZ AUX)
    Blend: AUG-CC-PVTZ-JKFIT
	 Reference Energy          =    -382.9041470147854511 [Eh]
	 Singles Energy            =      -0.0000000000000000 [Eh]
	 Same-Spin Energy          =      -0.3827741079456972 [Eh]
	 Opposite-Spin Energy      =      -1.2537041979898722 [Eh]
	 Correlation Energy        =      -1.6364783059355694 [Eh]
	 Total Energy              =    -384.5406253207210057 [Eh]

	 ================> DF-SCS-MP2 Energies <==================
	-----------------------------------------------------------
	 SCS Same-Spin Scale       =       0.3333333333333333 [-]
	 SCS Opposite-Spin Scale   =       1.2000000000000000 [-]
	 SCS Same-Spin Energy      =      -0.1275913693152324 [Eh]
	 SCS Opposite-Spin Energy  =      -1.5044450375878466 [Eh]
	 SCS Correlation Energy    =      -1.6320364069030791 [Eh]
	 SCS Total Energy          =    -384.5361834216885200 [Eh]
	-----------------------------------------------------------

  Dipole Moment: [D]
     X:     0.1659      Y:    -1.4184      Z:     0.2394     Total:     1.4480

*** Psi4 exiting successfully. Buy a developer a beer!
