                               Psi4 1.3.2 release

  ==> Input File <==

--------------------------------------------------------------------------
#psi4
#
memory 32 gb

molecule  {
0 1
  O        3.1501630     0.3869830     0.0122970
  O        1.7226580    -1.3643080    -0.2059640
  C       -2.9163610     0.3476720    -0.5022120
  C       -1.4960630     0.8252950    -0.4074400
  C        0.8585340     0.8235180     0.4136200
  C       -0.4320967     0.2997272     0.3322798
  C       -3.2476580    -0.8824200     0.3361610
  C        1.9107340    -0.1856640     0.0271730
  H       -3.5825680     1.1749950    -0.2170990
  H       -3.1475630     0.1432210    -1.5599470
  H       -1.2553160     1.7190160    -0.9933200
  H        0.9787830     1.7133270    -0.2211670
  H        1.0972480     1.1531100     1.4329360
  H       -0.7130820    -0.6444280     0.9033180
  H       -4.2956480    -1.1625270     0.2123440
  H       -2.6314050    -1.7369230     0.0388270
  H       -3.0739380    -0.6897760     1.4001060
  H        3.7686820    -0.3352680    -0.2293440
units angstrom
no_reorient  #important for SAPT in psi4, default
symmetry c1  #important for SAPT in psi4, default
}

set PROPERTIES_ORIGIN ["COM"]
properties('MP2/aug-cc-pvtz', properties = ['dipole'])
--------------------------------------------------------------------------

    Molecular point group: c1
  Charge       = 0
  Multiplicity = 1
  Basis Set: AUG-CC-PVTZ
    Blend: AUG-CC-PVTZ
  Basis Set: (AUG-CC-PVTZ AUX)
    Blend: AUG-CC-PVTZ-JKFIT

    Orbital Energies [Eh]
    ---------------------

    Doubly Occupied:

       1A    -20.616544     2A    -20.554072     3A    -11.391625
       4A    -11.250808     5A    -11.243350     6A    -11.237665
       7A    -11.233150     8A    -11.215372     9A     -1.459667
      10A     -1.359268    11A     -1.110398    12A     -1.053335
      13A     -0.952664    14A     -0.872634    15A     -0.808467
      16A     -0.735283    17A     -0.702874    18A     -0.687749
      19A     -0.659704    20A     -0.628420    21A     -0.612701
      22A     -0.596542    23A     -0.584235    24A     -0.562373
      25A     -0.524738    26A     -0.498805    27A     -0.495252
      28A     -0.483987    29A     -0.474989    30A     -0.458048
      31A     -0.338841

  @DF-RHF Final Energy:  -382.88550117292198

   => Energetics <=

    Nuclear Repulsion Energy =            355.4176050569871563
    One-Electron Energy =               -1225.7990871905824406
    Two-Electron Energy =                 487.4959809606732506
    Total Energy =                       -382.8855011729219768
  Basis Set: (AUG-CC-PVTZ AUX)
    Blend: AUG-CC-PVTZ-RI
    Molecular point group: c1

    Geometry (in Angstrom), charge = 0, multiplicity = 1:

       Center              X                  Y                   Z               Mass
    ------------   -----------------  -----------------  -----------------  -----------------
         O            3.140431695882     0.383033604959     0.011683791091    15.994914619570
         O            1.712926695882    -1.368257395041    -0.206577208909    15.994914619570
         C           -2.926092304118     0.343722604959    -0.502825208909    12.000000000000
         C           -1.505794304118     0.821345604959    -0.408053208909    12.000000000000
         C            0.848802695882     0.819568604959     0.413006791091    12.000000000000
         C           -0.441828004118     0.295777804959     0.331666591091    12.000000000000
         C           -3.257389304118    -0.886369395041     0.335547791091    12.000000000000
         C            1.901002695882    -0.189613395041     0.026559791091    12.000000000000
         H           -3.592299304118     1.171045604959    -0.217712208909     1.007825032230
         H           -3.157294304118     0.139271604959    -1.560560208909     1.007825032230
         H           -1.265047304118     1.715066604959    -0.993933208909     1.007825032230
         H            0.969051695882     1.709377604959    -0.221780208909     1.007825032230
         H            1.087516695882     1.149160604959     1.432322791091     1.007825032230
         H           -0.722813304118    -0.648377395041     0.902704791091     1.007825032230
         H           -4.305379304118    -1.166476395041     0.211730791091     1.007825032230
         H           -2.641136304118    -1.740872395041     0.038213791091     1.007825032230
         H           -3.083669304118    -0.693725395041     1.399492791091     1.007825032230
         H            3.758950695882    -0.339217395041    -0.229957208909     1.007825032230

  Basis Set: AUG-CC-PVTZ
    Blend: AUG-CC-PVTZ
  Basis Set: (AUG-CC-PVTZ AUX)
    Blend: AUG-CC-PVTZ-JKFIT
	 Reference Energy          =    -382.8855011729219768 [Eh]
	 Singles Energy            =      -0.0000000000000000 [Eh]
	 Same-Spin Energy          =      -0.3850487247286292 [Eh]
	 Opposite-Spin Energy      =      -1.2577117421355295 [Eh]
	 Correlation Energy        =      -1.6427604668641587 [Eh]
	 Total Energy              =    -384.5282616397861375 [Eh]

	 ================> DF-SCS-MP2 Energies <==================
	-----------------------------------------------------------
	 SCS Same-Spin Scale       =       0.3333333333333333 [-]
	 SCS Opposite-Spin Scale   =       1.2000000000000000 [-]
	 SCS Same-Spin Energy      =      -0.1283495749095431 [Eh]
	 SCS Opposite-Spin Energy  =      -1.5092540905626353 [Eh]
	 SCS Correlation Energy    =      -1.6376036654721784 [Eh]
	 SCS Total Energy          =    -384.5231048383941470 [Eh]
	-----------------------------------------------------------

  Dipole Moment: [D]
     X:    -0.1370      Y:     1.3739      Z:     0.2118     Total:     1.3968

*** Psi4 exiting successfully. Buy a developer a beer!
