                               Psi4 1.3.2 release

  ==> Input File <==

--------------------------------------------------------------------------
#psi4
#
memory 32 gb

molecule  {
0 1
  O        3.1501630     0.3869830     0.0122970
  O        1.7226580    -1.3643080    -0.2059640
  C       -2.9135608     0.3378875    -0.4939598
  C       -1.4960630     0.8252950    -0.4074400
  C        0.8585340     0.8235180     0.4136200
  C       -0.5321705     0.2540575     0.3301423
  C       -3.2476580    -0.8824200     0.3361610
  C        1.9107340    -0.1856640     0.0271730
  H       -3.5825680     1.1749950    -0.2170990
  H       -3.1475630     0.1432210    -1.5599470
  H       -1.2553160     1.7190160    -0.9933200
  H        0.9787830     1.7133270    -0.2211670
  H        1.0972480     1.1531100     1.4329360
  H       -0.7130820    -0.6444280     0.9033180
  H       -4.2956480    -1.1625270     0.2123440
  H       -2.6314050    -1.7369230     0.0388270
  H       -3.0739380    -0.6897760     1.4001060
  H        3.7686820    -0.3352680    -0.2293440
units angstrom
no_reorient  #important for SAPT in psi4, default
symmetry c1  #important for SAPT in psi4, default
}

set PROPERTIES_ORIGIN ["COM"]
properties('MP2/aug-cc-pvtz', properties = ['dipole'])
--------------------------------------------------------------------------

    Molecular point group: c1
  Charge       = 0
  Multiplicity = 1
  Basis Set: AUG-CC-PVTZ
    Blend: AUG-CC-PVTZ
  Basis Set: (AUG-CC-PVTZ AUX)
    Blend: AUG-CC-PVTZ-JKFIT

    Orbital Energies [Eh]
    ---------------------

    Doubly Occupied:

       1A    -20.615561     2A    -20.552608     3A    -11.390252
       4A    -11.254392     5A    -11.235686     6A    -11.231945
       7A    -11.230421     8A    -11.214440     9A     -1.458449
      10A     -1.357967    11A     -1.102838    12A     -1.045526
      13A     -0.961136    14A     -0.869587    15A     -0.804921
      16A     -0.740419    17A     -0.702947    18A     -0.681741
      19A     -0.653563    20A     -0.626562    21A     -0.611407
      22A     -0.599789    23A     -0.582091    24A     -0.551792
      25A     -0.530114    26A     -0.495886    27A     -0.491140
      28A     -0.486072    29A     -0.480771    30A     -0.455474
      31A     -0.353790

  @DF-RHF Final Energy:  -382.90276416130467

   => Energetics <=

    Nuclear Repulsion Energy =            355.1272790990737462
    One-Electron Energy =               -1225.3215163965726333
    Two-Electron Energy =                 487.2914731361941563
    Total Energy =                       -382.9027641613046740
  Basis Set: (AUG-CC-PVTZ AUX)
    Blend: AUG-CC-PVTZ-RI
    Molecular point group: c1

    Geometry (in Angstrom), charge = 0, multiplicity = 1:

       Center              X                  Y                   Z               Mass
    ------------   -----------------  -----------------  -----------------  -----------------
         O            3.150664911033     0.388867405288     0.011040522612    15.994914619570
         O            1.723159911033    -1.362423594712    -0.207220477388    15.994914619570
         C           -2.913058888967     0.339771905288    -0.495216277388    12.000000000000
         C           -1.495561088967     0.827179405288    -0.408696477388    12.000000000000
         C            0.859035911033     0.825402405288     0.412363522612    12.000000000000
         C           -0.531668588967     0.255941905288     0.328885822612    12.000000000000
         C           -3.247156088967    -0.880535594712     0.334904522612    12.000000000000
         C            1.911235911033    -0.183779594712     0.025916522612    12.000000000000
         H           -3.582066088967     1.176879405288    -0.218355477388     1.007825032230
         H           -3.147061088967     0.145105405288    -1.561203477388     1.007825032230
         H           -1.254814088967     1.720900405288    -0.994576477388     1.007825032230
         H            0.979284911033     1.715211405288    -0.222423477388     1.007825032230
         H            1.097749911033     1.154994405288     1.431679522612     1.007825032230
         H           -0.712580088967    -0.642543594712     0.902061522612     1.007825032230
         H           -4.295146088967    -1.160642594712     0.211087522612     1.007825032230
         H           -2.630903088967    -1.735038594712     0.037570522612     1.007825032230
         H           -3.073436088967    -0.687891594712     1.398849522612     1.007825032230
         H            3.769183911033    -0.333383594712    -0.230600477388     1.007825032230

  Basis Set: AUG-CC-PVTZ
    Blend: AUG-CC-PVTZ
  Basis Set: (AUG-CC-PVTZ AUX)
    Blend: AUG-CC-PVTZ-JKFIT
	 Reference Energy          =    -382.9027641613046740 [Eh]
	 Singles Energy            =      -0.0000000000000000 [Eh]
	 Same-Spin Energy          =      -0.3831466735333921 [Eh]
	 Opposite-Spin Energy      =      -1.2545178020964092 [Eh]
	 Correlation Energy        =      -1.6376644756298013 [Eh]
	 Total Energy              =    -384.5404286369344504 [Eh]

	 ================> DF-SCS-MP2 Energies <==================
	-----------------------------------------------------------
	 SCS Same-Spin Scale       =       0.3333333333333333 [-]
	 SCS Opposite-Spin Scale   =       1.2000000000000000 [-]
	 SCS Same-Spin Energy      =      -0.1277155578444640 [Eh]
	 SCS Opposite-Spin Energy  =      -1.5054213625156909 [Eh]
	 SCS Correlation Energy    =      -1.6331369203601549 [Eh]
	 SCS Total Energy          =    -384.5359010816648038 [Eh]
	-----------------------------------------------------------

  Dipole Moment: [D]
     X:    -0.1880      Y:     1.3882      Z:     0.2078     Total:     1.4162

*** Psi4 exiting successfully. Buy a developer a beer!
