                               Psi4 1.4a3.dev225

  ==> Input File <==

--------------------------------------------------------------------------
#psi4
#
memory 32 gb

molecule  {
0 1
  O       -3.2271830    -0.3786580    -0.1569640
  O       -1.8275510     1.3993140    -0.2614160
  C        2.8225670    -0.4310850    -0.3953020
  C        1.4009980    -0.8942070    -0.2419560
  C       -0.9807690    -0.7586230     0.4926230
  C        0.4143070    -0.2269140     0.3719860
  C        3.1298050     0.9339520     0.2103920
  C       -2.0038001     0.2679680    -0.0291541
  H        3.4859920    -1.1868430     0.0468460
  H        3.0699840    -0.4203720    -1.4654230
  H        1.1737130    -1.8673930    -0.6818980
  H       -1.0998220    -1.7054460    -0.0447970
  H       -1.2414610    -0.9681590     1.5400430
  H        0.5929560     0.7502750     0.8121930
  H        4.1791340     1.1958370     0.0500290
  H        2.5131630     1.7137800    -0.2445400
  H        2.9424530     0.9385920     1.2876810
  H       -3.8316340     0.3284440    -0.4642740
units angstrom
no_reorient  #important for SAPT in psi4, default
symmetry c1  #important for SAPT in psi4, default
}

set PROPERTIES_ORIGIN ["COM"]
properties('MP2/aug-cc-pvtz', properties = ['dipole'])
--------------------------------------------------------------------------

    Molecular point group: c1
  Charge       = 0
  Multiplicity = 1
  Basis Set: AUG-CC-PVTZ
    Blend: AUG-CC-PVTZ
  Basis Set: (AUG-CC-PVTZ AUX)
    Blend: AUG-CC-PVTZ-JKFIT

    Orbital Energies [Eh]
    ---------------------

    Doubly Occupied:

       1A    -20.607792     2A    -20.561415     3A    -11.386704
       4A    -11.252889     5A    -11.234206     6A    -11.230709
       7A    -11.229485     8A    -11.214528     9A     -1.468499
      10A     -1.373505    11A     -1.101021    12A     -1.041306
      13A     -0.955857    14A     -0.867418    15A     -0.798266
      16A     -0.740034    17A     -0.707254    18A     -0.684845
      19A     -0.654743    20A     -0.623062    21A     -0.612842
      22A     -0.604831    23A     -0.584729    24A     -0.551794
      25A     -0.527296    26A     -0.498878    27A     -0.498567
      28A     -0.491776    29A     -0.481206    30A     -0.456227
      31A     -0.352927

  @DF-RHF Final Energy:  -382.90286431933538

   => Energetics <=

    Nuclear Repulsion Energy =            355.2092757825564604
    One-Electron Energy =               -1225.4350544965436711
    Two-Electron Energy =                 487.3229143946518320
    Total Energy =                       -382.9028643193353787
  Basis Set: (AUG-CC-PVTZ AUX)
    Blend: AUG-CC-PVTZ-RI
    Molecular point group: c1

    Geometry (in Angstrom), charge = 0, multiplicity = 1:

       Center              X                  Y                   Z               Mass
    ------------   -----------------  -----------------  -----------------  -----------------
         O           -3.125699288878    -0.394328957102    -0.148666455667    15.994914619570
         O           -1.726067288878     1.383643042898    -0.253118455667    15.994914619570
         C            2.924050711122    -0.446755957102    -0.387004455667    12.000000000000
         C            1.502481711122    -0.909877957102    -0.233658455667    12.000000000000
         C           -0.879285288878    -0.774293957102     0.500920544333    12.000000000000
         C            0.515790711122    -0.242584957102     0.380283544333    12.000000000000
         C            3.231288711122     0.918281042898     0.218689544333    12.000000000000
         C           -1.902316388878     0.252297042898    -0.020856555667    12.000000000000
         H            3.587475711122    -1.202513957102     0.055143544333     1.007825032230
         H            3.171467711122    -0.436042957102    -1.457125455667     1.007825032230
         H            1.275196711122    -1.883063957102    -0.673600455667     1.007825032230
         H           -0.998338288878    -1.721116957102    -0.036499455667     1.007825032230
         H           -1.139977288878    -0.983829957102     1.548340544333     1.007825032230
         H            0.694439711122     0.734604042898     0.820490544333     1.007825032230
         H            4.280617711122     1.180166042898     0.058326544333     1.007825032230
         H            2.614646711122     1.698109042898    -0.236242455667     1.007825032230
         H            3.043936711122     0.922921042898     1.295978544333     1.007825032230
         H           -3.730150288878     0.312773042898    -0.455976455667     1.007825032230

  Basis Set: AUG-CC-PVTZ
    Blend: AUG-CC-PVTZ
  Basis Set: (AUG-CC-PVTZ AUX)
    Blend: AUG-CC-PVTZ-JKFIT
	 Reference Energy          =    -382.9028643193353787 [Eh]
	 Singles Energy            =      -0.0000000000000000 [Eh]
	 Same-Spin Energy          =      -0.3821553085093580 [Eh]
	 Opposite-Spin Energy      =      -1.2527131062706238 [Eh]
	 Correlation Energy        =      -1.6348684147799819 [Eh]
	 Total Energy              =    -384.5377327341153659 [Eh]

	 ================> DF-SCS-MP2 Energies <==================
	-----------------------------------------------------------
	 SCS Same-Spin Scale       =       0.3333333333333333 [-]
	 SCS Opposite-Spin Scale   =       1.2000000000000000 [-]
	 SCS Same-Spin Energy      =      -0.1273851028364527 [Eh]
	 SCS Opposite-Spin Energy  =      -1.5032557275247485 [Eh]
	 SCS Correlation Energy    =      -1.6306408303612012 [Eh]
	 SCS Total Energy          =    -384.5335051496965661 [Eh]
	-----------------------------------------------------------

  Dipole Moment: [D]
     X:     0.2791      Y:    -1.0906      Z:     0.1940     Total:     1.1424

*** Psi4 exiting successfully. Buy a developer a beer!
