                               Psi4 1.4a3.dev225

  ==> Input File <==

--------------------------------------------------------------------------
#psi4
#
memory 32 gb

molecule  {
0 1
  O       -3.2271830    -0.3786580    -0.1569640
  O       -1.8275510     1.3993140    -0.2614160
  C        2.8225670    -0.4310850    -0.3953020
  C        1.4009980    -0.8942070    -0.2419560
  C       -0.9807690    -0.7586230     0.4926230
  C        0.4143070    -0.2269140     0.3719860
  C        3.1298050     0.9339520     0.2103920
  C       -2.0113430     0.2195500    -0.0192140
  H        3.4859920    -1.1868430     0.0468460
  H        3.0699840    -0.4203720    -1.4654230
  H        1.1841205    -1.8228301    -0.6617527
  H       -1.0998220    -1.7054460    -0.0447970
  H       -1.2414610    -0.9681590     1.5400430
  H        0.5929560     0.7502750     0.8121930
  H        4.1791340     1.1958370     0.0500290
  H        2.5131630     1.7137800    -0.2445400
  H        2.9424530     0.9385920     1.2876810
  H       -3.8316340     0.3284440    -0.4642740
units angstrom
no_reorient  #important for SAPT in psi4, default
symmetry c1  #important for SAPT in psi4, default
}

set PROPERTIES_ORIGIN ["COM"]
properties('MP2/aug-cc-pvtz', properties = ['dipole'])
--------------------------------------------------------------------------

    Molecular point group: c1
  Charge       = 0
  Multiplicity = 1
  Basis Set: AUG-CC-PVTZ
    Blend: AUG-CC-PVTZ
  Basis Set: (AUG-CC-PVTZ AUX)
    Blend: AUG-CC-PVTZ-JKFIT

    Orbital Energies [Eh]
    ---------------------

    Doubly Occupied:

       1A    -20.616431     2A    -20.552236     3A    -11.391200
       4A    -11.254769     5A    -11.231980     6A    -11.229389
       7A    -11.228388     8A    -11.213983     9A     -1.460031
      10A     -1.357324    11A     -1.104150    12A     -1.045491
      13A     -0.962007    14A     -0.871050    15A     -0.807639
      16A     -0.745646    17A     -0.703675    18A     -0.682801
      19A     -0.655767    20A     -0.626704    21A     -0.612382
      22A     -0.602633    23A     -0.581614    24A     -0.553784
      25A     -0.528411    26A     -0.498419    27A     -0.492224
      28A     -0.485911    29A     -0.480590    30A     -0.455846
      31A     -0.354161

  @DF-RHF Final Energy:  -382.90300371315834

   => Energetics <=

    Nuclear Repulsion Energy =            355.2308845521770877
    One-Electron Energy =               -1225.4945035512550930
    Two-Electron Energy =                 487.3606152859197209
    Total Energy =                       -382.9030037131583413
  Basis Set: (AUG-CC-PVTZ AUX)
    Blend: AUG-CC-PVTZ-RI
    Molecular point group: c1

    Geometry (in Angstrom), charge = 0, multiplicity = 1:

       Center              X                  Y                   Z               Mass
    ------------   -----------------  -----------------  -----------------  -----------------
         O           -3.124997726607    -0.389629093687    -0.149890147152    15.994914619570
         O           -1.725365726607     1.388342906313    -0.254342147152    15.994914619570
         C            2.924752273393    -0.442056093687    -0.388228147152    12.000000000000
         C            1.503183273393    -0.905178093687    -0.234882147152    12.000000000000
         C           -0.878583726607    -0.769594093687     0.499696852848    12.000000000000
         C            0.516492273393    -0.237885093687     0.379059852848    12.000000000000
         C            3.231990273393     0.922980906313     0.217465852848    12.000000000000
         C           -1.909157726607     0.208578906313    -0.012140147152    12.000000000000
         H            3.588177273393    -1.197814093687     0.053919852848     1.007825032230
         H            3.172169273393    -0.431343093687    -1.458349147152     1.007825032230
         H            1.286305773393    -1.833801193687    -0.654678847152     1.007825032230
         H           -0.997636726607    -1.716417093687    -0.037723147152     1.007825032230
         H           -1.139275726607    -0.979130093687     1.547116852848     1.007825032230
         H            0.695141273393     0.739303906313     0.819266852848     1.007825032230
         H            4.281319273393     1.184865906313     0.057102852848     1.007825032230
         H            2.615348273393     1.702808906313    -0.237466147152     1.007825032230
         H            3.044638273393     0.927620906313     1.294754852848     1.007825032230
         H           -3.729448726607     0.317472906313    -0.457200147152     1.007825032230

  Basis Set: AUG-CC-PVTZ
    Blend: AUG-CC-PVTZ
  Basis Set: (AUG-CC-PVTZ AUX)
    Blend: AUG-CC-PVTZ-JKFIT
	 Reference Energy          =    -382.9030037131583413 [Eh]
	 Singles Energy            =      -0.0000000000000000 [Eh]
	 Same-Spin Energy          =      -0.3829342999292803 [Eh]
	 Opposite-Spin Energy      =      -1.2539365710801174 [Eh]
	 Correlation Energy        =      -1.6368708710093975 [Eh]
	 Total Energy              =    -384.5398745841677624 [Eh]

	 ================> DF-SCS-MP2 Energies <==================
	-----------------------------------------------------------
	 SCS Same-Spin Scale       =       0.3333333333333333 [-]
	 SCS Opposite-Spin Scale   =       1.2000000000000000 [-]
	 SCS Same-Spin Energy      =      -0.1276447666430934 [Eh]
	 SCS Opposite-Spin Energy  =      -1.5047238852961409 [Eh]
	 SCS Correlation Energy    =      -1.6323686519392342 [Eh]
	 SCS Total Energy          =    -384.5353723650976008 [Eh]
	-----------------------------------------------------------

  Dipole Moment: [D]
     X:     0.1510      Y:    -1.4419      Z:     0.2306     Total:     1.4680

*** Psi4 exiting successfully. Buy a developer a beer!
