                               Psi4 1.3.2 release

  ==> Input File <==

--------------------------------------------------------------------------
#psi4
#
memory 32 gb

molecule  {
0 1
  O        3.1501630     0.3869830     0.0122970
  O        1.7226580    -1.3643080    -0.2059640
  C       -2.9163610     0.3476720    -0.5022120
  C       -1.4960630     0.8252950    -0.4074400
  C        0.8585340     0.8235180     0.4136200
  C       -0.5245990     0.2621860     0.3264500
  C       -3.2476580    -0.8824200     0.3361610
  C        1.8922695    -0.1434040     0.0391961
  H       -3.5825680     1.1749950    -0.2170990
  H       -3.1475630     0.1432210    -1.5599470
  H       -1.2553160     1.7190160    -0.9933200
  H        0.9787830     1.7133270    -0.2211670
  H        1.0972480     1.1531100     1.4329360
  H       -0.7130820    -0.6444280     0.9033180
  H       -4.2956480    -1.1625270     0.2123440
  H       -2.6314050    -1.7369230     0.0388270
  H       -3.0739380    -0.6897760     1.4001060
  H        3.7945890    -0.3129689    -0.2272549
units angstrom
no_reorient  #important for SAPT in psi4, default
symmetry c1  #important for SAPT in psi4, default
}

set PROPERTIES_ORIGIN ["COM"]
properties('MP2/aug-cc-pvtz', properties = ['dipole'])
--------------------------------------------------------------------------

    Molecular point group: c1
  Charge       = 0
  Multiplicity = 1
  Basis Set: AUG-CC-PVTZ
    Blend: AUG-CC-PVTZ
  Basis Set: (AUG-CC-PVTZ AUX)
    Blend: AUG-CC-PVTZ-JKFIT

    Orbital Energies [Eh]
    ---------------------

    Doubly Occupied:

       1A    -20.615568     2A    -20.546516     3A    -11.394736
       4A    -11.256601     5A    -11.237398     6A    -11.234620
       7A    -11.231087     8A    -11.215294     9A     -1.449487
      10A     -1.334837    11A     -1.108172    12A     -1.052654
      13A     -0.966440    14A     -0.873320    15A     -0.810565
      16A     -0.741041    17A     -0.696934    18A     -0.681141
      19A     -0.655651    20A     -0.627579    21A     -0.612703
      22A     -0.595971    23A     -0.575787    24A     -0.554777
      25A     -0.529785    26A     -0.498854    27A     -0.492258
      28A     -0.483593    29A     -0.468215    30A     -0.453108
      31A     -0.356496

  @DF-RHF Final Energy:  -382.89561937323185

   => Energetics <=

    Nuclear Repulsion Energy =            354.9276345206425276
    One-Electron Energy =               -1224.9441346629610052
    Two-Electron Energy =                 487.1208807690866252
    Total Energy =                       -382.8956193732318525
  Basis Set: (AUG-CC-PVTZ AUX)
    Blend: AUG-CC-PVTZ-RI
    Molecular point group: c1

    Geometry (in Angstrom), charge = 0, multiplicity = 1:

       Center              X                  Y                   Z               Mass
    ------------   -----------------  -----------------  -----------------  -----------------
         O            3.151876544274     0.382340166519     0.011013796053    15.994914619570
         O            1.724371544274    -1.368950833481    -0.207247203947    15.994914619570
         C           -2.914647455726     0.343029166519    -0.503495203947    12.000000000000
         C           -1.494349455726     0.820652166519    -0.408723203947    12.000000000000
         C            0.860247544274     0.818875166519     0.412336796053    12.000000000000
         C           -0.522885455726     0.257543166519     0.325166796053    12.000000000000
         C           -3.245944455726    -0.887062833481     0.334877796053    12.000000000000
         C            1.893983044274    -0.148046833481     0.037912896053    12.000000000000
         H           -3.580854455726     1.170352166519    -0.218382203947     1.007825032230
         H           -3.145849455726     0.138578166519    -1.561230203947     1.007825032230
         H           -1.253602455726     1.714373166519    -0.994603203947     1.007825032230
         H            0.980496544274     1.708684166519    -0.222450203947     1.007825032230
         H            1.098961544274     1.148467166519     1.431652796053     1.007825032230
         H           -0.711368455726    -0.649070833481     0.902034796053     1.007825032230
         H           -4.293934455726    -1.167169833481     0.211060796053     1.007825032230
         H           -2.629691455726    -1.741565833481     0.037543796053     1.007825032230
         H           -3.072224455726    -0.694418833481     1.398822796053     1.007825032230
         H            3.796302544274    -0.317611733481    -0.228538103947     1.007825032230

  Basis Set: AUG-CC-PVTZ
    Blend: AUG-CC-PVTZ
  Basis Set: (AUG-CC-PVTZ AUX)
    Blend: AUG-CC-PVTZ-JKFIT
	 Reference Energy          =    -382.8956193732318525 [Eh]
	 Singles Energy            =      -0.0000000000000000 [Eh]
	 Same-Spin Energy          =      -0.3841409662211562 [Eh]
	 Opposite-Spin Energy      =      -1.2564609913942570 [Eh]
	 Correlation Energy        =      -1.6406019576154134 [Eh]
	 Total Energy              =    -384.5362213308472406 [Eh]

	 ================> DF-SCS-MP2 Energies <==================
	-----------------------------------------------------------
	 SCS Same-Spin Scale       =       0.3333333333333333 [-]
	 SCS Opposite-Spin Scale   =       1.2000000000000000 [-]
	 SCS Same-Spin Energy      =      -0.1280469887403854 [Eh]
	 SCS Opposite-Spin Energy  =      -1.5077531896731085 [Eh]
	 SCS Correlation Energy    =      -1.6358001784134939 [Eh]
	 SCS Total Energy          =    -384.5314195516453424 [Eh]
	-----------------------------------------------------------

  Dipole Moment: [D]
     X:    -0.2446      Y:     1.6457      Z:     0.2655     Total:     1.6848

*** Psi4 exiting successfully. Buy a developer a beer!
