                               Psi4 1.4a3.dev225

  ==> Input File <==

--------------------------------------------------------------------------
#psi4
#
memory 32 gb

molecule  {
0 1
  O       -3.2271830    -0.3786580    -0.1569640
  O       -1.8275510     1.3993140    -0.2614160
  C        2.8225670    -0.4310850    -0.3953020
  C        1.4009980    -0.8942070    -0.2419560
  C       -0.9807690    -0.7586230     0.4926230
  C        0.4143070    -0.2269140     0.3719860
  C        3.1298050     0.9339520     0.2103920
  C       -2.0249906     0.2325037    -0.0259921
  H        3.4859920    -1.1868430     0.0468460
  H        3.0699840    -0.4203720    -1.4654230
  H        1.1737130    -1.8673930    -0.6818980
  H       -1.0998220    -1.7054460    -0.0447970
  H       -1.2414610    -0.9681590     1.5400430
  H        0.5929560     0.7502750     0.8121930
  H        4.1791340     1.1958370     0.0500290
  H        2.5131630     1.7137800    -0.2445400
  H        2.9424530     0.9385920     1.2876810
  H       -3.8316340     0.3284440    -0.4642740
units angstrom
no_reorient  #important for SAPT in psi4, default
symmetry c1  #important for SAPT in psi4, default
}

set PROPERTIES_ORIGIN ["COM"]
properties('MP2/aug-cc-pvtz', properties = ['dipole'])
--------------------------------------------------------------------------

    Molecular point group: c1
  Charge       = 0
  Multiplicity = 1
  Basis Set: AUG-CC-PVTZ
    Blend: AUG-CC-PVTZ
  Basis Set: (AUG-CC-PVTZ AUX)
    Blend: AUG-CC-PVTZ-JKFIT

    Orbital Energies [Eh]
    ---------------------

    Doubly Occupied:

       1A    -20.618284     2A    -20.553296     3A    -11.389706
       4A    -11.253494     5A    -11.234104     6A    -11.230841
       7A    -11.229215     8A    -11.213976     9A     -1.465541
      10A     -1.365071    11A     -1.101104    12A     -1.042367
      13A     -0.958095    14A     -0.869712    15A     -0.808199
      16A     -0.739063    17A     -0.706236    18A     -0.683261
      19A     -0.655993    20A     -0.624352    21A     -0.612298
      22A     -0.601631    23A     -0.581708    24A     -0.553328
      25A     -0.527609    26A     -0.498259    27A     -0.492214
      28A     -0.487075    29A     -0.479876    30A     -0.455005
      31A     -0.353171

  @DF-RHF Final Energy:  -382.90463382808235

   => Energetics <=

    Nuclear Repulsion Energy =            355.0053245055266302
    One-Electron Energy =               -1225.0517488789832896
    Two-Electron Energy =                 487.1417905453742492
    Total Energy =                       -382.9046338280823534
  Basis Set: (AUG-CC-PVTZ AUX)
    Blend: AUG-CC-PVTZ-RI
    Molecular point group: c1

    Geometry (in Angstrom), charge = 0, multiplicity = 1:

       Center              X                  Y                   Z               Mass
    ------------   -----------------  -----------------  -----------------  -----------------
         O           -3.123470041213    -0.390598100918    -0.148999099122    15.994914619570
         O           -1.723838041213     1.387373899082    -0.253451099122    15.994914619570
         C            2.926279958787    -0.443025100918    -0.387337099122    12.000000000000
         C            1.504710958787    -0.906147100918    -0.233991099122    12.000000000000
         C           -0.877056041213    -0.770563100918     0.500587900878    12.000000000000
         C            0.518019958787    -0.238854100918     0.379950900878    12.000000000000
         C            3.233517958787     0.922011899082     0.218356900878    12.000000000000
         C           -1.921277641213     0.220563599082    -0.018027199122    12.000000000000
         H            3.589704958787    -1.198783100918     0.054810900878     1.007825032230
         H            3.173696958787    -0.432312100918    -1.457458099122     1.007825032230
         H            1.277425958787    -1.879333100918    -0.673933099122     1.007825032230
         H           -0.996109041213    -1.717386100918    -0.036832099122     1.007825032230
         H           -1.137748041213    -0.980099100918     1.548007900878     1.007825032230
         H            0.696668958787     0.738334899082     0.820157900878     1.007825032230
         H            4.282846958787     1.183896899082     0.057993900878     1.007825032230
         H            2.616875958787     1.701839899082    -0.236575099122     1.007825032230
         H            3.046165958787     0.926651899082     1.295645900878     1.007825032230
         H           -3.727921041213     0.316503899082    -0.456309099122     1.007825032230

  Basis Set: AUG-CC-PVTZ
    Blend: AUG-CC-PVTZ
  Basis Set: (AUG-CC-PVTZ AUX)
    Blend: AUG-CC-PVTZ-JKFIT
	 Reference Energy          =    -382.9046338280823534 [Eh]
	 Singles Energy            =      -0.0000000000000000 [Eh]
	 Same-Spin Energy          =      -0.3826774569194284 [Eh]
	 Opposite-Spin Energy      =      -1.2535455783855618 [Eh]
	 Correlation Energy        =      -1.6362230353049902 [Eh]
	 Total Energy              =    -384.5408568633873188 [Eh]

	 ================> DF-SCS-MP2 Energies <==================
	-----------------------------------------------------------
	 SCS Same-Spin Scale       =       0.3333333333333333 [-]
	 SCS Opposite-Spin Scale   =       1.2000000000000000 [-]
	 SCS Same-Spin Energy      =      -0.1275591523064761 [Eh]
	 SCS Opposite-Spin Energy  =      -1.5042546940626742 [Eh]
	 SCS Correlation Energy    =      -1.6318138463691503 [Eh]
	 SCS Total Energy          =    -384.5364476744514945 [Eh]
	-----------------------------------------------------------

  Dipole Moment: [D]
     X:     0.0619      Y:    -1.3495      Z:     0.2044     Total:     1.3663

*** Psi4 exiting successfully. Buy a developer a beer!
