                               Psi4 1.3.2 release

  ==> Input File <==

--------------------------------------------------------------------------
#psi4
#
memory 32 gb

molecule  {
0 1
  O        3.1302912     0.4283445     0.0251708
  O        1.7226580    -1.3643080    -0.2059640
  C       -2.9163610     0.3476720    -0.5022120
  C       -1.4960630     0.8252950    -0.4074400
  C        0.8963311     0.8599144     0.4178995
  C       -0.5245990     0.2621860     0.3264500
  C       -3.2476580    -0.8824200     0.3361610
  C        1.9107340    -0.1856640     0.0271730
  H       -3.5825680     1.1749950    -0.2170990
  H       -3.1475630     0.1432210    -1.5599470
  H       -1.2553160     1.7190160    -0.9933200
  H        0.9787830     1.7133270    -0.2211670
  H        1.0972480     1.1531100     1.4329360
  H       -0.7130820    -0.6444280     0.9033180
  H       -4.2956480    -1.1625270     0.2123440
  H       -2.6314050    -1.7369230     0.0388270
  H       -3.0739380    -0.6897760     1.4001060
  H        3.7686820    -0.3352680    -0.2293440
units angstrom
no_reorient  #important for SAPT in psi4, default
symmetry c1  #important for SAPT in psi4, default
}

set PROPERTIES_ORIGIN ["COM"]
properties('MP2/aug-cc-pvtz', properties = ['dipole'])
--------------------------------------------------------------------------

    Molecular point group: c1
  Charge       = 0
  Multiplicity = 1
  Basis Set: AUG-CC-PVTZ
    Blend: AUG-CC-PVTZ
  Basis Set: (AUG-CC-PVTZ AUX)
    Blend: AUG-CC-PVTZ-JKFIT

    Orbital Energies [Eh]
    ---------------------

    Doubly Occupied:

       1A    -20.620713     2A    -20.557029     3A    -11.391424
       4A    -11.250482     5A    -11.234218     6A    -11.232498
       7A    -11.228981     8A    -11.214044     9A     -1.455181
      10A     -1.358589    11A     -1.097844    12A     -1.042862
      13A     -0.959396    14A     -0.866344    15A     -0.797894
      16A     -0.738046    17A     -0.702240    18A     -0.680113
      19A     -0.657188    20A     -0.622029    21A     -0.611202
      22A     -0.598851    23A     -0.582100    24A     -0.554262
      25A     -0.525809    26A     -0.497385    27A     -0.489745
      28A     -0.487385    29A     -0.477034    30A     -0.457052
      31A     -0.353190

  @DF-RHF Final Energy:  -382.89430611494055

   => Energetics <=

    Nuclear Repulsion Energy =            354.5235631556770954
    One-Electron Energy =               -1224.1534805143612630
    Two-Electron Energy =                 486.7356112437436764
    Total Energy =                       -382.8943061149405480
  Basis Set: (AUG-CC-PVTZ AUX)
    Blend: AUG-CC-PVTZ-RI
    Molecular point group: c1

    Geometry (in Angstrom), charge = 0, multiplicity = 1:

       Center              X                  Y                   Z               Mass
    ------------   -----------------  -----------------  -----------------  -----------------
         O            3.129101375217     0.418715724159     0.022915486371    15.994914619570
         O            1.721468175217    -1.373936775841    -0.208219313629    15.994914619570
         C           -2.917550824783     0.338043224159    -0.504467313629    12.000000000000
         C           -1.497252824783     0.815666224159    -0.409695313629    12.000000000000
         C            0.895141275217     0.850285624159     0.415644186371    12.000000000000
         C           -0.525788824783     0.252557224159     0.324194686371    12.000000000000
         C           -3.248847824783    -0.892048775841     0.333905686371    12.000000000000
         C            1.909544175217    -0.195292775841     0.024917686371    12.000000000000
         H           -3.583757824783     1.165366224159    -0.219354313629     1.007825032230
         H           -3.148752824783     0.133592224159    -1.562202313629     1.007825032230
         H           -1.256505824783     1.709387224159    -0.995575313629     1.007825032230
         H            0.977593175217     1.703698224159    -0.223422313629     1.007825032230
         H            1.096058175217     1.143481224159     1.430680686371     1.007825032230
         H           -0.714271824783    -0.654056775841     0.901062686371     1.007825032230
         H           -4.296837824783    -1.172155775841     0.210088686371     1.007825032230
         H           -2.632594824783    -1.746551775841     0.036571686371     1.007825032230
         H           -3.075127824783    -0.699404775841     1.397850686371     1.007825032230
         H            3.767492175217    -0.344896775841    -0.231599313629     1.007825032230

  Basis Set: AUG-CC-PVTZ
    Blend: AUG-CC-PVTZ
  Basis Set: (AUG-CC-PVTZ AUX)
    Blend: AUG-CC-PVTZ-JKFIT
	 Reference Energy          =    -382.8943061149405480 [Eh]
	 Singles Energy            =      -0.0000000000000000 [Eh]
	 Same-Spin Energy          =      -0.3838325033081952 [Eh]
	 Opposite-Spin Energy      =      -1.2565984820118961 [Eh]
	 Correlation Energy        =      -1.6404309853200914 [Eh]
	 Total Energy              =    -384.5347371002606565 [Eh]

	 ================> DF-SCS-MP2 Energies <==================
	-----------------------------------------------------------
	 SCS Same-Spin Scale       =       0.3333333333333333 [-]
	 SCS Opposite-Spin Scale   =       1.2000000000000000 [-]
	 SCS Same-Spin Energy      =      -0.1279441677693984 [Eh]
	 SCS Opposite-Spin Energy  =      -1.5079181784142752 [Eh]
	 SCS Correlation Energy    =      -1.6358623461836737 [Eh]
	 SCS Total Energy          =    -384.5301684611242194 [Eh]
	-----------------------------------------------------------

  Dipole Moment: [D]
     X:    -0.0569      Y:     1.3222      Z:     0.1916     Total:     1.3372

*** Psi4 exiting successfully. Buy a developer a beer!
