                               Psi4 1.4a3.dev225

  ==> Input File <==

--------------------------------------------------------------------------
#psi4
#
memory 32 gb

molecule  {
0 1
  O       -3.2271830    -0.3786580    -0.1569640
  O       -1.8275510     1.3993140    -0.2614160
  C        2.8225670    -0.4310850    -0.3953020
  C        1.4199151    -0.8880442    -0.2439966
  C       -0.9807690    -0.7586230     0.4926230
  C        0.4143070    -0.2269140     0.3719860
  C        3.1298050     0.9339520     0.2103920
  C       -2.0113430     0.2195500    -0.0192140
  H        3.4859920    -1.1868430     0.0468460
  H        3.0699840    -0.4203720    -1.4654230
  H        1.1737130    -1.8673930    -0.6818980
  H       -1.0998220    -1.7054460    -0.0447970
  H       -1.2414610    -0.9681590     1.5400430
  H        0.5929560     0.7502750     0.8121930
  H        4.1791340     1.1958370     0.0500290
  H        2.5131630     1.7137800    -0.2445400
  H        2.9424530     0.9385920     1.2876810
  H       -3.8316340     0.3284440    -0.4642740
units angstrom
no_reorient  #important for SAPT in psi4, default
symmetry c1  #important for SAPT in psi4, default
}

set PROPERTIES_ORIGIN ["COM"]
properties('MP2/aug-cc-pvtz', properties = ['dipole'])
--------------------------------------------------------------------------

    Molecular point group: c1
  Charge       = 0
  Multiplicity = 1
  Basis Set: AUG-CC-PVTZ
    Blend: AUG-CC-PVTZ
  Basis Set: (AUG-CC-PVTZ AUX)
    Blend: AUG-CC-PVTZ-JKFIT

    Orbital Energies [Eh]
    ---------------------

    Doubly Occupied:

       1A    -20.616497     2A    -20.552238     3A    -11.391313
       4A    -11.255208     5A    -11.236759     6A    -11.233375
       7A    -11.229248     8A    -11.214645     9A     -1.460074
      10A     -1.357343    11A     -1.103087    12A     -1.047560
      13A     -0.959189    14A     -0.872731    15A     -0.807459
      16A     -0.738625    17A     -0.703019    18A     -0.682372
      19A     -0.656130    20A     -0.625886    21A     -0.614043
      22A     -0.598687    23A     -0.581318    24A     -0.554096
      25A     -0.528531    26A     -0.499733    27A     -0.493956
      28A     -0.483716    29A     -0.480505    30A     -0.455936
      31A     -0.351142

  @DF-RHF Final Energy:  -382.90254800219481

   => Energetics <=

    Nuclear Repulsion Energy =            354.9648447210535096
    One-Electron Energy =               -1224.9659424230731020
    Two-Electron Energy =                 487.0985496998247868
    Total Energy =                       -382.9025480021948056
  Basis Set: (AUG-CC-PVTZ AUX)
    Blend: AUG-CC-PVTZ-RI
    Molecular point group: c1

    Geometry (in Angstrom), charge = 0, multiplicity = 1:

       Center              X                  Y                   Z               Mass
    ------------   -----------------  -----------------  -----------------  -----------------
         O           -3.126895858510    -0.389883695974    -0.149497485701    15.994914619570
         O           -1.727263858510     1.388088304026    -0.253949485701    15.994914619570
         C            2.922854141490    -0.442310695974    -0.387835485701    12.000000000000
         C            1.520202241490    -0.899269895974    -0.236530085701    12.000000000000
         C           -0.880481858510    -0.769848695974     0.500089514299    12.000000000000
         C            0.514594141490    -0.238139695974     0.379452514299    12.000000000000
         C            3.230092141490     0.922726304026     0.217858514299    12.000000000000
         C           -1.911055858510     0.208324304026    -0.011747485701    12.000000000000
         H            3.586279141490    -1.198068695974     0.054312514299     1.007825032230
         H            3.170271141490    -0.431597695974    -1.457956485701     1.007825032230
         H            1.274000141490    -1.878618695974    -0.674431485701     1.007825032230
         H           -0.999534858510    -1.716671695974    -0.037330485701     1.007825032230
         H           -1.141173858510    -0.979384695974     1.547509514299     1.007825032230
         H            0.693243141490     0.739049304026     0.819659514299     1.007825032230
         H            4.279421141490     1.184611304026     0.057495514299     1.007825032230
         H            2.613450141490     1.702554304026    -0.237073485701     1.007825032230
         H            3.042740141490     0.927366304026     1.295147514299     1.007825032230
         H           -3.731346858510     0.317218304026    -0.456807485701     1.007825032230

  Basis Set: AUG-CC-PVTZ
    Blend: AUG-CC-PVTZ
  Basis Set: (AUG-CC-PVTZ AUX)
    Blend: AUG-CC-PVTZ-JKFIT
	 Reference Energy          =    -382.9025480021948056 [Eh]
	 Singles Energy            =      -0.0000000000000000 [Eh]
	 Same-Spin Energy          =      -0.3833180872845913 [Eh]
	 Opposite-Spin Energy      =      -1.2547188555957658 [Eh]
	 Correlation Energy        =      -1.6380369428803569 [Eh]
	 Total Energy              =    -384.5405849450751816 [Eh]

	 ================> DF-SCS-MP2 Energies <==================
	-----------------------------------------------------------
	 SCS Same-Spin Scale       =       0.3333333333333333 [-]
	 SCS Opposite-Spin Scale   =       1.2000000000000000 [-]
	 SCS Same-Spin Energy      =      -0.1277726957615304 [Eh]
	 SCS Opposite-Spin Energy  =      -1.5056626267149189 [Eh]
	 SCS Correlation Energy    =      -1.6334353224764493 [Eh]
	 SCS Total Energy          =    -384.5359833246712356 [Eh]
	-----------------------------------------------------------

  Dipole Moment: [D]
     X:     0.1829      Y:    -1.4106      Z:     0.2356     Total:     1.4418

*** Psi4 exiting successfully. Buy a developer a beer!
