                               Psi4 1.4a3.dev225

  ==> Input File <==

--------------------------------------------------------------------------
#psi4
#
memory 32 gb

molecule  {
0 1
  O       -3.2271830    -0.3786580    -0.1569640
  O       -1.8275510     1.3993140    -0.2614160
  C        2.8225670    -0.4310850    -0.3953020
  C        1.4009980    -0.8942070    -0.2419560
  C       -0.9807690    -0.7586230     0.4926230
  C        0.4143070    -0.2269140     0.3719860
  C        3.1298050     0.9339520     0.2103920
  C       -2.0113430     0.2195500    -0.0192140
  H        3.4859920    -1.1868430     0.0468460
  H        3.0699840    -0.4203720    -1.4654230
  H        1.1633055    -1.9119559    -0.7020433
  H       -1.0998220    -1.7054460    -0.0447970
  H       -1.2414610    -0.9681590     1.5400430
  H        0.5929560     0.7502750     0.8121930
  H        4.1791340     1.1958370     0.0500290
  H        2.5131630     1.7137800    -0.2445400
  H        2.9424530     0.9385920     1.2876810
  H       -3.8316340     0.3284440    -0.4642740
units angstrom
no_reorient  #important for SAPT in psi4, default
symmetry c1  #important for SAPT in psi4, default
}

set PROPERTIES_ORIGIN ["COM"]
properties('MP2/aug-cc-pvtz', properties = ['dipole'])
--------------------------------------------------------------------------

    Molecular point group: c1
  Charge       = 0
  Multiplicity = 1
  Basis Set: AUG-CC-PVTZ
    Blend: AUG-CC-PVTZ
  Basis Set: (AUG-CC-PVTZ AUX)
    Blend: AUG-CC-PVTZ-JKFIT

    Orbital Energies [Eh]
    ---------------------

    Doubly Occupied:

       1A    -20.616429     2A    -20.552261     3A    -11.391219
       4A    -11.254753     5A    -11.240965     6A    -11.232676
       7A    -11.230504     8A    -11.214874     9A     -1.460040
      10A     -1.357356    11A     -1.102655    12A     -1.045750
      13A     -0.959955    14A     -0.870402    15A     -0.807473
      16A     -0.735632    17A     -0.702657    18A     -0.681843
      19A     -0.655825    20A     -0.622830    21A     -0.613135
      22A     -0.597666    23A     -0.581361    24A     -0.554254
      25A     -0.528876    26A     -0.499092    27A     -0.492853
      28A     -0.483465    29A     -0.477296    30A     -0.455557
      31A     -0.355009

  @DF-RHF Final Energy:  -382.90147694998427

   => Energetics <=

    Nuclear Repulsion Energy =            354.7652233538631208
    One-Electron Energy =               -1224.5840768645107346
    Two-Electron Energy =                 486.9173765606633424
    Total Energy =                       -382.9014769499842714
  Basis Set: (AUG-CC-PVTZ AUX)
    Blend: AUG-CC-PVTZ-RI
    Molecular point group: c1

    Geometry (in Angstrom), charge = 0, multiplicity = 1:

       Center              X                  Y                   Z               Mass
    ------------   -----------------  -----------------  -----------------  -----------------
         O           -3.124813819960    -0.388841641031    -0.149534167851    15.994914619570
         O           -1.725181819960     1.389130358969    -0.253986167851    15.994914619570
         C            2.924936180040    -0.441268641031    -0.387872167851    12.000000000000
         C            1.503367180040    -0.904390641031    -0.234526167851    12.000000000000
         C           -0.878399819960    -0.768806641031     0.500052832149    12.000000000000
         C            0.516676180040    -0.237097641031     0.379415832149    12.000000000000
         C            3.232174180040     0.923768358969     0.217821832149    12.000000000000
         C           -1.908973819960     0.209366358969    -0.011784167851    12.000000000000
         H            3.588361180040    -1.197026641031     0.054275832149     1.007825032230
         H            3.172353180040    -0.430555641031    -1.457993167851     1.007825032230
         H            1.265674680040    -1.922139541031    -0.694613467851     1.007825032230
         H           -0.997452819960    -1.715629641031    -0.037367167851     1.007825032230
         H           -1.139091819960    -0.978342641031     1.547472832149     1.007825032230
         H            0.695325180040     0.740091358969     0.819622832149     1.007825032230
         H            4.281503180040     1.185653358969     0.057458832149     1.007825032230
         H            2.615532180040     1.703596358969    -0.237110167851     1.007825032230
         H            3.044822180040     0.928408358969     1.295110832149     1.007825032230
         H           -3.729264819960     0.318260358969    -0.456844167851     1.007825032230

  Basis Set: AUG-CC-PVTZ
    Blend: AUG-CC-PVTZ
  Basis Set: (AUG-CC-PVTZ AUX)
    Blend: AUG-CC-PVTZ-JKFIT
	 Reference Energy          =    -382.9014769499842714 [Eh]
	 Singles Energy            =      -0.0000000000000000 [Eh]
	 Same-Spin Energy          =      -0.3831095634179825 [Eh]
	 Opposite-Spin Energy      =      -1.2546294779010749 [Eh]
	 Correlation Energy        =      -1.6377390413190573 [Eh]
	 Total Energy              =    -384.5392159913033083 [Eh]

	 ================> DF-SCS-MP2 Energies <==================
	-----------------------------------------------------------
	 SCS Same-Spin Scale       =       0.3333333333333333 [-]
	 SCS Opposite-Spin Scale   =       1.2000000000000000 [-]
	 SCS Same-Spin Energy      =      -0.1277031878059942 [Eh]
	 SCS Opposite-Spin Energy  =      -1.5055553734812899 [Eh]
	 SCS Correlation Energy    =      -1.6332585612872841 [Eh]
	 SCS Total Energy          =    -384.5347355112715491 [Eh]
	-----------------------------------------------------------

  Dipole Moment: [D]
     X:     0.1801      Y:    -1.3874      Z:     0.2512     Total:     1.4215

*** Psi4 exiting successfully. Buy a developer a beer!
