                               Psi4 1.3.2 release

  ==> Input File <==

--------------------------------------------------------------------------
#psi4
#
memory 32 gb

molecule  {
0 1
  O        3.1501630     0.3869830     0.0122970
  O        1.7226580    -1.3643080    -0.2059640
  C       -2.9265714     0.3873856    -0.5348488
  C       -1.4960630     0.8252950    -0.4074400
  C        0.8585340     0.8235180     0.4136200
  C       -0.5245990     0.2621860     0.3264500
  C       -3.2476580    -0.8824200     0.3361610
  C        1.9107340    -0.1856640     0.0271730
  H       -3.5825680     1.1749950    -0.2170990
  H       -3.1475630     0.1432210    -1.5599470
  H       -1.2915528     1.7199867    -1.0054819
  H        0.9787830     1.7133270    -0.2211670
  H        1.0972480     1.1531100     1.4329360
  H       -0.7130820    -0.6444280     0.9033180
  H       -4.2956480    -1.1625270     0.2123440
  H       -2.6314050    -1.7369230     0.0388270
  H       -3.0739380    -0.6897760     1.4001060
  H        3.7686820    -0.3352680    -0.2293440
units angstrom
no_reorient  #important for SAPT in psi4, default
symmetry c1  #important for SAPT in psi4, default
}

set PROPERTIES_ORIGIN ["COM"]
properties('MP2/aug-cc-pvtz', properties = ['dipole'])
--------------------------------------------------------------------------

    Molecular point group: c1
  Charge       = 0
  Multiplicity = 1
  Basis Set: AUG-CC-PVTZ
    Blend: AUG-CC-PVTZ
  Basis Set: (AUG-CC-PVTZ AUX)
    Blend: AUG-CC-PVTZ-JKFIT

    Orbital Energies [Eh]
    ---------------------

    Doubly Occupied:

       1A    -20.615887     2A    -20.552961     3A    -11.390719
       4A    -11.254624     5A    -11.235809     6A    -11.233778
       7A    -11.227421     8A    -11.215503     9A     -1.458788
      10A     -1.358306    11A     -1.101702    12A     -1.042356
      13A     -0.956204    14A     -0.873245    15A     -0.807425
      16A     -0.739705    17A     -0.703048    18A     -0.682950
      19A     -0.654890    20A     -0.623139    21A     -0.615743
      22A     -0.600234    23A     -0.582603    24A     -0.551796
      25A     -0.523743    26A     -0.506195    27A     -0.494848
      28A     -0.483606    29A     -0.468779    30A     -0.455683
      31A     -0.355999

  @DF-RHF Final Energy:  -382.90075048816880

   => Energetics <=

    Nuclear Repulsion Energy =            354.5830648580451339
    One-Electron Energy =               -1224.2322507958799633
    Two-Electron Energy =                 486.7484354496659762
    Total Energy =                       -382.9007504881687964
  Basis Set: (AUG-CC-PVTZ AUX)
    Blend: AUG-CC-PVTZ-RI
    Molecular point group: c1

    Geometry (in Angstrom), charge = 0, multiplicity = 1:

       Center              X                  Y                   Z               Mass
    ------------   -----------------  -----------------  -----------------  -----------------
         O            3.151557268952     0.382796491335     0.015837944199    15.994914619570
         O            1.724052268952    -1.368494508665    -0.202423055801    15.994914619570
         C           -2.925177131048     0.383199091335    -0.531307855801    12.000000000000
         C           -1.494668731048     0.821108491335    -0.403899055801    12.000000000000
         C            0.859928268952     0.819331491335     0.417160944199    12.000000000000
         C           -0.523204731048     0.257999491335     0.329990944199    12.000000000000
         C           -3.246263731048    -0.886606508665     0.339701944199    12.000000000000
         C            1.912128268952    -0.189850508665     0.030713944199    12.000000000000
         H           -3.581173731048     1.170808491335    -0.213558055801     1.007825032230
         H           -3.146168731048     0.139034491335    -1.556406055801     1.007825032230
         H           -1.290158531048     1.715800191335    -1.001940955801     1.007825032230
         H            0.980177268952     1.709140491335    -0.217626055801     1.007825032230
         H            1.098642268952     1.148923491335     1.436476944199     1.007825032230
         H           -0.711687731048    -0.648614508665     0.906858944199     1.007825032230
         H           -4.294253731048    -1.166713508665     0.215884944199     1.007825032230
         H           -2.630010731048    -1.741109508665     0.042367944199     1.007825032230
         H           -3.072543731048    -0.693962508665     1.403646944199     1.007825032230
         H            3.770076268952    -0.339454508665    -0.225803055801     1.007825032230

  Basis Set: AUG-CC-PVTZ
    Blend: AUG-CC-PVTZ
  Basis Set: (AUG-CC-PVTZ AUX)
    Blend: AUG-CC-PVTZ-JKFIT
	 Reference Energy          =    -382.9007504881687964 [Eh]
	 Singles Energy            =      -0.0000000000000000 [Eh]
	 Same-Spin Energy          =      -0.3828403639421039 [Eh]
	 Opposite-Spin Energy      =      -1.2544476839635643 [Eh]
	 Correlation Energy        =      -1.6372880479056682 [Eh]
	 Total Energy              =    -384.5380385360744526 [Eh]

	 ================> DF-SCS-MP2 Energies <==================
	-----------------------------------------------------------
	 SCS Same-Spin Scale       =       0.3333333333333333 [-]
	 SCS Opposite-Spin Scale   =       1.2000000000000000 [-]
	 SCS Same-Spin Energy      =      -0.1276134546473680 [Eh]
	 SCS Opposite-Spin Energy  =      -1.5053372207562772 [Eh]
	 SCS Correlation Energy    =      -1.6329506754036451 [Eh]
	 SCS Total Energy          =    -384.5337011635724593 [Eh]
	-----------------------------------------------------------

  Dipole Moment: [D]
     X:    -0.1559      Y:     1.4156      Z:     0.1942     Total:     1.4374

*** Psi4 exiting successfully. Buy a developer a beer!
