                               Psi4 1.3.2 release

  ==> Input File <==

--------------------------------------------------------------------------
#psi4
#
memory 32 gb

molecule  {
0 1
  O        3.1501630     0.3869830     0.0122970
  O        1.7226580    -1.3643080    -0.2059640
  C       -2.9163610     0.3476720    -0.5022120
  C       -1.4960630     0.8252950    -0.4074400
  C        0.8585340     0.8235180     0.4136200
  C       -0.5245990     0.2621860     0.3264500
  C       -3.2476580    -0.8824200     0.3361610
  C        1.9107340    -0.1856640     0.0271730
  H       -3.5825680     1.1749950    -0.2170990
  H       -3.1475630     0.1432210    -1.5599470
  H       -1.2992711     1.5558423    -0.8863513
  H        0.9787830     1.7133270    -0.2211670
  H        1.0972480     1.1531100     1.4329360
  H       -0.7130820    -0.6444280     0.9033180
  H       -4.2956480    -1.1625270     0.2123440
  H       -2.6314050    -1.7369230     0.0388270
  H       -3.0739380    -0.6897760     1.4001060
  H        3.7686820    -0.3352680    -0.2293440
units angstrom
no_reorient  #important for SAPT in psi4, default
symmetry c1  #important for SAPT in psi4, default
}

set PROPERTIES_ORIGIN ["COM"]
properties('MP2/aug-cc-pvtz', properties = ['dipole'])
--------------------------------------------------------------------------

    Molecular point group: c1
  Charge       = 0
  Multiplicity = 1
  Basis Set: AUG-CC-PVTZ
    Blend: AUG-CC-PVTZ
  Basis Set: (AUG-CC-PVTZ AUX)
    Blend: AUG-CC-PVTZ-JKFIT

    Orbital Energies [Eh]
    ---------------------

    Doubly Occupied:

       1A    -20.615863     2A    -20.552919     3A    -11.390647
       4A    -11.254490     5A    -11.231396     6A    -11.228107
       7A    -11.213377     8A    -11.210382     9A     -1.458750
      10A     -1.358241    11A     -1.108521    12A     -1.045617
      13A     -0.967230    14A     -0.873032    15A     -0.807476
      16A     -0.765570    17A     -0.704698    18A     -0.683960
      19A     -0.655433    20A     -0.634938    21A     -0.610938
      22A     -0.605562    23A     -0.582801    24A     -0.551857
      25A     -0.527426    26A     -0.497161    27A     -0.493383
      28A     -0.488926    29A     -0.482652    30A     -0.456149
      31A     -0.353036

  @DF-RHF Final Energy:  -382.87094574111927

   => Energetics <=

    Nuclear Repulsion Energy =            356.1287726591172031
    One-Electron Energy =               -1227.1783661487868358
    Two-Electron Energy =                 488.1786477485503610
    Total Energy =                       -382.8709457411192716
  Basis Set: (AUG-CC-PVTZ AUX)
    Blend: AUG-CC-PVTZ-RI
    Molecular point group: c1

    Geometry (in Angstrom), charge = 0, multiplicity = 1:

       Center              X                  Y                   Z               Mass
    ------------   -----------------  -----------------  -----------------  -----------------
         O            3.150551324919     0.388424639347     0.011351988069    15.994914619570
         O            1.723046324919    -1.362866360653    -0.206909011931    15.994914619570
         C           -2.915972675081     0.349113639347    -0.503157011931    12.000000000000
         C           -1.495674675081     0.826736639347    -0.408385011931    12.000000000000
         C            0.858922324919     0.824959639347     0.412674988069    12.000000000000
         C           -0.524210675081     0.263627639347     0.325504988069    12.000000000000
         C           -3.247269675081    -0.880978360653     0.335215988069    12.000000000000
         C            1.911122324919    -0.184222360653     0.026227988069    12.000000000000
         H           -3.582179675081     1.176436639347    -0.218044011931     1.007825032230
         H           -3.147174675081     0.144662639347    -1.560892011931     1.007825032230
         H           -1.298882775081     1.557283939347    -0.887296311931     1.007825032230
         H            0.979171324919     1.714768639347    -0.222112011931     1.007825032230
         H            1.097636324919     1.154551639347     1.431990988069     1.007825032230
         H           -0.712693675081    -0.642986360653     0.902372988069     1.007825032230
         H           -4.295259675081    -1.161085360653     0.211398988069     1.007825032230
         H           -2.631016675081    -1.735481360653     0.037881988069     1.007825032230
         H           -3.073549675081    -0.688334360653     1.399160988069     1.007825032230
         H            3.769070324919    -0.333826360653    -0.230289011931     1.007825032230

  Basis Set: AUG-CC-PVTZ
    Blend: AUG-CC-PVTZ
  Basis Set: (AUG-CC-PVTZ AUX)
    Blend: AUG-CC-PVTZ-JKFIT
	 Reference Energy          =    -382.8709457411192716 [Eh]
	 Singles Energy            =      -0.0000000000000000 [Eh]
	 Same-Spin Energy          =      -0.3829387486074358 [Eh]
	 Opposite-Spin Energy      =      -1.2539450059218882 [Eh]
	 Correlation Energy        =      -1.6368837545293240 [Eh]
	 Total Energy              =    -384.5078294956485934 [Eh]

	 ================> DF-SCS-MP2 Energies <==================
	-----------------------------------------------------------
	 SCS Same-Spin Scale       =       0.3333333333333333 [-]
	 SCS Opposite-Spin Scale   =       1.2000000000000000 [-]
	 SCS Same-Spin Energy      =      -0.1276462495358119 [Eh]
	 SCS Opposite-Spin Energy  =      -1.5047340071062658 [Eh]
	 SCS Correlation Energy    =      -1.6323802566420778 [Eh]
	 SCS Total Energy          =    -384.5033259977613511 [Eh]
	-----------------------------------------------------------

  Dipole Moment: [D]
     X:    -0.1208      Y:     1.4624      Z:     0.1708     Total:     1.4773

*** Psi4 exiting successfully. Buy a developer a beer!
