                               Psi4 1.3.2 release

  ==> Input File <==

--------------------------------------------------------------------------
#psi4
#
memory 32 gb

molecule  {
0 1
  O        3.1501630     0.3869830     0.0122970
  O        1.7226580    -1.3643080    -0.2059640
  C       -2.9163610     0.3476720    -0.5022120
  C       -1.5047223     0.8487979    -0.3997376
  C        0.8585340     0.8235180     0.4136200
  C       -0.5245990     0.2621860     0.3264500
  C       -3.2476580    -0.8824200     0.3361610
  C        1.9107340    -0.1856640     0.0271730
  H       -3.5672108     1.1861396    -0.2141997
  H       -3.1475630     0.1432210    -1.5599470
  H       -1.2553160     1.7190160    -0.9933200
  H        0.9787830     1.7133270    -0.2211670
  H        1.0972480     1.1531100     1.4329360
  H       -0.7130820    -0.6444280     0.9033180
  H       -4.2956480    -1.1625270     0.2123440
  H       -2.6314050    -1.7369230     0.0388270
  H       -3.0739380    -0.6897760     1.4001060
  H        3.7686820    -0.3352680    -0.2293440
units angstrom
no_reorient  #important for SAPT in psi4, default
symmetry c1  #important for SAPT in psi4, default
}

set PROPERTIES_ORIGIN ["COM"]
properties('MP2/aug-cc-pvtz', properties = ['dipole'])
--------------------------------------------------------------------------

    Molecular point group: c1
  Charge       = 0
  Multiplicity = 1
  Basis Set: AUG-CC-PVTZ
    Blend: AUG-CC-PVTZ
  Basis Set: (AUG-CC-PVTZ AUX)
    Blend: AUG-CC-PVTZ-JKFIT

    Orbital Energies [Eh]
    ---------------------

    Doubly Occupied:

       1A    -20.615666     2A    -20.552756     3A    -11.390411
       4A    -11.254009     5A    -11.236139     6A    -11.233786
       7A    -11.230078     8A    -11.215200     9A     -1.458569
      10A     -1.358095    11A     -1.101775    12A     -1.045455
      13A     -0.958876    14A     -0.870754    15A     -0.805183
      16A     -0.740884    17A     -0.703013    18A     -0.682277
      19A     -0.653932    20A     -0.626053    21A     -0.612501
      22A     -0.599090    23A     -0.581814    24A     -0.551976
      25A     -0.528166    26A     -0.498896    27A     -0.489716
      28A     -0.486817    29A     -0.481725    30A     -0.455660
      31A     -0.350961

  @DF-RHF Final Energy:  -382.90212876170466

   => Energetics <=

    Nuclear Repulsion Energy =            354.8731460781359033
    One-Electron Energy =               -1224.8100830356645474
    Two-Electron Energy =                 487.0348081958239277
    Total Energy =                       -382.9021287617046596
  Basis Set: (AUG-CC-PVTZ AUX)
    Blend: AUG-CC-PVTZ-RI
    Molecular point group: c1

    Geometry (in Angstrom), charge = 0, multiplicity = 1:

       Center              X                  Y                   Z               Mass
    ------------   -----------------  -----------------  -----------------  -----------------
         O            3.150938244550     0.384411972981     0.011461176778    15.994914619570
         O            1.723433244550    -1.366879027019    -0.206799823222    15.994914619570
         C           -2.915585755450     0.345100972981    -0.503047823222    12.000000000000
         C           -1.503947055450     0.846226872981    -0.400573423222    12.000000000000
         C            0.859309244550     0.820946972981     0.412784176778    12.000000000000
         C           -0.523823755450     0.259614972981     0.325614176778    12.000000000000
         C           -3.246882755450    -0.884991027019     0.335325176778    12.000000000000
         C            1.911509244550    -0.188235027019     0.026337176778    12.000000000000
         H           -3.566435555450     1.183568572981    -0.215035523222     1.007825032230
         H           -3.146787755450     0.140649972981    -1.560782823222     1.007825032230
         H           -1.254540755450     1.716444972981    -0.994155823222     1.007825032230
         H            0.979558244550     1.710755972981    -0.222002823222     1.007825032230
         H            1.098023244550     1.150538972981     1.432100176778     1.007825032230
         H           -0.712306755450    -0.646999027019     0.902482176778     1.007825032230
         H           -4.294872755450    -1.165098027019     0.211508176778     1.007825032230
         H           -2.630629755450    -1.739494027019     0.037991176778     1.007825032230
         H           -3.073162755450    -0.692347027019     1.399270176778     1.007825032230
         H            3.769457244550    -0.337839027019    -0.230179823222     1.007825032230

  Basis Set: AUG-CC-PVTZ
    Blend: AUG-CC-PVTZ
  Basis Set: (AUG-CC-PVTZ AUX)
    Blend: AUG-CC-PVTZ-JKFIT
	 Reference Energy          =    -382.9021287617046596 [Eh]
	 Singles Energy            =      -0.0000000000000000 [Eh]
	 Same-Spin Energy          =      -0.3832483469173398 [Eh]
	 Opposite-Spin Energy      =      -1.2548279045746629 [Eh]
	 Correlation Energy        =      -1.6380762514920026 [Eh]
	 Total Energy              =    -384.5402050131966689 [Eh]

	 ================> DF-SCS-MP2 Energies <==================
	-----------------------------------------------------------
	 SCS Same-Spin Scale       =       0.3333333333333333 [-]
	 SCS Opposite-Spin Scale   =       1.2000000000000000 [-]
	 SCS Same-Spin Energy      =      -0.1277494489724466 [Eh]
	 SCS Opposite-Spin Energy  =      -1.5057934854895954 [Eh]
	 SCS Correlation Energy    =      -1.6335429344620420 [Eh]
	 SCS Total Energy          =    -384.5356716961666734 [Eh]
	-----------------------------------------------------------

  Dipole Moment: [D]
     X:    -0.1749      Y:     1.3821      Z:     0.1870     Total:     1.4056

*** Psi4 exiting successfully. Buy a developer a beer!
