                               Psi4 1.3.2 release

  ==> Input File <==

--------------------------------------------------------------------------
#psi4
#
memory 32 gb

molecule  {
0 1
  O        3.1501630     0.3869830     0.0122970
  O        1.7226580    -1.3643080    -0.2059640
  C       -2.9163610     0.3476720    -0.5022120
  C       -1.4960630     0.8252950    -0.4074400
  C        0.8585340     0.8235180     0.4136200
  C       -0.4933694     0.1943308     0.3030315
  C       -3.2476580    -0.8824200     0.3361610
  C        1.8529463    -0.2379503     0.0144413
  H       -3.5825680     1.1749950    -0.2170990
  H       -3.1475630     0.1432210    -1.5599470
  H       -1.2553160     1.7190160    -0.9933200
  H        0.9787830     1.7133270    -0.2211670
  H        1.0972480     1.1531100     1.4329360
  H       -0.7130820    -0.6444280     0.9033180
  H       -4.2956480    -1.1625270     0.2123440
  H       -2.6314050    -1.7369230     0.0388270
  H       -3.0739380    -0.6897760     1.4001060
  H        3.7686820    -0.3352680    -0.2293440
units angstrom
no_reorient  #important for SAPT in psi4, default
symmetry c1  #important for SAPT in psi4, default
}

set PROPERTIES_ORIGIN ["COM"]
properties('MP2/aug-cc-pvtz', properties = ['dipole'])
--------------------------------------------------------------------------

    Molecular point group: c1
  Charge       = 0
  Multiplicity = 1
  Basis Set: AUG-CC-PVTZ
    Blend: AUG-CC-PVTZ
  Basis Set: (AUG-CC-PVTZ AUX)
    Blend: AUG-CC-PVTZ-JKFIT

    Orbital Energies [Eh]
    ---------------------

    Doubly Occupied:

       1A    -20.591533     2A    -20.566822     3A    -11.384871
       4A    -11.255133     5A    -11.243191     6A    -11.235728
       7A    -11.231463     8A    -11.216646     9A     -1.468379
      10A     -1.356311    11A     -1.101888    12A     -1.047360
      13A     -0.953519    14A     -0.868796    15A     -0.784762
      16A     -0.748979    17A     -0.703713    18A     -0.683069
      19A     -0.653259    20A     -0.623991    21A     -0.613503
      22A     -0.602530    23A     -0.585321    24A     -0.547398
      25A     -0.535176    26A     -0.499812    27A     -0.496520
      28A     -0.490683    29A     -0.488601    30A     -0.455712
      31A     -0.346683

  @DF-RHF Final Energy:  -382.88968162436964

   => Energetics <=

    Nuclear Repulsion Energy =            355.4625035786604030
    One-Electron Energy =               -1225.9416692737900121
    Two-Electron Energy =                 487.5894840707599656
    Total Energy =                       -382.8896816243696435
  Basis Set: (AUG-CC-PVTZ AUX)
    Blend: AUG-CC-PVTZ-RI
    Molecular point group: c1

    Geometry (in Angstrom), charge = 0, multiplicity = 1:

       Center              X                  Y                   Z               Mass
    ------------   -----------------  -----------------  -----------------  -----------------
         O            3.152956889657     0.399621877570     0.016100101087    15.994914619570
         O            1.725451889657    -1.351669122430    -0.202160898913    15.994914619570
         C           -2.913567110343     0.360310877570    -0.498408898913    12.000000000000
         C           -1.493269110343     0.837933877570    -0.403636898913    12.000000000000
         C            0.861327889657     0.836156877570     0.417423101087    12.000000000000
         C           -0.490575510343     0.206969677570     0.306834601087    12.000000000000
         C           -3.244864110343    -0.869781122430     0.339964101087    12.000000000000
         C            1.855740189657    -0.225311422430     0.018244401087    12.000000000000
         H           -3.579774110343     1.187633877570    -0.213295898913     1.007825032230
         H           -3.144769110343     0.155859877570    -1.556143898913     1.007825032230
         H           -1.252522110343     1.731654877570    -0.989516898913     1.007825032230
         H            0.981576889657     1.725965877570    -0.217363898913     1.007825032230
         H            1.100041889657     1.165748877570     1.436739101087     1.007825032230
         H           -0.710288110343    -0.631789122430     0.907121101087     1.007825032230
         H           -4.292854110343    -1.149888122430     0.216147101087     1.007825032230
         H           -2.628611110343    -1.724284122430     0.042630101087     1.007825032230
         H           -3.071144110343    -0.677137122430     1.403909101087     1.007825032230
         H            3.771475889657    -0.322629122430    -0.225540898913     1.007825032230

  Basis Set: AUG-CC-PVTZ
    Blend: AUG-CC-PVTZ
  Basis Set: (AUG-CC-PVTZ AUX)
    Blend: AUG-CC-PVTZ-JKFIT
	 Reference Energy          =    -382.8896816243696435 [Eh]
	 Singles Energy            =      -0.0000000000000000 [Eh]
	 Same-Spin Energy          =      -0.3831544352300266 [Eh]
	 Opposite-Spin Energy      =      -1.2552869755174867 [Eh]
	 Correlation Energy        =      -1.6384414107475131 [Eh]
	 Total Energy              =    -384.5281230351171757 [Eh]

	 ================> DF-SCS-MP2 Energies <==================
	-----------------------------------------------------------
	 SCS Same-Spin Scale       =       0.3333333333333333 [-]
	 SCS Opposite-Spin Scale   =       1.2000000000000000 [-]
	 SCS Same-Spin Energy      =      -0.1277181450766755 [Eh]
	 SCS Opposite-Spin Energy  =      -1.5063443706209840 [Eh]
	 SCS Correlation Energy    =      -1.6340625156976596 [Eh]
	 SCS Total Energy          =    -384.5237441400673220 [Eh]
	-----------------------------------------------------------

  Dipole Moment: [D]
     X:    -0.7867      Y:     1.0205      Z:     0.2177     Total:     1.3068

*** Psi4 exiting successfully. Buy a developer a beer!
