                               Psi4 1.3.2 release

  ==> Input File <==

--------------------------------------------------------------------------
#psi4
#
memory 32 gb

molecule  {
0 1
  O        3.1501630     0.3869830     0.0122970
  O        1.7226580    -1.3643080    -0.2059640
  C       -2.9163610     0.3476720    -0.5022120
  C       -1.4960630     0.8252950    -0.4074400
  C        0.8585340     0.8235180     0.4136200
  C       -0.5245990     0.2621860     0.3264500
  C       -3.2476580    -0.8824200     0.3361610
  C        1.9107340    -0.1856640     0.0271730
  H       -3.5825680     1.1749950    -0.2170990
  H       -3.1475630     0.1432210    -1.5599470
  H       -1.2553160     1.7190160    -0.9933200
  H        0.9787830     1.7133270    -0.2211670
  H        1.0972480     1.1531100     1.4329360
  H       -0.7130820    -0.6444280     0.9033180
  H       -4.2956480    -1.1625270     0.2123440
  H       -2.6314050    -1.7369230     0.0388270
  H       -3.0739380    -0.6897760     1.4001060
  H        3.8317239    -0.4088827    -0.2539730
units angstrom
no_reorient  #important for SAPT in psi4, default
symmetry c1  #important for SAPT in psi4, default
}

set PROPERTIES_ORIGIN ["COM"]
properties('MP2/aug-cc-pvtz', properties = ['dipole'])
--------------------------------------------------------------------------

    Molecular point group: c1
  Charge       = 0
  Multiplicity = 1
  Basis Set: AUG-CC-PVTZ
    Blend: AUG-CC-PVTZ
  Basis Set: (AUG-CC-PVTZ AUX)
    Blend: AUG-CC-PVTZ-JKFIT

    Orbital Energies [Eh]
    ---------------------

    Doubly Occupied:

       1A    -20.620996     2A    -20.550958     3A    -11.388686
       4A    -11.253864     5A    -11.235104     6A    -11.231961
       7A    -11.229795     8A    -11.214507     9A     -1.446990
      10A     -1.348631    11A     -1.102365    12A     -1.044063
      13A     -0.957780    14A     -0.867037    15A     -0.792920
      16A     -0.738553    17A     -0.692463    18A     -0.679878
      19A     -0.652167    20A     -0.623942    21A     -0.611749
      22A     -0.597138    23A     -0.575257    24A     -0.550735
      25A     -0.527282    26A     -0.497912    27A     -0.490729
      28A     -0.483297    29A     -0.478896    30A     -0.454101
      31A     -0.353581

  @DF-RHF Final Energy:  -382.88977141620779

   => Energetics <=

    Nuclear Repulsion Energy =            354.5206865084634273
    One-Electron Energy =               -1224.2342404222376899
    Two-Electron Energy =                 486.8237824975664694
    Total Energy =                       -382.8897714162077932
  Basis Set: (AUG-CC-PVTZ AUX)
    Blend: AUG-CC-PVTZ-RI
    Molecular point group: c1

    Geometry (in Angstrom), charge = 0, multiplicity = 1:

       Center              X                  Y                   Z               Mass
    ------------   -----------------  -----------------  -----------------  -----------------
         O            3.149605974954     0.387633359241     0.012514692453    15.994914619570
         O            1.722100974954    -1.363657640759    -0.205746307547    15.994914619570
         C           -2.916918025046     0.348322359241    -0.501994307547    12.000000000000
         C           -1.496620025046     0.825945359241    -0.407222307547    12.000000000000
         C            0.857976974954     0.824168359241     0.413837692453    12.000000000000
         C           -0.525156025046     0.262836359241     0.326667692453    12.000000000000
         C           -3.248215025046    -0.881769640759     0.336378692453    12.000000000000
         C            1.910176974954    -0.185013640759     0.027390692453    12.000000000000
         H           -3.583125025046     1.175645359241    -0.216881307547     1.007825032230
         H           -3.148120025046     0.143871359241    -1.559729307547     1.007825032230
         H           -1.255873025046     1.719666359241    -0.993102307547     1.007825032230
         H            0.978225974954     1.713977359241    -0.220949307547     1.007825032230
         H            1.096690974954     1.153760359241     1.433153692453     1.007825032230
         H           -0.713639025046    -0.643777640759     0.903535692453     1.007825032230
         H           -4.296205025046    -1.161876640759     0.212561692453     1.007825032230
         H           -2.631962025046    -1.736272640759     0.039044692453     1.007825032230
         H           -3.074495025046    -0.689125640759     1.400323692453     1.007825032230
         H            3.831166874954    -0.408232340759    -0.253755307547     1.007825032230

  Basis Set: AUG-CC-PVTZ
    Blend: AUG-CC-PVTZ
  Basis Set: (AUG-CC-PVTZ AUX)
    Blend: AUG-CC-PVTZ-JKFIT
	 Reference Energy          =    -382.8897714162077932 [Eh]
	 Singles Energy            =      -0.0000000000000000 [Eh]
	 Same-Spin Energy          =      -0.3844060322981149 [Eh]
	 Opposite-Spin Energy      =      -1.2576390915824414 [Eh]
	 Correlation Energy        =      -1.6420451238805562 [Eh]
	 Total Energy              =    -384.5318165400883572 [Eh]

	 ================> DF-SCS-MP2 Energies <==================
	-----------------------------------------------------------
	 SCS Same-Spin Scale       =       0.3333333333333333 [-]
	 SCS Opposite-Spin Scale   =       1.2000000000000000 [-]
	 SCS Same-Spin Energy      =      -0.1281353440993716 [Eh]
	 SCS Opposite-Spin Energy  =      -1.5091669098989295 [Eh]
	 SCS Correlation Energy    =      -1.6373022539983011 [Eh]
	 SCS Total Energy          =    -384.5270736702061072 [Eh]
	-----------------------------------------------------------

  Dipole Moment: [D]
     X:    -0.0865      Y:     1.3256      Z:     0.1806     Total:     1.3406

*** Psi4 exiting successfully. Buy a developer a beer!
