                               Psi4 1.3.2 release

  ==> Input File <==

--------------------------------------------------------------------------
#psi4
#
memory 32 gb

molecule  {
0 1
  O        3.1501630     0.3869830     0.0122970
  O        1.7226580    -1.3643080    -0.2059640
  C       -2.9163610     0.3476720    -0.5022120
  C       -1.4960630     0.8252950    -0.4074400
  C        0.8585340     0.8235180     0.4136200
  C       -0.5212567     0.2527947     0.3348698
  C       -3.2476580    -0.8824200     0.3361610
  C        1.9107340    -0.1856640     0.0271730
  H       -3.5825680     1.1749950    -0.2170990
  H       -3.1475630     0.1432210    -1.5599470
  H       -1.2553160     1.7190160    -0.9933200
  H        0.9879186     1.7140679    -0.2183253
  H        1.0972480     1.1531100     1.4329360
  H       -0.7130820    -0.6444280     0.9033180
  H       -4.2956480    -1.1625270     0.2123440
  H       -2.6314050    -1.7369230     0.0388270
  H       -3.0739380    -0.6897760     1.4001060
  H        3.7686820    -0.3352680    -0.2293440
units angstrom
no_reorient  #important for SAPT in psi4, default
symmetry c1  #important for SAPT in psi4, default
}

set PROPERTIES_ORIGIN ["COM"]
properties('MP2/aug-cc-pvtz', properties = ['dipole'])
--------------------------------------------------------------------------

    Molecular point group: c1
  Charge       = 0
  Multiplicity = 1
  Basis Set: AUG-CC-PVTZ
    Blend: AUG-CC-PVTZ
  Basis Set: (AUG-CC-PVTZ AUX)
    Blend: AUG-CC-PVTZ-JKFIT

    Orbital Energies [Eh]
    ---------------------

    Doubly Occupied:

       1A    -20.615579     2A    -20.552632     3A    -11.390197
       4A    -11.254228     5A    -11.237130     6A    -11.233053
       7A    -11.230026     8A    -11.214835     9A     -1.458498
      10A     -1.358019    11A     -1.101959    12A     -1.045561
      13A     -0.958775    14A     -0.870658    15A     -0.805202
      16A     -0.741112    17A     -0.703011    18A     -0.682108
      19A     -0.653813    20A     -0.626291    21A     -0.612073
      22A     -0.598746    23A     -0.582085    24A     -0.551011
      25A     -0.530789    26A     -0.498148    27A     -0.490663
      28A     -0.485756    29A     -0.481018    30A     -0.455551
      31A     -0.351508

  @DF-RHF Final Energy:  -382.90238509575244

   => Energetics <=

    Nuclear Repulsion Energy =            354.9918347557369884
    One-Electron Energy =               -1225.0483643913134983
    Two-Electron Energy =                 487.1541445398240171
    Total Energy =                       -382.9023850957524360
  Basis Set: (AUG-CC-PVTZ AUX)
    Blend: AUG-CC-PVTZ-RI
    Molecular point group: c1

    Geometry (in Angstrom), charge = 0, multiplicity = 1:

       Center              X                  Y                   Z               Mass
    ------------   -----------------  -----------------  -----------------  -----------------
         O            3.149730641895     0.387964373537     0.011386214972    15.994914619570
         O            1.722225641895    -1.363326626463    -0.206874785028    15.994914619570
         C           -2.916793358105     0.348653373537    -0.503122785028    12.000000000000
         C           -1.496495358105     0.826276373537    -0.408350785028    12.000000000000
         C            0.858101641895     0.824499373537     0.412709214972    12.000000000000
         C           -0.521689058105     0.253776073537     0.333959014972    12.000000000000
         C           -3.248090358105    -0.881438626463     0.335250214972    12.000000000000
         C            1.910301641895    -0.184682626463     0.026262214972    12.000000000000
         H           -3.583000358105     1.175976373537    -0.218009785028     1.007825032230
         H           -3.147995358105     0.144202373537    -1.560857785028     1.007825032230
         H           -1.255748358105     1.719997373537    -0.994230785028     1.007825032230
         H            0.987486241895     1.715049273537    -0.219236085028     1.007825032230
         H            1.096815641895     1.154091373537     1.432025214972     1.007825032230
         H           -0.713514358105    -0.643446626463     0.902407214972     1.007825032230
         H           -4.296080358105    -1.161545626463     0.211433214972     1.007825032230
         H           -2.631837358105    -1.735941626463     0.037916214972     1.007825032230
         H           -3.074370358105    -0.688794626463     1.399195214972     1.007825032230
         H            3.768249641895    -0.334286626463    -0.230254785028     1.007825032230

  Basis Set: AUG-CC-PVTZ
    Blend: AUG-CC-PVTZ
  Basis Set: (AUG-CC-PVTZ AUX)
    Blend: AUG-CC-PVTZ-JKFIT
	 Reference Energy          =    -382.9023850957524360 [Eh]
	 Singles Energy            =      -0.0000000000000000 [Eh]
	 Same-Spin Energy          =      -0.3832287982170968 [Eh]
	 Opposite-Spin Energy      =      -1.2547806238200865 [Eh]
	 Correlation Energy        =      -1.6380094220371832 [Eh]
	 Total Energy              =    -384.5403945177895935 [Eh]

	 ================> DF-SCS-MP2 Energies <==================
	-----------------------------------------------------------
	 SCS Same-Spin Scale       =       0.3333333333333333 [-]
	 SCS Opposite-Spin Scale   =       1.2000000000000000 [-]
	 SCS Same-Spin Energy      =      -0.1277429327390323 [Eh]
	 SCS Opposite-Spin Energy  =      -1.5057367485841038 [Eh]
	 SCS Correlation Energy    =      -1.6334796813231360 [Eh]
	 SCS Total Energy          =    -384.5358647770755738 [Eh]
	-----------------------------------------------------------

  Dipole Moment: [D]
     X:    -0.1802      Y:     1.3934      Z:     0.2071     Total:     1.4202

*** Psi4 exiting successfully. Buy a developer a beer!
