                               Psi4 1.3.2 release

  ==> Input File <==

--------------------------------------------------------------------------
#psi4
#
memory 32 gb

molecule  {
0 1
  O        3.1501630     0.3869830     0.0122970
  O        1.7226580    -1.3643080    -0.2059640
  C       -2.9163610     0.3476720    -0.5022120
  C       -1.4960630     0.8252950    -0.4074400
  C        0.8585340     0.8235180     0.4136200
  C       -0.4808729     0.3121365     0.3035353
  C       -3.2476580    -0.8824200     0.3361610
  C        1.9107340    -0.1856640     0.0271730
  H       -3.5825680     1.1749950    -0.2170990
  H       -3.1475630     0.1432210    -1.5599470
  H       -1.2016195     1.7157390    -0.9734472
  H        0.9787830     1.7133270    -0.2211670
  H        1.0972480     1.1531100     1.4329360
  H       -0.7130820    -0.6444280     0.9033180
  H       -4.2956480    -1.1625270     0.2123440
  H       -2.6314050    -1.7369230     0.0388270
  H       -3.0739380    -0.6897760     1.4001060
  H        3.7686820    -0.3352680    -0.2293440
units angstrom
no_reorient  #important for SAPT in psi4, default
symmetry c1  #important for SAPT in psi4, default
}

set PROPERTIES_ORIGIN ["COM"]
properties('MP2/aug-cc-pvtz', properties = ['dipole'])
--------------------------------------------------------------------------

    Molecular point group: c1
  Charge       = 0
  Multiplicity = 1
  Basis Set: AUG-CC-PVTZ
    Blend: AUG-CC-PVTZ
  Basis Set: (AUG-CC-PVTZ AUX)
    Blend: AUG-CC-PVTZ-JKFIT

    Orbital Energies [Eh]
    ---------------------

    Doubly Occupied:

       1A    -20.616665     2A    -20.553726     3A    -11.391826
       4A    -11.252925     5A    -11.235400     6A    -11.233224
       7A    -11.232919     8A    -11.215546     9A     -1.459556
      10A     -1.358993    11A     -1.109228    12A     -1.050522
      13A     -0.961514    14A     -0.870242    15A     -0.810279
      16A     -0.731939    17A     -0.702436    18A     -0.685691
      19A     -0.658205    20A     -0.628476    21A     -0.613029
      22A     -0.595944    23A     -0.583516    24A     -0.561011
      25A     -0.521097    26A     -0.499055    27A     -0.496106
      28A     -0.483935    29A     -0.473015    30A     -0.457510
      31A     -0.352867

  @DF-RHF Final Energy:  -382.89560071072503

   => Energetics <=

    Nuclear Repulsion Energy =            355.5223213935404942
    One-Electron Energy =               -1226.0430547949363245
    Two-Electron Energy =                 487.6251326906707391
    Total Energy =                       -382.8956007107250343
  Basis Set: (AUG-CC-PVTZ AUX)
    Blend: AUG-CC-PVTZ-RI
    Molecular point group: c1

    Geometry (in Angstrom), charge = 0, multiplicity = 1:

       Center              X                  Y                   Z               Mass
    ------------   -----------------  -----------------  -----------------  -----------------
         O            3.145088544013     0.381757095721     0.014532140041    15.994914619570
         O            1.717583544013    -1.369533904279    -0.203728859959    15.994914619570
         C           -2.921435455987     0.342446095721    -0.499976859959    12.000000000000
         C           -1.501137455987     0.820069095721    -0.405204859959    12.000000000000
         C            0.853459544013     0.818292095721     0.415855140041    12.000000000000
         C           -0.485947355987     0.306910595721     0.305770440041    12.000000000000
         C           -3.252732455987    -0.887645904279     0.338396140041    12.000000000000
         C            1.905659544013    -0.190889904279     0.029408140041    12.000000000000
         H           -3.587642455987     1.169769095721    -0.214863859959     1.007825032230
         H           -3.152637455987     0.137995095721    -1.557711859959     1.007825032230
         H           -1.206693955987     1.710513095721    -0.971212059959     1.007825032230
         H            0.973708544013     1.708101095721    -0.218931859959     1.007825032230
         H            1.092173544013     1.147884095721     1.435171140041     1.007825032230
         H           -0.718156455987    -0.649653904279     0.905553140041     1.007825032230
         H           -4.300722455987    -1.167752904279     0.214579140041     1.007825032230
         H           -2.636479455987    -1.742148904279     0.041062140041     1.007825032230
         H           -3.079012455987    -0.695001904279     1.402341140041     1.007825032230
         H            3.763607544013    -0.340493904279    -0.227108859959     1.007825032230

  Basis Set: AUG-CC-PVTZ
    Blend: AUG-CC-PVTZ
  Basis Set: (AUG-CC-PVTZ AUX)
    Blend: AUG-CC-PVTZ-JKFIT
	 Reference Energy          =    -382.8956007107250343 [Eh]
	 Singles Energy            =      -0.0000000000000000 [Eh]
	 Same-Spin Energy          =      -0.3839349646027374 [Eh]
	 Opposite-Spin Energy      =      -1.2555875661754869 [Eh]
	 Correlation Energy        =      -1.6395225307782244 [Eh]
	 Total Energy              =    -384.5351232415032428 [Eh]

	 ================> DF-SCS-MP2 Energies <==================
	-----------------------------------------------------------
	 SCS Same-Spin Scale       =       0.3333333333333333 [-]
	 SCS Opposite-Spin Scale   =       1.2000000000000000 [-]
	 SCS Same-Spin Energy      =      -0.1279783215342458 [Eh]
	 SCS Opposite-Spin Energy  =      -1.5067050794105843 [Eh]
	 SCS Correlation Energy    =      -1.6346834009448301 [Eh]
	 SCS Total Energy          =    -384.5302841116698573 [Eh]
	-----------------------------------------------------------

  Dipole Moment: [D]
     X:    -0.1505      Y:     1.3726      Z:     0.2163     Total:     1.3976

*** Psi4 exiting successfully. Buy a developer a beer!
