                               Psi4 1.3.2 release

  ==> Input File <==

--------------------------------------------------------------------------
#psi4
#
memory 32 gb

molecule  {
0 1
  O        3.1501630     0.3869830     0.0122970
  O        1.7226580    -1.3643080    -0.2059640
  C       -2.9163610     0.3476720    -0.5022120
  C       -1.4960630     0.8252950    -0.4074400
  C        0.8585340     0.8235180     0.4136200
  C       -0.5341703     0.2851556     0.3343124
  C       -3.2476580    -0.8824200     0.3361610
  C        1.9293633    -0.1676132     0.0316541
  H       -3.5825680     1.1749950    -0.2170990
  H       -3.1475630     0.1432210    -1.5599470
  H       -1.2553160     1.7190160    -0.9933200
  H        0.9787830     1.7133270    -0.2211670
  H        1.0972480     1.1531100     1.4329360
  H       -0.7130820    -0.6444280     0.9033180
  H       -4.2956480    -1.1625270     0.2123440
  H       -2.6314050    -1.7369230     0.0388270
  H       -3.0739380    -0.6897760     1.4001060
  H        3.7686820    -0.3352680    -0.2293440
units angstrom
no_reorient  #important for SAPT in psi4, default
symmetry c1  #important for SAPT in psi4, default
}

set PROPERTIES_ORIGIN ["COM"]
properties('MP2/aug-cc-pvtz', properties = ['dipole'])
--------------------------------------------------------------------------

    Molecular point group: c1
  Charge       = 0
  Multiplicity = 1
  Basis Set: AUG-CC-PVTZ
    Blend: AUG-CC-PVTZ
  Basis Set: (AUG-CC-PVTZ AUX)
    Blend: AUG-CC-PVTZ-JKFIT

    Orbital Energies [Eh]
    ---------------------

    Doubly Occupied:

       1A    -20.623254     2A    -20.547929     3A    -11.392403
       4A    -11.254382     5A    -11.233651     6A    -11.231387
       7A    -11.229842     8A    -11.214238     9A     -1.465747
      10A     -1.349334    11A     -1.103856    12A     -1.045209
      13A     -0.962692    14A     -0.871441    15A     -0.813771
      16A     -0.736188    17A     -0.704273    18A     -0.683371
      19A     -0.656441    20A     -0.627448    21A     -0.611831
      22A     -0.599161    23A     -0.578568    24A     -0.554871
      25A     -0.525427    26A     -0.497868    27A     -0.491514
      28A     -0.480226    29A     -0.475031    30A     -0.453452
      31A     -0.356563

  @DF-RHF Final Energy:  -382.90139766305299

   => Energetics <=

    Nuclear Repulsion Energy =            354.9675408564513646
    One-Electron Energy =               -1224.9951379849380828
    Two-Electron Energy =                 487.1261994654337286
    Total Energy =                       -382.9013976630529896
  Basis Set: (AUG-CC-PVTZ AUX)
    Blend: AUG-CC-PVTZ-RI
    Molecular point group: c1

    Geometry (in Angstrom), charge = 0, multiplicity = 1:

       Center              X                  Y                   Z               Mass
    ------------   -----------------  -----------------  -----------------  -----------------
         O            3.149210064062     0.382667591959     0.010998547679    15.994914619570
         O            1.721705064062    -1.368623408041    -0.207262452321    15.994914619570
         C           -2.917313935938     0.343356591959    -0.503510452321    12.000000000000
         C           -1.497015935938     0.820979591959    -0.408738452321    12.000000000000
         C            0.857581064062     0.819202591959     0.412321547679    12.000000000000
         C           -0.535123235938     0.280840191959     0.333013947679    12.000000000000
         C           -3.248610935938    -0.886735408041     0.334862547679    12.000000000000
         C            1.928410364062    -0.171928608041     0.030355647679    12.000000000000
         H           -3.583520935938     1.170679591959    -0.218397452321     1.007825032230
         H           -3.148515935938     0.138905591959    -1.561245452321     1.007825032230
         H           -1.256268935938     1.714700591959    -0.994618452321     1.007825032230
         H            0.977830064062     1.709011591959    -0.222465452321     1.007825032230
         H            1.096295064062     1.148794591959     1.431637547679     1.007825032230
         H           -0.714034935938    -0.648743408041     0.902019547679     1.007825032230
         H           -4.296600935938    -1.166842408041     0.211045547679     1.007825032230
         H           -2.632357935938    -1.741238408041     0.037528547679     1.007825032230
         H           -3.074890935938    -0.694091408041     1.398807547679     1.007825032230
         H            3.767729064062    -0.339583408041    -0.230642452321     1.007825032230

  Basis Set: AUG-CC-PVTZ
    Blend: AUG-CC-PVTZ
  Basis Set: (AUG-CC-PVTZ AUX)
    Blend: AUG-CC-PVTZ-JKFIT
	 Reference Energy          =    -382.9013976630529896 [Eh]
	 Singles Energy            =      -0.0000000000000000 [Eh]
	 Same-Spin Energy          =      -0.3833013862685736 [Eh]
	 Opposite-Spin Energy      =      -1.2546214589581277 [Eh]
	 Correlation Energy        =      -1.6379228452267012 [Eh]
	 Total Energy              =    -384.5393205082796726 [Eh]

	 ================> DF-SCS-MP2 Energies <==================
	-----------------------------------------------------------
	 SCS Same-Spin Scale       =       0.3333333333333333 [-]
	 SCS Opposite-Spin Scale   =       1.2000000000000000 [-]
	 SCS Same-Spin Energy      =      -0.1277671287561912 [Eh]
	 SCS Opposite-Spin Energy  =      -1.5055457507497532 [Eh]
	 SCS Correlation Energy    =      -1.6333128795059444 [Eh]
	 SCS Total Energy          =    -384.5347105425589120 [Eh]
	-----------------------------------------------------------

  Dipole Moment: [D]
     X:     0.0028      Y:     1.5172      Z:     0.2012     Total:     1.5305

*** Psi4 exiting successfully. Buy a developer a beer!
