                               Psi4 1.3.2 release

  ==> Input File <==

--------------------------------------------------------------------------
#psi4
#
memory 32 gb

molecule  {
0 1
  O        3.1501630     0.3869830     0.0122970
  O        1.7226580    -1.3643080    -0.2059640
  C       -2.9135375     0.3378327    -0.4940332
  C       -1.4960630     0.8252950    -0.4074400
  C        0.8585340     0.8235180     0.4136200
  C       -0.5245990     0.2621860     0.3264500
  C       -3.2476580    -0.8824200     0.3361610
  C        1.9107340    -0.1856640     0.0271730
  H       -3.5825680     1.1749950    -0.2170990
  H       -3.1475630     0.1432210    -1.5599470
  H       -1.2463009     1.7186031    -0.9901674
  H        0.9787830     1.7133270    -0.2211670
  H        1.0972480     1.1531100     1.4329360
  H       -0.7130820    -0.6444280     0.9033180
  H       -4.2956480    -1.1625270     0.2123440
  H       -2.6314050    -1.7369230     0.0388270
  H       -3.0739380    -0.6897760     1.4001060
  H        3.7686820    -0.3352680    -0.2293440
units angstrom
no_reorient  #important for SAPT in psi4, default
symmetry c1  #important for SAPT in psi4, default
}

set PROPERTIES_ORIGIN ["COM"]
properties('MP2/aug-cc-pvtz', properties = ['dipole'])
--------------------------------------------------------------------------

    Molecular point group: c1
  Charge       = 0
  Multiplicity = 1
  Basis Set: AUG-CC-PVTZ
    Blend: AUG-CC-PVTZ
  Basis Set: (AUG-CC-PVTZ AUX)
    Blend: AUG-CC-PVTZ-JKFIT

    Orbital Energies [Eh]
    ---------------------

    Doubly Occupied:

       1A    -20.615715     2A    -20.552769     3A    -11.390466
       4A    -11.254186     5A    -11.235534     6A    -11.231958
       7A    -11.230893     8A    -11.214560     9A     -1.458607
      10A     -1.358116    11A     -1.103585    12A     -1.046432
      13A     -0.961292    14A     -0.869475    15A     -0.805558
      16A     -0.739038    17A     -0.702947    18A     -0.682243
      19A     -0.654125    20A     -0.627015    21A     -0.611525
      22A     -0.598839    23A     -0.582220    24A     -0.552852
      25A     -0.529382    26A     -0.496001    27A     -0.490673
      28A     -0.486210    29A     -0.481324    30A     -0.455764
      31A     -0.353536

  @DF-RHF Final Energy:  -382.90272918719751

   => Energetics <=

    Nuclear Repulsion Energy =            355.1996476847606914
    One-Electron Energy =               -1225.4590718056524565
    Two-Electron Energy =                 487.3566949336942002
    Total Energy =                       -382.9027291871975081
  Basis Set: (AUG-CC-PVTZ AUX)
    Blend: AUG-CC-PVTZ-RI
    Molecular point group: c1

    Geometry (in Angstrom), charge = 0, multiplicity = 1:

       Center              X                  Y                   Z               Mass
    ------------   -----------------  -----------------  -----------------  -----------------
         O            3.149786284481     0.388021697449     0.011408821360    15.994914619570
         O            1.722281284481    -1.363269302551    -0.206852178640    15.994914619570
         C           -2.913914215519     0.338871397449    -0.494921378640    12.000000000000
         C           -1.496439715519     0.826333697449    -0.408328178640    12.000000000000
         C            0.858157284481     0.824556697449     0.412731821360    12.000000000000
         C           -0.524975715519     0.263224697449     0.325561821360    12.000000000000
         C           -3.248034715519    -0.881381302551     0.335272821360    12.000000000000
         C            1.910357284481    -0.184625302551     0.026284821360    12.000000000000
         H           -3.582944715519     1.176033697449    -0.217987178640     1.007825032230
         H           -3.147939715519     0.144259697449    -1.560835178640     1.007825032230
         H           -1.246677615519     1.719641797449    -0.991055578640     1.007825032230
         H            0.978406284481     1.714365697449    -0.222055178640     1.007825032230
         H            1.096871284481     1.154148697449     1.432047821360     1.007825032230
         H           -0.713458715519    -0.643389302551     0.902429821360     1.007825032230
         H           -4.296024715519    -1.161488302551     0.211455821360     1.007825032230
         H           -2.631781715519    -1.735884302551     0.037938821360     1.007825032230
         H           -3.074314715519    -0.688737302551     1.399217821360     1.007825032230
         H            3.768305284481    -0.334229302551    -0.230232178640     1.007825032230

  Basis Set: AUG-CC-PVTZ
    Blend: AUG-CC-PVTZ
  Basis Set: (AUG-CC-PVTZ AUX)
    Blend: AUG-CC-PVTZ-JKFIT
	 Reference Energy          =    -382.9027291871975081 [Eh]
	 Singles Energy            =      -0.0000000000000000 [Eh]
	 Same-Spin Energy          =      -0.3832417753029014 [Eh]
	 Opposite-Spin Energy      =      -1.2546095893711398 [Eh]
	 Correlation Energy        =      -1.6378513646740411 [Eh]
	 Total Energy              =    -384.5405805518715283 [Eh]

	 ================> DF-SCS-MP2 Energies <==================
	-----------------------------------------------------------
	 SCS Same-Spin Scale       =       0.3333333333333333 [-]
	 SCS Opposite-Spin Scale   =       1.2000000000000000 [-]
	 SCS Same-Spin Energy      =      -0.1277472584343005 [Eh]
	 SCS Opposite-Spin Energy  =      -1.5055315072453677 [Eh]
	 SCS Correlation Energy    =      -1.6332787656796681 [Eh]
	 SCS Total Energy          =    -384.5360079528771848 [Eh]
	-----------------------------------------------------------

  Dipole Moment: [D]
     X:    -0.1826      Y:     1.3844      Z:     0.2103     Total:     1.4122

*** Psi4 exiting successfully. Buy a developer a beer!
