                               Psi4 1.4a3.dev225

  ==> Input File <==

--------------------------------------------------------------------------
#psi4
#
memory 32 gb

molecule  {
0 1
  O       -3.2271830    -0.3786580    -0.1569640
  O       -1.8275510     1.3993140    -0.2614160
  C        2.8225670    -0.4310850    -0.3953020
  C        1.4009980    -0.8942070    -0.2419560
  C       -0.9807690    -0.7586230     0.4926230
  C        0.4143070    -0.2269140     0.3719860
  C        3.1298050     0.9339520     0.2103920
  C       -1.9772239     0.1871657    -0.0022687
  H        3.4859920    -1.1868430     0.0468460
  H        3.0699840    -0.4203720    -1.4654230
  H        1.1737130    -1.8673930    -0.6818980
  H       -1.0998220    -1.7054460    -0.0447970
  H       -1.2414610    -0.9681590     1.5400430
  H        0.5929560     0.7502750     0.8121930
  H        4.1791340     1.1958370     0.0500290
  H        2.5131630     1.7137800    -0.2445400
  H        2.9424530     0.9385920     1.2876810
  H       -3.8316340     0.3284440    -0.4642740
units angstrom
no_reorient  #important for SAPT in psi4, default
symmetry c1  #important for SAPT in psi4, default
}

set PROPERTIES_ORIGIN ["COM"]
properties('MP2/aug-cc-pvtz', properties = ['dipole'])
--------------------------------------------------------------------------

    Molecular point group: c1
  Charge       = 0
  Multiplicity = 1
  Basis Set: AUG-CC-PVTZ
    Blend: AUG-CC-PVTZ
  Basis Set: (AUG-CC-PVTZ AUX)
    Blend: AUG-CC-PVTZ-JKFIT

    Orbital Energies [Eh]
    ---------------------

    Doubly Occupied:

       1A    -20.611818     2A    -20.549761     3A    -11.395342
       4A    -11.257324     5A    -11.237766     6A    -11.234890
       7A    -11.231394     8A    -11.215475     9A     -1.446290
      10A     -1.338212    11A     -1.109729    12A     -1.054025
      13A     -0.967485    14A     -0.872975    15A     -0.805520
      16A     -0.743073    17A     -0.696767    18A     -0.680660
      19A     -0.656885    20A     -0.625453    21A     -0.613844
      22A     -0.596971    23A     -0.579952    24A     -0.554965
      25A     -0.530922    26A     -0.499948    27A     -0.493857
      28A     -0.484084    29A     -0.471415    30A     -0.455223
      31A     -0.357801

  @DF-RHF Final Energy:  -382.89653676299139

   => Energetics <=

    Nuclear Repulsion Energy =            354.9725600400881262
    One-Electron Energy =               -1224.9985407576275520
    Two-Electron Energy =                 487.1294439545479804
    Total Energy =                       -382.8965367629913885
  Basis Set: (AUG-CC-PVTZ AUX)
    Blend: AUG-CC-PVTZ-RI
    Molecular point group: c1

    Geometry (in Angstrom), charge = 0, multiplicity = 1:

       Center              X                  Y                   Z               Mass
    ------------   -----------------  -----------------  -----------------  -----------------
         O           -3.128495113978    -0.385828528202    -0.151494808711    15.994914619570
         O           -1.728863113978     1.392143471798    -0.255946808711    15.994914619570
         C            2.921254886022    -0.438255528202    -0.389832808711    12.000000000000
         C            1.499685886022    -0.901377528202    -0.236486808711    12.000000000000
         C           -0.882081113978    -0.765793528202     0.498092191289    12.000000000000
         C            0.512994886022    -0.234084528202     0.377455191289    12.000000000000
         C            3.228492886022     0.926781471798     0.215861191289    12.000000000000
         C           -1.878536013978     0.179995171798     0.003200491289    12.000000000000
         H            3.584679886022    -1.194013528202     0.052315191289     1.007825032230
         H            3.168671886022    -0.427542528202    -1.459953808711     1.007825032230
         H            1.272400886022    -1.874563528202    -0.676428808711     1.007825032230
         H           -1.001134113978    -1.712616528202    -0.039327808711     1.007825032230
         H           -1.142773113978    -0.975329528202     1.545512191289     1.007825032230
         H            0.691643886022     0.743104471798     0.817662191289     1.007825032230
         H            4.277821886022     1.188666471798     0.055498191289     1.007825032230
         H            2.611850886022     1.706609471798    -0.239070808711     1.007825032230
         H            3.041140886022     0.931421471798     1.293150191289     1.007825032230
         H           -3.732946113978     0.321273471798    -0.458804808711     1.007825032230

  Basis Set: AUG-CC-PVTZ
    Blend: AUG-CC-PVTZ
  Basis Set: (AUG-CC-PVTZ AUX)
    Blend: AUG-CC-PVTZ-JKFIT
	 Reference Energy          =    -382.8965367629913885 [Eh]
	 Singles Energy            =      -0.0000000000000000 [Eh]
	 Same-Spin Energy          =      -0.3840705797543922 [Eh]
	 Opposite-Spin Energy      =      -1.2563557102472103 [Eh]
	 Correlation Energy        =      -1.6404262900016024 [Eh]
	 Total Energy              =    -384.5369630529929736 [Eh]

	 ================> DF-SCS-MP2 Energies <==================
	-----------------------------------------------------------
	 SCS Same-Spin Scale       =       0.3333333333333333 [-]
	 SCS Opposite-Spin Scale   =       1.2000000000000000 [-]
	 SCS Same-Spin Energy      =      -0.1280235265847974 [Eh]
	 SCS Opposite-Spin Energy  =      -1.5076268522966523 [Eh]
	 SCS Correlation Energy    =      -1.6356503788814496 [Eh]
	 SCS Total Energy          =    -384.5321871418728392 [Eh]
	-----------------------------------------------------------

  Dipole Moment: [D]
     X:     0.4246      Y:    -1.5766      Z:     0.3274     Total:     1.6652

*** Psi4 exiting successfully. Buy a developer a beer!
