                               Psi4 1.3.2 release

  ==> Input File <==

--------------------------------------------------------------------------
#psi4
#
memory 32 gb

molecule  {
0 1
  O        3.1501630     0.3869830     0.0122970
  O        1.7226580    -1.3643080    -0.2059640
  C       -2.9163610     0.3476720    -0.5022120
  C       -1.4960630     0.8252950    -0.4074400
  C        0.8585340     0.8235180     0.4136200
  C       -0.5245990     0.2621860     0.3264500
  C       -3.2476580    -0.8824200     0.3361610
  C        1.8798033    -0.3795022    -0.0111684
  H       -3.5825680     1.1749950    -0.2170990
  H       -3.1475630     0.1432210    -1.5599470
  H       -1.2553160     1.7190160    -0.9933200
  H        0.9787830     1.7133270    -0.2211670
  H        1.0972480     1.1531100     1.4329360
  H       -0.7130820    -0.6444280     0.9033180
  H       -4.2956480    -1.1625270     0.2123440
  H       -2.6314050    -1.7369230     0.0388270
  H       -3.0739380    -0.6897760     1.4001060
  H        3.7686820    -0.3352680    -0.2293440
units angstrom
no_reorient  #important for SAPT in psi4, default
symmetry c1  #important for SAPT in psi4, default
}

set PROPERTIES_ORIGIN ["COM"]
properties('MP2/aug-cc-pvtz', properties = ['dipole'])
--------------------------------------------------------------------------

    Molecular point group: c1
  Charge       = 0
  Multiplicity = 1
  Basis Set: AUG-CC-PVTZ
    Blend: AUG-CC-PVTZ
  Basis Set: (AUG-CC-PVTZ AUX)
    Blend: AUG-CC-PVTZ-JKFIT

    Orbital Energies [Eh]
    ---------------------

    Doubly Occupied:

       1A    -20.589638     2A    -20.576842     3A    -11.370947
       4A    -11.246497     5A    -11.232255     6A    -11.229075
       7A    -11.227887     8A    -11.215489     9A     -1.579213
      10A     -1.350871    11A     -1.096037    12A     -1.030810
      13A     -0.941202    14A     -0.858255    15A     -0.780720
      16A     -0.746187    17A     -0.721854    18A     -0.718776
      19A     -0.689593    20A     -0.625785    21A     -0.612240
      22A     -0.609533    23A     -0.588430    24A     -0.551459
      25A     -0.524645    26A     -0.504492    27A     -0.498719
      28A     -0.491278    29A     -0.480782    30A     -0.435725
      31A     -0.345818

  @DF-RHF Final Energy:  -382.81866033119968

   => Energetics <=

    Nuclear Repulsion Energy =            356.4874104698172914
    One-Electron Energy =               -1227.6700307588246233
    Two-Electron Energy =                 488.3639599578076513
    Total Energy =                       -382.8186603311996805
  Basis Set: (AUG-CC-PVTZ AUX)
    Blend: AUG-CC-PVTZ-RI
    Molecular point group: c1

    Geometry (in Angstrom), charge = 0, multiplicity = 1:

       Center              X                  Y                   Z               Mass
    ------------   -----------------  -----------------  -----------------  -----------------
         O            3.153416888634     0.407374794981     0.016330616058    15.994914619570
         O            1.725911888634    -1.343916205019    -0.201930383942    15.994914619570
         C           -2.913107111366     0.368063794981    -0.498178383942    12.000000000000
         C           -1.492809111366     0.845686794981    -0.403406383942    12.000000000000
         C            0.861787888634     0.843909794981     0.417653616058    12.000000000000
         C           -0.521345111366     0.282577794981     0.330483616058    12.000000000000
         C           -3.244404111366    -0.862028205019     0.340194616058    12.000000000000
         C            1.883057188634    -0.359110405019    -0.007134783942    12.000000000000
         H           -3.579314111366     1.195386794981    -0.213065383942     1.007825032230
         H           -3.144309111366     0.163612794981    -1.555913383942     1.007825032230
         H           -1.252062111366     1.739407794981    -0.989286383942     1.007825032230
         H            0.982036888634     1.733718794981    -0.217133383942     1.007825032230
         H            1.100501888634     1.173501794981     1.436969616058     1.007825032230
         H           -0.709828111366    -0.624036205019     0.907351616058     1.007825032230
         H           -4.292394111366    -1.142135205019     0.216377616058     1.007825032230
         H           -2.628151111366    -1.716531205019     0.042860616058     1.007825032230
         H           -3.070684111366    -0.669384205019     1.404139616058     1.007825032230
         H            3.771935888634    -0.314876205019    -0.225310383942     1.007825032230

  Basis Set: AUG-CC-PVTZ
    Blend: AUG-CC-PVTZ
  Basis Set: (AUG-CC-PVTZ AUX)
    Blend: AUG-CC-PVTZ-JKFIT
	 Reference Energy          =    -382.8186603311996805 [Eh]
	 Singles Energy            =      -0.0000000000000000 [Eh]
	 Same-Spin Energy          =      -0.3804602736748161 [Eh]
	 Opposite-Spin Energy      =      -1.2496751827598884 [Eh]
	 Correlation Energy        =      -1.6301354564347044 [Eh]
	 Total Energy              =    -384.4487957876343671 [Eh]

	 ================> DF-SCS-MP2 Energies <==================
	-----------------------------------------------------------
	 SCS Same-Spin Scale       =       0.3333333333333333 [-]
	 SCS Opposite-Spin Scale   =       1.2000000000000000 [-]
	 SCS Same-Spin Energy      =      -0.1268200912249387 [Eh]
	 SCS Opposite-Spin Energy  =      -1.4996102193118661 [Eh]
	 SCS Correlation Energy    =      -1.6264303105368048 [Eh]
	 SCS Total Energy          =    -384.4450906417364990 [Eh]
	-----------------------------------------------------------

  Dipole Moment: [D]
     X:    -0.7163      Y:    -0.0228      Z:    -0.0231     Total:     0.7171

*** Psi4 exiting successfully. Buy a developer a beer!
