                               Psi4 1.3.2 release

  ==> Input File <==

--------------------------------------------------------------------------
#psi4
#
memory 32 gb

molecule  {
0 1
  O        3.1501630     0.3869830     0.0122970
  O        1.7226580    -1.3643080    -0.2059640
  C       -2.9163610     0.3476720    -0.5022120
  C       -1.4726907     0.7539422    -0.4307110
  C        0.8585340     0.8235180     0.4136200
  C       -0.5245990     0.2621860     0.3264500
  C       -3.2476580    -0.8824200     0.3361610
  C        1.9107340    -0.1856640     0.0271730
  H       -3.6274035     1.1400631    -0.2263145
  H       -3.1475630     0.1432210    -1.5599470
  H       -1.2553160     1.7190160    -0.9933200
  H        0.9787830     1.7133270    -0.2211670
  H        1.0972480     1.1531100     1.4329360
  H       -0.7130820    -0.6444280     0.9033180
  H       -4.2956480    -1.1625270     0.2123440
  H       -2.6314050    -1.7369230     0.0388270
  H       -3.0739380    -0.6897760     1.4001060
  H        3.7686820    -0.3352680    -0.2293440
units angstrom
no_reorient  #important for SAPT in psi4, default
symmetry c1  #important for SAPT in psi4, default
}

set PROPERTIES_ORIGIN ["COM"]
properties('MP2/aug-cc-pvtz', properties = ['dipole'])
--------------------------------------------------------------------------

    Molecular point group: c1
  Charge       = 0
  Multiplicity = 1
  Basis Set: AUG-CC-PVTZ
    Blend: AUG-CC-PVTZ
  Basis Set: (AUG-CC-PVTZ AUX)
    Blend: AUG-CC-PVTZ-JKFIT

    Orbital Energies [Eh]
    ---------------------

    Doubly Occupied:

       1A    -20.616161     2A    -20.553146     3A    -11.391083
       4A    -11.255349     5A    -11.234837     6A    -11.230329
       7A    -11.228995     8A    -11.213519     9A     -1.459037
      10A     -1.358510    11A     -1.107397    12A     -1.045973
      13A     -0.964467    14A     -0.868693    15A     -0.808383
      16A     -0.734262    17A     -0.702884    18A     -0.682956
      19A     -0.655840    20A     -0.627507    21A     -0.610931
      22A     -0.597546    23A     -0.583783    24A     -0.554607
      25A     -0.527609    26A     -0.498294    27A     -0.494097
      28A     -0.484027    29A     -0.469020    30A     -0.455932
      31A     -0.362840

  @DF-RHF Final Energy:  -382.89910728818518

   => Energetics <=

    Nuclear Repulsion Energy =            355.6241555976894801
    One-Electron Energy =               -1226.2904965823881867
    Two-Electron Energy =                 487.7672336965135855
    Total Energy =                       -382.8991072881851778
  Basis Set: (AUG-CC-PVTZ AUX)
    Blend: AUG-CC-PVTZ-RI
    Molecular point group: c1

    Geometry (in Angstrom), charge = 0, multiplicity = 1:

       Center              X                  Y                   Z               Mass
    ------------   -----------------  -----------------  -----------------  -----------------
         O            3.148100329759     0.394797923675     0.014826626606    15.994914619570
         O            1.720595329759    -1.356493076325    -0.203434373394    15.994914619570
         C           -2.918423670241     0.355486923675    -0.499682373394    12.000000000000
         C           -1.474753370241     0.761757123675    -0.428181373394    12.000000000000
         C            0.856471329759     0.831332923675     0.416149626606    12.000000000000
         C           -0.526661670241     0.270000923675     0.328979626606    12.000000000000
         C           -3.249720670241    -0.874605076325     0.338690626606    12.000000000000
         C            1.908671329759    -0.177849076325     0.029702626606    12.000000000000
         H           -3.629466170241     1.147878023675    -0.223784873394     1.007825032230
         H           -3.149625670241     0.151035923675    -1.557417373394     1.007825032230
         H           -1.257378670241     1.726830923675    -0.990790373394     1.007825032230
         H            0.976720329759     1.721141923675    -0.218637373394     1.007825032230
         H            1.095185329759     1.160924923675     1.435465626606     1.007825032230
         H           -0.715144670241    -0.636613076325     0.905847626606     1.007825032230
         H           -4.297710670241    -1.154712076325     0.214873626606     1.007825032230
         H           -2.633467670241    -1.729108076325     0.041356626606     1.007825032230
         H           -3.076000670241    -0.681961076325     1.402635626606     1.007825032230
         H            3.766619329759    -0.327453076325    -0.226814373394     1.007825032230

  Basis Set: AUG-CC-PVTZ
    Blend: AUG-CC-PVTZ
  Basis Set: (AUG-CC-PVTZ AUX)
    Blend: AUG-CC-PVTZ-JKFIT
	 Reference Energy          =    -382.8991072881851778 [Eh]
	 Singles Energy            =      -0.0000000000000000 [Eh]
	 Same-Spin Energy          =      -0.3830685939613453 [Eh]
	 Opposite-Spin Energy      =      -1.2542503817041633 [Eh]
	 Correlation Energy        =      -1.6373189756655084 [Eh]
	 Total Energy              =    -384.5364262638506716 [Eh]

	 ================> DF-SCS-MP2 Energies <==================
	-----------------------------------------------------------
	 SCS Same-Spin Scale       =       0.3333333333333333 [-]
	 SCS Opposite-Spin Scale   =       1.2000000000000000 [-]
	 SCS Same-Spin Energy      =      -0.1276895313204484 [Eh]
	 SCS Opposite-Spin Energy  =      -1.5051004580449958 [Eh]
	 SCS Correlation Energy    =      -1.6327899893654443 [Eh]
	 SCS Total Energy          =    -384.5318972775506268 [Eh]
	-----------------------------------------------------------

  Dipole Moment: [D]
     X:    -0.1744      Y:     1.4040      Z:     0.2755     Total:     1.4414

*** Psi4 exiting successfully. Buy a developer a beer!
