                               Psi4 1.3.2 release

  ==> Input File <==

--------------------------------------------------------------------------
#psi4
#
memory 32 gb

molecule  {
0 1
  O        3.1501630     0.3869830     0.0122970
  O        1.7226580    -1.3643080    -0.2059640
  C       -2.9190763     0.3575477    -0.5103836
  C       -1.4960630     0.8252950    -0.4074400
  C        0.8585340     0.8235180     0.4136200
  C       -0.5245990     0.2621860     0.3264500
  C       -3.2476580    -0.8824200     0.3361610
  C        1.9107340    -0.1856640     0.0271730
  H       -3.5825680     1.1749950    -0.2170990
  H       -3.1475630     0.1432210    -1.5599470
  H       -1.2643494     1.7193608    -0.9964280
  H        0.9787830     1.7133270    -0.2211670
  H        1.0972480     1.1531100     1.4329360
  H       -0.7130820    -0.6444280     0.9033180
  H       -4.2956480    -1.1625270     0.2123440
  H       -2.6314050    -1.7369230     0.0388270
  H       -3.0739380    -0.6897760     1.4001060
  H        3.7686820    -0.3352680    -0.2293440
units angstrom
no_reorient  #important for SAPT in psi4, default
symmetry c1  #important for SAPT in psi4, default
}

set PROPERTIES_ORIGIN ["COM"]
properties('MP2/aug-cc-pvtz', properties = ['dipole'])
--------------------------------------------------------------------------

    Molecular point group: c1
  Charge       = 0
  Multiplicity = 1
  Basis Set: AUG-CC-PVTZ
    Blend: AUG-CC-PVTZ
  Basis Set: (AUG-CC-PVTZ AUX)
    Blend: AUG-CC-PVTZ-JKFIT

    Orbital Energies [Eh]
    ---------------------

    Doubly Occupied:

       1A    -20.615778     2A    -20.552838     3A    -11.390559
       4A    -11.254352     5A    -11.235548     6A    -11.232691
       7A    -11.229334     8A    -11.214961     9A     -1.458672
      10A     -1.358185    11A     -1.102722    12A     -1.044635
      13A     -0.959186    14A     -0.871006    15A     -0.806332
      16A     -0.739235    17A     -0.702972    18A     -0.682509
      19A     -0.654404    20A     -0.625450    21A     -0.612861
      22A     -0.599277    23A     -0.582340    24A     -0.552402
      25A     -0.526745    26A     -0.500337    27A     -0.492202
      28A     -0.484084    29A     -0.478231    30A     -0.455816
      31A     -0.354564

  @DF-RHF Final Energy:  -382.90310835443302

   => Energetics <=

    Nuclear Repulsion Energy =            354.9482998885185339
    One-Electron Energy =               -1224.9623539186325161
    Two-Electron Energy =                 487.1109456756810232
    Total Energy =                       -382.9031083544330158
  Basis Set: (AUG-CC-PVTZ AUX)
    Blend: AUG-CC-PVTZ-RI
    Molecular point group: c1

    Geometry (in Angstrom), charge = 0, multiplicity = 1:

       Center              X                  Y                   Z               Mass
    ------------   -----------------  -----------------  -----------------  -----------------
         O            3.150528431893     0.385940978374     0.013184203133    15.994914619570
         O            1.723023431893    -1.365350021626    -0.205076796867    15.994914619570
         C           -2.918710868107     0.356505678374    -0.509496396867    12.000000000000
         C           -1.495697568107     0.824252978374    -0.406552796867    12.000000000000
         C            0.858899431893     0.822475978374     0.414507203133    12.000000000000
         C           -0.524233568107     0.261143978374     0.327337203133    12.000000000000
         C           -3.247292568107    -0.883462021626     0.337048203133    12.000000000000
         C            1.911099431893    -0.186706021626     0.028060203133    12.000000000000
         H           -3.582202568107     1.173952978374    -0.216211796867     1.007825032230
         H           -3.147197568107     0.142178978374    -1.559059796867     1.007825032230
         H           -1.263983968107     1.718318778374    -0.995540796867     1.007825032230
         H            0.979148431893     1.712284978374    -0.220279796867     1.007825032230
         H            1.097613431893     1.152067978374     1.433823203133     1.007825032230
         H           -0.712716568107    -0.645470021626     0.904205203133     1.007825032230
         H           -4.295282568107    -1.163569021626     0.213231203133     1.007825032230
         H           -2.631039568107    -1.737965021626     0.039714203133     1.007825032230
         H           -3.073572568107    -0.690818021626     1.400993203133     1.007825032230
         H            3.769047431893    -0.336310021626    -0.228456796867     1.007825032230

  Basis Set: AUG-CC-PVTZ
    Blend: AUG-CC-PVTZ
  Basis Set: (AUG-CC-PVTZ AUX)
    Blend: AUG-CC-PVTZ-JKFIT
	 Reference Energy          =    -382.9031083544330158 [Eh]
	 Singles Energy            =      -0.0000000000000000 [Eh]
	 Same-Spin Energy          =      -0.3830394421389067 [Eh]
	 Opposite-Spin Energy      =      -1.2544645588645578 [Eh]
	 Correlation Energy        =      -1.6375040010034645 [Eh]
	 Total Energy              =    -384.5406123554365081 [Eh]

	 ================> DF-SCS-MP2 Energies <==================
	-----------------------------------------------------------
	 SCS Same-Spin Scale       =       0.3333333333333333 [-]
	 SCS Opposite-Spin Scale   =       1.2000000000000000 [-]
	 SCS Same-Spin Energy      =      -0.1276798140463022 [Eh]
	 SCS Opposite-Spin Energy  =      -1.5053574706374693 [Eh]
	 SCS Correlation Energy    =      -1.6330372846837715 [Eh]
	 SCS Total Energy          =    -384.5361456391167962 [Eh]
	-----------------------------------------------------------

  Dipole Moment: [D]
     X:    -0.1725      Y:     1.3975      Z:     0.2033     Total:     1.4227

*** Psi4 exiting successfully. Buy a developer a beer!
