                               Psi4 1.3.2 release

  ==> Input File <==

--------------------------------------------------------------------------
#psi4
#
memory 32 gb

molecule  {
0 1
  O        3.1501630     0.3869830     0.0122970
  O        1.7330306    -1.3655450    -0.2078364
  C       -2.9163610     0.3476720    -0.5022120
  C       -1.4960630     0.8252950    -0.4074400
  C        0.8677991     0.8328444     0.4142672
  C       -0.5245990     0.2621860     0.3264500
  C       -3.2476580    -0.8824200     0.3361610
  C        1.9107340    -0.1856640     0.0271730
  H       -3.5825680     1.1749950    -0.2170990
  H       -3.1475630     0.1432210    -1.5599470
  H       -1.2553160     1.7190160    -0.9933200
  H        0.9787830     1.7133270    -0.2211670
  H        1.0972480     1.1531100     1.4329360
  H       -0.7130820    -0.6444280     0.9033180
  H       -4.2956480    -1.1625270     0.2123440
  H       -2.6314050    -1.7369230     0.0388270
  H       -3.0739380    -0.6897760     1.4001060
  H        3.7686820    -0.3352680    -0.2293440
units angstrom
no_reorient  #important for SAPT in psi4, default
symmetry c1  #important for SAPT in psi4, default
}

set PROPERTIES_ORIGIN ["COM"]
properties('MP2/aug-cc-pvtz', properties = ['dipole'])
--------------------------------------------------------------------------

    Molecular point group: c1
  Charge       = 0
  Multiplicity = 1
  Basis Set: AUG-CC-PVTZ
    Blend: AUG-CC-PVTZ
  Basis Set: (AUG-CC-PVTZ AUX)
    Blend: AUG-CC-PVTZ-JKFIT

    Orbital Energies [Eh]
    ---------------------

    Doubly Occupied:

       1A    -20.614581     2A    -20.553087     3A    -11.390570
       4A    -11.254331     5A    -11.235598     6A    -11.233107
       7A    -11.230145     8A    -11.214844     9A     -1.458641
      10A     -1.357407    11A     -1.102365    12A     -1.045487
      13A     -0.960660    14A     -0.869861    15A     -0.805832
      16A     -0.739339    17A     -0.702609    18A     -0.681987
      19A     -0.654804    20A     -0.625714    21A     -0.612186
      22A     -0.598824    23A     -0.582474    24A     -0.553224
      25A     -0.528577    26A     -0.498287    27A     -0.491247
      28A     -0.484842    29A     -0.479888    30A     -0.456191
      31A     -0.354415

  @DF-RHF Final Energy:  -382.90317111907871

   => Energetics <=

    Nuclear Repulsion Energy =            354.8831226014463027
    One-Electron Energy =               -1224.8303463140723579
    Two-Electron Energy =                 487.0440525935473488
    Total Energy =                       -382.9031711190787064
  Basis Set: (AUG-CC-PVTZ AUX)
    Blend: AUG-CC-PVTZ-RI
    Molecular point group: c1

    Geometry (in Angstrom), charge = 0, multiplicity = 1:

       Center              X                  Y                   Z               Mass
    ------------   -----------------  -----------------  -----------------  -----------------
         O            3.147733804867     0.386175266595     0.012491555002    15.994914619570
         O            1.730601404867    -1.366352733405    -0.207641844998    15.994914619570
         C           -2.918790195133     0.346864266595    -0.502017444998    12.000000000000
         C           -1.498492195133     0.824487266595    -0.407245444998    12.000000000000
         C            0.865369904867     0.832036666595     0.414461755002    12.000000000000
         C           -0.527028195133     0.261378266595     0.326644555002    12.000000000000
         C           -3.250087195133    -0.883227733405     0.336355555002    12.000000000000
         C            1.908304804867    -0.186471733405     0.027367555002    12.000000000000
         H           -3.584997195133     1.174187266595    -0.216904444998     1.007825032230
         H           -3.149992195133     0.142413266595    -1.559752444998     1.007825032230
         H           -1.257745195133     1.718208266595    -0.993125444998     1.007825032230
         H            0.976353804867     1.712519266595    -0.220972444998     1.007825032230
         H            1.094818804867     1.152302266595     1.433130555002     1.007825032230
         H           -0.715511195133    -0.645235733405     0.903512555002     1.007825032230
         H           -4.298077195133    -1.163334733405     0.212538555002     1.007825032230
         H           -2.633834195133    -1.737730733405     0.039021555002     1.007825032230
         H           -3.076367195133    -0.690583733405     1.400300555002     1.007825032230
         H            3.766252804867    -0.336075733405    -0.229149444998     1.007825032230

  Basis Set: AUG-CC-PVTZ
    Blend: AUG-CC-PVTZ
  Basis Set: (AUG-CC-PVTZ AUX)
    Blend: AUG-CC-PVTZ-JKFIT
	 Reference Energy          =    -382.9031711190787064 [Eh]
	 Singles Energy            =      -0.0000000000000000 [Eh]
	 Same-Spin Energy          =      -0.3830233962258865 [Eh]
	 Opposite-Spin Energy      =      -1.2544282452431386 [Eh]
	 Correlation Energy        =      -1.6374516414690250 [Eh]
	 Total Energy              =    -384.5406227605477056 [Eh]

	 ================> DF-SCS-MP2 Energies <==================
	-----------------------------------------------------------
	 SCS Same-Spin Scale       =       0.3333333333333333 [-]
	 SCS Opposite-Spin Scale   =       1.2000000000000000 [-]
	 SCS Same-Spin Energy      =      -0.1276744654086288 [Eh]
	 SCS Opposite-Spin Energy  =      -1.5053138942917663 [Eh]
	 SCS Correlation Energy    =      -1.6329883597003951 [Eh]
	 SCS Total Energy          =    -384.5361594787790978 [Eh]
	-----------------------------------------------------------

  Dipole Moment: [D]
     X:    -0.2044      Y:     1.3977      Z:     0.2127     Total:     1.4285

*** Psi4 exiting successfully. Buy a developer a beer!
