                               Psi4 1.3.2 release

  ==> Input File <==

--------------------------------------------------------------------------
#psi4
#
memory 32 gb

molecule  {
0 1
  O        3.1501630     0.3869830     0.0122970
  O        1.7226580    -1.3643080    -0.2059640
  C       -2.9163610     0.3476720    -0.5022120
  C       -1.4960630     0.8252950    -0.4074400
  C        0.8585340     0.8235180     0.4136200
  C       -0.5245990     0.2621860     0.3264500
  C       -3.2476580    -0.8824200     0.3361610
  C        1.9307086    -0.2272263     0.0151318
  H       -3.5825680     1.1749950    -0.2170990
  H       -3.1475630     0.1432210    -1.5599470
  H       -1.2553160     1.7190160    -0.9933200
  H        0.9787830     1.7133270    -0.2211670
  H        1.0972480     1.1531100     1.4329360
  H       -0.7130820    -0.6444280     0.9033180
  H       -4.2956480    -1.1625270     0.2123440
  H       -2.6314050    -1.7369230     0.0388270
  H       -3.0739380    -0.6897760     1.4001060
  H        3.7420215    -0.3566871    -0.2311387
units angstrom
no_reorient  #important for SAPT in psi4, default
symmetry c1  #important for SAPT in psi4, default
}

set PROPERTIES_ORIGIN ["COM"]
properties('MP2/aug-cc-pvtz', properties = ['dipole'])
--------------------------------------------------------------------------

    Molecular point group: c1
  Charge       = 0
  Multiplicity = 1
  Basis Set: AUG-CC-PVTZ
    Blend: AUG-CC-PVTZ
  Basis Set: (AUG-CC-PVTZ AUX)
    Blend: AUG-CC-PVTZ-JKFIT

    Orbital Energies [Eh]
    ---------------------

    Doubly Occupied:

       1A    -20.616222     2A    -20.559078     3A    -11.386755
       4A    -11.251204     5A    -11.233571     6A    -11.230026
       7A    -11.229026     8A    -11.214187     9A     -1.471793
      10A     -1.379061    11A     -1.098954    12A     -1.038726
      13A     -0.953677    14A     -0.866951    15A     -0.801257
      16A     -0.737344    17A     -0.710989    18A     -0.686196
      19A     -0.655027    20A     -0.625209    21A     -0.611643
      22A     -0.603642    23A     -0.585250    24A     -0.550461
      25A     -0.525744    26A     -0.498187    27A     -0.497527
      28A     -0.490011    29A     -0.480354    30A     -0.454601
      31A     -0.351223

  @DF-RHF Final Energy:  -382.90205892300168

   => Energetics <=

    Nuclear Repulsion Energy =            355.2517005033088822
    One-Electron Energy =               -1225.5197268460776741
    Two-Electron Energy =                 487.3659674197670597
    Total Energy =                       -382.9020589230016753
  Basis Set: (AUG-CC-PVTZ AUX)
    Blend: AUG-CC-PVTZ-RI
    Molecular point group: c1

    Geometry (in Angstrom), charge = 0, multiplicity = 1:

       Center              X                  Y                   Z               Mass
    ------------   -----------------  -----------------  -----------------  -----------------
         O            3.148297187461     0.391544563581     0.013579682951    15.994914619570
         O            1.720792187461    -1.359746436419    -0.204681317049    15.994914619570
         C           -2.918226812539     0.352233563581    -0.500929317049    12.000000000000
         C           -1.497928812539     0.829856563581    -0.406157317049    12.000000000000
         C            0.856668187461     0.828079563581     0.414902682951    12.000000000000
         C           -0.526464812539     0.266747563581     0.327732682951    12.000000000000
         C           -3.249523812539    -0.877858436419     0.337443682951    12.000000000000
         C            1.928842787461    -0.222664736419     0.016414482951    12.000000000000
         H           -3.584433812539     1.179556563581    -0.215816317049     1.007825032230
         H           -3.149428812539     0.147782563581    -1.558664317049     1.007825032230
         H           -1.257181812539     1.723577563581    -0.992037317049     1.007825032230
         H            0.976917187461     1.717888563581    -0.219884317049     1.007825032230
         H            1.095382187461     1.157671563581     1.434218682951     1.007825032230
         H           -0.714947812539    -0.639866436419     0.904600682951     1.007825032230
         H           -4.297513812539    -1.157965436419     0.213626682951     1.007825032230
         H           -2.633270812539    -1.732361436419     0.040109682951     1.007825032230
         H           -3.075803812539    -0.685214436419     1.401388682951     1.007825032230
         H            3.740155687461    -0.352125536419    -0.229856017049     1.007825032230

  Basis Set: AUG-CC-PVTZ
    Blend: AUG-CC-PVTZ
  Basis Set: (AUG-CC-PVTZ AUX)
    Blend: AUG-CC-PVTZ-JKFIT
	 Reference Energy          =    -382.9020589230016753 [Eh]
	 Singles Energy            =      -0.0000000000000000 [Eh]
	 Same-Spin Energy          =      -0.3824139132928446 [Eh]
	 Opposite-Spin Energy      =      -1.2530855587191687 [Eh]
	 Correlation Energy        =      -1.6354994720120133 [Eh]
	 Total Energy              =    -384.5375583950136615 [Eh]

	 ================> DF-SCS-MP2 Energies <==================
	-----------------------------------------------------------
	 SCS Same-Spin Scale       =       0.3333333333333333 [-]
	 SCS Opposite-Spin Scale   =       1.2000000000000000 [-]
	 SCS Same-Spin Energy      =      -0.1274713044309482 [Eh]
	 SCS Opposite-Spin Energy  =      -1.5037026704630023 [Eh]
	 SCS Correlation Energy    =      -1.6311739748939504 [Eh]
	 SCS Total Energy          =    -384.5332328978956298 [Eh]
	-----------------------------------------------------------

  Dipole Moment: [D]
     X:    -0.0965      Y:     1.1251      Z:     0.1449     Total:     1.1385

*** Psi4 exiting successfully. Buy a developer a beer!
