                               Psi4 1.3.2 release

  ==> Input File <==

--------------------------------------------------------------------------
#psi4
#
memory 32 gb

molecule  {
0 1
  O        3.1501630     0.3869830     0.0122970
  O        1.7226580    -1.3643080    -0.2059640
  C       -2.9163610     0.3476720    -0.5022120
  C       -1.4960630     0.8252950    -0.4074400
  C        0.8585340     0.8235180     0.4136200
  C       -0.5278359     0.2716201     0.3180368
  C       -3.2476580    -0.8824200     0.3361610
  C        1.9107340    -0.1856640     0.0271730
  H       -3.5825680     1.1749950    -0.2170990
  H       -3.1475630     0.1432210    -1.5599470
  H       -1.2553160     1.7190160    -0.9933200
  H        0.9696383     1.7125183    -0.2239604
  H        1.0972480     1.1531100     1.4329360
  H       -0.7130820    -0.6444280     0.9033180
  H       -4.2956480    -1.1625270     0.2123440
  H       -2.6314050    -1.7369230     0.0388270
  H       -3.0739380    -0.6897760     1.4001060
  H        3.7686820    -0.3352680    -0.2293440
units angstrom
no_reorient  #important for SAPT in psi4, default
symmetry c1  #important for SAPT in psi4, default
}

set PROPERTIES_ORIGIN ["COM"]
properties('MP2/aug-cc-pvtz', properties = ['dipole'])
--------------------------------------------------------------------------

    Molecular point group: c1
  Charge       = 0
  Multiplicity = 1
  Basis Set: AUG-CC-PVTZ
    Blend: AUG-CC-PVTZ
  Basis Set: (AUG-CC-PVTZ AUX)
    Blend: AUG-CC-PVTZ-JKFIT

    Orbital Energies [Eh]
    ---------------------

    Doubly Occupied:

       1A    -20.615914     2A    -20.552975     3A    -11.390830
       4A    -11.254337     5A    -11.234001     6A    -11.231556
       7A    -11.230153     8A    -11.214691     9A     -1.458782
      10A     -1.358282    11A     -1.104368    12A     -1.045463
      13A     -0.961715    14A     -0.869864    15A     -0.806721
      16A     -0.737151    17A     -0.702903    18A     -0.682654
      19A     -0.654720    20A     -0.626186    21A     -0.612201
      22A     -0.599316    23A     -0.582482    24A     -0.554219
      25A     -0.525372    26A     -0.498274    27A     -0.491962
      28A     -0.484320    29A     -0.478984    30A     -0.456037
      31A     -0.356636

  @DF-RHF Final Energy:  -382.90329263372064

   => Energetics <=

    Nuclear Repulsion Energy =            355.1557557874856457
    One-Electron Energy =               -1225.3719640431252174
    Two-Electron Energy =                 487.3129156219189326
    Total Energy =                       -382.9032926337206391
  Basis Set: (AUG-CC-PVTZ AUX)
    Blend: AUG-CC-PVTZ-RI
    Molecular point group: c1

    Geometry (in Angstrom), charge = 0, multiplicity = 1:

       Center              X                  Y                   Z               Mass
    ------------   -----------------  -----------------  -----------------  -----------------
         O            3.150584287755     0.385997626353     0.013206839950    15.994914619570
         O            1.723079287755    -1.365293373647    -0.205054160050    15.994914619570
         C           -2.915939712245     0.346686626353    -0.501302160050    12.000000000000
         C           -1.495641712245     0.824309626353    -0.406530160050    12.000000000000
         C            0.858955287755     0.822532626353     0.414529839950    12.000000000000
         C           -0.527414612245     0.270634726353     0.318946639950    12.000000000000
         C           -3.247236712245    -0.883405373647     0.337070839950    12.000000000000
         C            1.911155287755    -0.186649373647     0.028082839950    12.000000000000
         H           -3.582146712245     1.174009626353    -0.216189160050     1.007825032230
         H           -3.147141712245     0.142235626353    -1.559037160050     1.007825032230
         H           -1.254894712245     1.718030626353    -0.992410160050     1.007825032230
         H            0.970059587755     1.711532926353    -0.223050560050     1.007825032230
         H            1.097669287755     1.152124626353     1.433845839950     1.007825032230
         H           -0.712660712245    -0.645413373647     0.904227839950     1.007825032230
         H           -4.295226712245    -1.163512373647     0.213253839950     1.007825032230
         H           -2.630983712245    -1.737908373647     0.039736839950     1.007825032230
         H           -3.073516712245    -0.690761373647     1.401015839950     1.007825032230
         H            3.769103287755    -0.336253373647    -0.228434160050     1.007825032230

  Basis Set: AUG-CC-PVTZ
    Blend: AUG-CC-PVTZ
  Basis Set: (AUG-CC-PVTZ AUX)
    Blend: AUG-CC-PVTZ-JKFIT
	 Reference Energy          =    -382.9032926337206391 [Eh]
	 Singles Energy            =      -0.0000000000000000 [Eh]
	 Same-Spin Energy          =      -0.3830537753206040 [Eh]
	 Opposite-Spin Energy      =      -1.2543004742552264 [Eh]
	 Correlation Energy        =      -1.6373542495758304 [Eh]
	 Total Energy              =    -384.5406468832964606 [Eh]

	 ================> DF-SCS-MP2 Energies <==================
	-----------------------------------------------------------
	 SCS Same-Spin Scale       =       0.3333333333333333 [-]
	 SCS Opposite-Spin Scale   =       1.2000000000000000 [-]
	 SCS Same-Spin Energy      =      -0.1276845917735347 [Eh]
	 SCS Opposite-Spin Energy  =      -1.5051605691062717 [Eh]
	 SCS Correlation Energy    =      -1.6328451608798065 [Eh]
	 SCS Total Energy          =    -384.5361377946004495 [Eh]
	-----------------------------------------------------------

  Dipole Moment: [D]
     X:    -0.1749      Y:     1.3892      Z:     0.2060     Total:     1.4153

*** Psi4 exiting successfully. Buy a developer a beer!
