                               Psi4 1.3.2 release

  ==> Input File <==

--------------------------------------------------------------------------
#psi4
#
memory 32 gb

molecule  {
0 1
  O        3.1501630     0.3869830     0.0122970
  O        1.7226580    -1.3643080    -0.2059640
  C       -2.9163610     0.3476720    -0.5022120
  C       -1.4960630     0.8252950    -0.4074400
  C        0.8585340     0.8235180     0.4136200
  C       -0.5709879     0.2137790     0.3473532
  C       -3.2476580    -0.8824200     0.3361610
  C        1.9107340    -0.1856640     0.0271730
  H       -3.5825680     1.1749950    -0.2170990
  H       -3.1475630     0.1432210    -1.5599470
  H       -1.3096724     1.7198433    -1.0115870
  H        0.9787830     1.7133270    -0.2211670
  H        1.0972480     1.1531100     1.4329360
  H       -0.7130820    -0.6444280     0.9033180
  H       -4.2956480    -1.1625270     0.2123440
  H       -2.6314050    -1.7369230     0.0388270
  H       -3.0739380    -0.6897760     1.4001060
  H        3.7686820    -0.3352680    -0.2293440
units angstrom
no_reorient  #important for SAPT in psi4, default
symmetry c1  #important for SAPT in psi4, default
}

set PROPERTIES_ORIGIN ["COM"]
properties('MP2/aug-cc-pvtz', properties = ['dipole'])
--------------------------------------------------------------------------

    Molecular point group: c1
  Charge       = 0
  Multiplicity = 1
  Basis Set: AUG-CC-PVTZ
    Blend: AUG-CC-PVTZ
  Basis Set: (AUG-CC-PVTZ AUX)
    Blend: AUG-CC-PVTZ-JKFIT

    Orbital Energies [Eh]
    ---------------------

    Doubly Occupied:

       1A    -20.614797     2A    -20.551791     3A    -11.389221
       4A    -11.255366     5A    -11.236936     6A    -11.232742
       7A    -11.227402     8A    -11.214088     9A     -1.457660
      10A     -1.357208    11A     -1.099556    12A     -1.040068
      13A     -0.959494    14A     -0.871611    15A     -0.802341
      16A     -0.748064    17A     -0.702682    18A     -0.679515
      19A     -0.651371    20A     -0.623157    21A     -0.611554
      22A     -0.607158    23A     -0.581549    24A     -0.549581
      25A     -0.528935    26A     -0.497639    27A     -0.492588
      28A     -0.483916    29A     -0.474616    30A     -0.453958
      31A     -0.355842

  @DF-RHF Final Energy:  -382.89774310966874

   => Energetics <=

    Nuclear Repulsion Energy =            354.6566529153316196
    One-Electron Energy =               -1224.4039775468656899
    Two-Electron Energy =                 486.8495815218653320
    Total Energy =                       -382.8977431096687383
  Basis Set: (AUG-CC-PVTZ AUX)
    Blend: AUG-CC-PVTZ-RI
    Molecular point group: c1

    Geometry (in Angstrom), charge = 0, multiplicity = 1:

       Center              X                  Y                   Z               Mass
    ------------   -----------------  -----------------  -----------------  -----------------
         O            3.155523351209     0.392068074815     0.010259458703    15.994914619570
         O            1.728018351209    -1.359222925185    -0.208001541297    15.994914619570
         C           -2.911000648791     0.352757074815    -0.504249541297    12.000000000000
         C           -1.490702648791     0.830380074815    -0.409477541297    12.000000000000
         C            0.863894351209     0.828603074815     0.411582458703    12.000000000000
         C           -0.565627548791     0.218864074815     0.345315658703    12.000000000000
         C           -3.242297648791    -0.877334925185     0.334123458703    12.000000000000
         C            1.916094351209    -0.180578925185     0.025135458703    12.000000000000
         H           -3.577207648791     1.180080074815    -0.219136541297     1.007825032230
         H           -3.142202648791     0.148306074815    -1.561984541297     1.007825032230
         H           -1.304312048791     1.724928374815    -1.013624541297     1.007825032230
         H            0.984143351209     1.718412074815    -0.223204541297     1.007825032230
         H            1.102608351209     1.158195074815     1.430898458703     1.007825032230
         H           -0.707721648791    -0.639342925185     0.901280458703     1.007825032230
         H           -4.290287648791    -1.157441925185     0.210306458703     1.007825032230
         H           -2.626044648791    -1.731837925185     0.036789458703     1.007825032230
         H           -3.068577648791    -0.684690925185     1.398068458703     1.007825032230
         H            3.774042351209    -0.330182925185    -0.231381541297     1.007825032230

  Basis Set: AUG-CC-PVTZ
    Blend: AUG-CC-PVTZ
  Basis Set: (AUG-CC-PVTZ AUX)
    Blend: AUG-CC-PVTZ-JKFIT
	 Reference Energy          =    -382.8977431096687383 [Eh]
	 Singles Energy            =      -0.0000000000000000 [Eh]
	 Same-Spin Energy          =      -0.3827433967229609 [Eh]
	 Opposite-Spin Energy      =      -1.2543718535740396 [Eh]
	 Correlation Energy        =      -1.6371152502970006 [Eh]
	 Total Energy              =    -384.5348583599657104 [Eh]

	 ================> DF-SCS-MP2 Energies <==================
	-----------------------------------------------------------
	 SCS Same-Spin Scale       =       0.3333333333333333 [-]
	 SCS Opposite-Spin Scale   =       1.2000000000000000 [-]
	 SCS Same-Spin Energy      =      -0.1275811322409870 [Eh]
	 SCS Opposite-Spin Energy  =      -1.5052462242888474 [Eh]
	 SCS Correlation Energy    =      -1.6328273565298344 [Eh]
	 SCS Total Energy          =    -384.5305704661985828 [Eh]
	-----------------------------------------------------------

  Dipole Moment: [D]
     X:    -0.2164      Y:     1.4145      Z:     0.1882     Total:     1.4432

*** Psi4 exiting successfully. Buy a developer a beer!
