                               Psi4 1.3.2 release

  ==> Input File <==

--------------------------------------------------------------------------
#psi4
#
memory 32 gb

molecule  {
0 1
  O        3.1501630     0.3869830     0.0122970
  O        1.7226580    -1.3643080    -0.2059640
  C       -2.9308838     0.4071168    -0.5515519
  C       -1.4960630     0.8252950    -0.4074400
  C        0.8585340     0.8235180     0.4136200
  C       -0.4807432     0.3118356     0.3031327
  C       -3.2476580    -0.8824200     0.3361610
  C        1.9107340    -0.1856640     0.0271730
  H       -3.5825680     1.1749950    -0.2170990
  H       -3.1475630     0.1432210    -1.5599470
  H       -1.2553160     1.7190160    -0.9933200
  H        0.9787830     1.7133270    -0.2211670
  H        1.0972480     1.1531100     1.4329360
  H       -0.7130820    -0.6444280     0.9033180
  H       -4.2956480    -1.1625270     0.2123440
  H       -2.6314050    -1.7369230     0.0388270
  H       -3.0739380    -0.6897760     1.4001060
  H        3.7686820    -0.3352680    -0.2293440
units angstrom
no_reorient  #important for SAPT in psi4, default
symmetry c1  #important for SAPT in psi4, default
}

set PROPERTIES_ORIGIN ["COM"]
properties('MP2/aug-cc-pvtz', properties = ['dipole'])
--------------------------------------------------------------------------

    Molecular point group: c1
  Charge       = 0
  Multiplicity = 1
  Basis Set: AUG-CC-PVTZ
    Blend: AUG-CC-PVTZ
  Basis Set: (AUG-CC-PVTZ AUX)
    Blend: AUG-CC-PVTZ-JKFIT

    Orbital Energies [Eh]
    ---------------------

    Doubly Occupied:

       1A    -20.616856     2A    -20.553949     3A    -11.392113
       4A    -11.253382     5A    -11.236406     6A    -11.234682
       7A    -11.229470     8A    -11.216701     9A     -1.459762
      10A     -1.359213    11A     -1.107719    12A     -1.045471
      13A     -0.955590    14A     -0.874203    15A     -0.812698
      16A     -0.732790    17A     -0.702564    18A     -0.686592
      19A     -0.658870    20A     -0.624289    21A     -0.619204
      22A     -0.597984    23A     -0.584240    24A     -0.558911
      25A     -0.510883    26A     -0.510227    27A     -0.501844
      28A     -0.484263    29A     -0.459770    30A     -0.455070
      31A     -0.355576

  @DF-RHF Final Energy:  -382.89105918000229

   => Energetics <=

    Nuclear Repulsion Energy =            354.7945267007015673
    One-Electron Energy =               -1224.5885893738463892
    Two-Electron Energy =                 486.9030034931425348
    Total Energy =                       -382.8910591800022871
  Basis Set: (AUG-CC-PVTZ AUX)
    Blend: AUG-CC-PVTZ-RI
    Molecular point group: c1

    Geometry (in Angstrom), charge = 0, multiplicity = 1:

       Center              X                  Y                   Z               Mass
    ------------   -----------------  -----------------  -----------------  -----------------
         O            3.147077127303     0.375506184464     0.019940649658    15.994914619570
         O            1.719572127303    -1.375784815536    -0.198320350342    15.994914619570
         C           -2.933969672697     0.395639984464    -0.543908250342    12.000000000000
         C           -1.499148872697     0.813818184464    -0.399796350342    12.000000000000
         C            0.855448127303     0.812041184464     0.421263649658    12.000000000000
         C           -0.483829072697     0.300358784464     0.310776349658    12.000000000000
         C           -3.250743872697    -0.893896815536     0.343804649658    12.000000000000
         C            1.907648127303    -0.197140815536     0.034816649658    12.000000000000
         H           -3.585653872697     1.163518184464    -0.209455350342     1.007825032230
         H           -3.150648872697     0.131744184464    -1.552303350342     1.007825032230
         H           -1.258401872697     1.707539184464    -0.985676350342     1.007825032230
         H            0.975697127303     1.701850184464    -0.213523350342     1.007825032230
         H            1.094162127303     1.141633184464     1.440579649658     1.007825032230
         H           -0.716167872697    -0.655904815536     0.910961649658     1.007825032230
         H           -4.298733872697    -1.174003815536     0.219987649658     1.007825032230
         H           -2.634490872697    -1.748399815536     0.046470649658     1.007825032230
         H           -3.077023872697    -0.701252815536     1.407749649658     1.007825032230
         H            3.765596127303    -0.346744815536    -0.221700350342     1.007825032230

  Basis Set: AUG-CC-PVTZ
    Blend: AUG-CC-PVTZ
  Basis Set: (AUG-CC-PVTZ AUX)
    Blend: AUG-CC-PVTZ-JKFIT
	 Reference Energy          =    -382.8910591800022871 [Eh]
	 Singles Energy            =      -0.0000000000000000 [Eh]
	 Same-Spin Energy          =      -0.3835217332173637 [Eh]
	 Opposite-Spin Energy      =      -1.2555454396065084 [Eh]
	 Correlation Energy        =      -1.6390671728238722 [Eh]
	 Total Energy              =    -384.5301263528261870 [Eh]

	 ================> DF-SCS-MP2 Energies <==================
	-----------------------------------------------------------
	 SCS Same-Spin Scale       =       0.3333333333333333 [-]
	 SCS Opposite-Spin Scale   =       1.2000000000000000 [-]
	 SCS Same-Spin Energy      =      -0.1278405777391212 [Eh]
	 SCS Opposite-Spin Energy  =      -1.5066545275278100 [Eh]
	 SCS Correlation Energy    =      -1.6344951052669312 [Eh]
	 SCS Total Energy          =    -384.5255542852692088 [Eh]
	-----------------------------------------------------------

  Dipole Moment: [D]
     X:    -0.1165      Y:     1.4097      Z:     0.1979     Total:     1.4282

*** Psi4 exiting successfully. Buy a developer a beer!
