                               Psi4 1.3.2 release

  ==> Input File <==

--------------------------------------------------------------------------
#psi4
#
memory 32 gb

molecule  {
0 1
  O        3.1501630     0.3869830     0.0122970
  O        1.7226580    -1.3643080    -0.2059640
  C       -2.9163610     0.3476720    -0.5022120
  C       -1.4960630     0.8252950    -0.4074400
  C        0.8585340     0.8235180     0.4136200
  C       -0.5245990     0.2621860     0.3264500
  C       -3.2476580    -0.8824200     0.3361610
  C        1.9107340    -0.1856640     0.0271730
  H       -3.5825680     1.1749950    -0.2170990
  H       -3.1475630     0.1432210    -1.5599470
  H       -1.2553160     1.7190160    -0.9933200
  H        0.9678475     1.6324077    -0.1634394
  H        1.0972480     1.1531100     1.4329360
  H       -0.7130820    -0.6444280     0.9033180
  H       -4.2956480    -1.1625270     0.2123440
  H       -2.6314050    -1.7369230     0.0388270
  H       -3.0739380    -0.6897760     1.4001060
  H        3.7686820    -0.3352680    -0.2293440
units angstrom
no_reorient  #important for SAPT in psi4, default
symmetry c1  #important for SAPT in psi4, default
}

set PROPERTIES_ORIGIN ["COM"]
properties('MP2/aug-cc-pvtz', properties = ['dipole'])
--------------------------------------------------------------------------

    Molecular point group: c1
  Charge       = 0
  Multiplicity = 1
  Basis Set: AUG-CC-PVTZ
    Blend: AUG-CC-PVTZ
  Basis Set: (AUG-CC-PVTZ AUX)
    Blend: AUG-CC-PVTZ-JKFIT

    Orbital Energies [Eh]
    ---------------------

    Doubly Occupied:

       1A    -20.616083     2A    -20.552481     3A    -11.390016
       4A    -11.242707     5A    -11.235318     6A    -11.231838
       7A    -11.230007     8A    -11.214618     9A     -1.458752
      10A     -1.358046    11A     -1.105713    12A     -1.049177
      13A     -0.961790    14A     -0.870103    15A     -0.808849
      16A     -0.745113    17A     -0.702950    18A     -0.684628
      19A     -0.656136    20A     -0.629186    21A     -0.612011
      22A     -0.601338    23A     -0.582123    24A     -0.555857
      25A     -0.533374    26A     -0.498088    27A     -0.491254
      28A     -0.485205    29A     -0.480035    30A     -0.456015
      31A     -0.353873

  @DF-RHF Final Energy:  -382.89809258620892

   => Energetics <=

    Nuclear Repulsion Energy =            355.5772862493510615
    One-Electron Energy =               -1226.1653921402323704
    Two-Electron Energy =                 487.6900133046723340
    Total Energy =                       -382.8980925862089180
  Basis Set: (AUG-CC-PVTZ AUX)
    Blend: AUG-CC-PVTZ-RI
    Molecular point group: c1

    Geometry (in Angstrom), charge = 0, multiplicity = 1:

       Center              X                  Y                   Z               Mass
    ------------   -----------------  -----------------  -----------------  -----------------
         O            3.150259587041     0.387697897531     0.011787047670    15.994914619570
         O            1.722754587041    -1.363593102469    -0.206473952330    15.994914619570
         C           -2.916264412959     0.348386897531    -0.502721952330    12.000000000000
         C           -1.495966412959     0.826009897531    -0.407949952330    12.000000000000
         C            0.858630587041     0.824232897531     0.413110047670    12.000000000000
         C           -0.524502412959     0.262900897531     0.325940047670    12.000000000000
         C           -3.247561412959    -0.881705102469     0.335651047670    12.000000000000
         C            1.910830587041    -0.184949102469     0.026663047670    12.000000000000
         H           -3.582471412959     1.175709897531    -0.217608952330     1.007825032230
         H           -3.147466412959     0.143935897531    -1.560456952330     1.007825032230
         H           -1.255219412959     1.719730897531    -0.993829952330     1.007825032230
         H            0.967944087041     1.633122597531    -0.163949352330     1.007825032230
         H            1.097344587041     1.153824897531     1.432426047670     1.007825032230
         H           -0.712985412959    -0.643713102469     0.902808047670     1.007825032230
         H           -4.295551412959    -1.161812102469     0.211834047670     1.007825032230
         H           -2.631308412959    -1.736208102469     0.038317047670     1.007825032230
         H           -3.073841412959    -0.689061102469     1.399596047670     1.007825032230
         H            3.768778587041    -0.334553102469    -0.229853952330     1.007825032230

  Basis Set: AUG-CC-PVTZ
    Blend: AUG-CC-PVTZ
  Basis Set: (AUG-CC-PVTZ AUX)
    Blend: AUG-CC-PVTZ-JKFIT
	 Reference Energy          =    -382.8980925862089180 [Eh]
	 Singles Energy            =      -0.0000000000000000 [Eh]
	 Same-Spin Energy          =      -0.3830160807322728 [Eh]
	 Opposite-Spin Energy      =      -1.2539018053544460 [Eh]
	 Correlation Energy        =      -1.6369178860867188 [Eh]
	 Total Energy              =    -384.5350104722956530 [Eh]

	 ================> DF-SCS-MP2 Energies <==================
	-----------------------------------------------------------
	 SCS Same-Spin Scale       =       0.3333333333333333 [-]
	 SCS Opposite-Spin Scale   =       1.2000000000000000 [-]
	 SCS Same-Spin Energy      =      -0.1276720269107576 [Eh]
	 SCS Opposite-Spin Energy  =      -1.5046821664253351 [Eh]
	 SCS Correlation Energy    =      -1.6323541933360928 [Eh]
	 SCS Total Energy          =    -384.5304467795450023 [Eh]
	-----------------------------------------------------------

  Dipole Moment: [D]
     X:    -0.1602      Y:     1.4090      Z:     0.2034     Total:     1.4326

*** Psi4 exiting successfully. Buy a developer a beer!
