                               Psi4 1.3.2 release

  ==> Input File <==

--------------------------------------------------------------------------
#psi4
#
memory 32 gb

molecule  {
0 1
  O        3.1501630     0.3869830     0.0122970
  O        1.7226580    -1.3643080    -0.2059640
  C       -2.9163610     0.3476720    -0.5022120
  C       -1.4960630     0.8252950    -0.4074400
  C        0.8585340     0.8235180     0.4136200
  C       -0.5245990     0.2621860     0.3264500
  C       -3.2476580    -0.8824200     0.3361610
  C        1.9107340    -0.1856640     0.0271730
  H       -3.5825680     1.1749950    -0.2170990
  H       -3.1475630     0.1432210    -1.5599470
  H       -1.2553160     1.7190160    -0.9933200
  H        0.9787830     1.7133270    -0.2211670
  H        1.0972480     1.1531100     1.4329360
  H       -0.7130820    -0.6444280     0.9033180
  H       -4.2956480    -1.1625270     0.2123440
  H       -2.6314050    -1.7369230     0.0388270
  H       -3.0739380    -0.6897760     1.4001060
  H        3.7056401    -0.2616533    -0.2047150
units angstrom
no_reorient  #important for SAPT in psi4, default
symmetry c1  #important for SAPT in psi4, default
}

set PROPERTIES_ORIGIN ["COM"]
properties('MP2/aug-cc-pvtz', properties = ['dipole'])
--------------------------------------------------------------------------

    Molecular point group: c1
  Charge       = 0
  Multiplicity = 1
  Basis Set: AUG-CC-PVTZ
    Blend: AUG-CC-PVTZ
  Basis Set: (AUG-CC-PVTZ AUX)
    Blend: AUG-CC-PVTZ-JKFIT

    Orbital Energies [Eh]
    ---------------------

    Doubly Occupied:

       1A    -20.608311     2A    -20.554797     3A    -11.392437
       4A    -11.254783     5A    -11.236003     6A    -11.232737
       7A    -11.230414     8A    -11.215048     9A     -1.476330
      10A     -1.368532    11A     -1.104068    12A     -1.047371
      13A     -0.963661    14A     -0.875657    15A     -0.820535
      16A     -0.739739    17A     -0.712488    18A     -0.684891
      19A     -0.656503    20A     -0.628465    21A     -0.612570
      22A     -0.601175    23A     -0.587722    24A     -0.554330
      25A     -0.528739    26A     -0.498530    27A     -0.492043
      28A     -0.486853    29A     -0.481378    30A     -0.457556
      31A     -0.354579

  @DF-RHF Final Energy:  -382.89892269962365

   => Energetics <=

    Nuclear Repulsion Energy =            355.7180901227095546
    One-Electron Energy =               -1226.3175348559116173
    Two-Electron Energy =                 487.7005220335784088
    Total Energy =                       -382.8989226996236539
  Basis Set: (AUG-CC-PVTZ AUX)
    Blend: AUG-CC-PVTZ-RI
    Molecular point group: c1

    Geometry (in Angstrom), charge = 0, multiplicity = 1:

       Center              X                  Y                   Z               Mass
    ------------   -----------------  -----------------  -----------------  -----------------
         O            3.150719962410     0.386332544190     0.012079483536    15.994914619570
         O            1.723214962410    -1.364958455810    -0.206181516464    15.994914619570
         C           -2.915804037590     0.347021544190    -0.502429516464    12.000000000000
         C           -1.495506037590     0.824644544190    -0.407657516464    12.000000000000
         C            0.859090962410     0.822867544190     0.413402483536    12.000000000000
         C           -0.524042037590     0.261535544190     0.326232483536    12.000000000000
         C           -3.247101037590    -0.883070455810     0.335943483536    12.000000000000
         C            1.911290962410    -0.186314455810     0.026955483536    12.000000000000
         H           -3.582011037590     1.174344544190    -0.217316516464     1.007825032230
         H           -3.147006037590     0.142570544190    -1.560164516464     1.007825032230
         H           -1.254759037590     1.718365544190    -0.993537516464     1.007825032230
         H            0.979339962410     1.712676544190    -0.221384516464     1.007825032230
         H            1.097804962410     1.152459544190     1.432718483536     1.007825032230
         H           -0.712525037590    -0.645078455810     0.903100483536     1.007825032230
         H           -4.295091037590    -1.163177455810     0.212126483536     1.007825032230
         H           -2.630848037590    -1.737573455810     0.038609483536     1.007825032230
         H           -3.073381037590    -0.690426455810     1.399888483536     1.007825032230
         H            3.706197062410    -0.262303755810    -0.204932516464     1.007825032230

  Basis Set: AUG-CC-PVTZ
    Blend: AUG-CC-PVTZ
  Basis Set: (AUG-CC-PVTZ AUX)
    Blend: AUG-CC-PVTZ-JKFIT
	 Reference Energy          =    -382.8989226996236539 [Eh]
	 Singles Energy            =      -0.0000000000000000 [Eh]
	 Same-Spin Energy          =      -0.3818681737299721 [Eh]
	 Opposite-Spin Energy      =      -1.2517137320129050 [Eh]
	 Correlation Energy        =      -1.6335819057428771 [Eh]
	 Total Energy              =    -384.5325046053665119 [Eh]

	 ================> DF-SCS-MP2 Energies <==================
	-----------------------------------------------------------
	 SCS Same-Spin Scale       =       0.3333333333333333 [-]
	 SCS Opposite-Spin Scale   =       1.2000000000000000 [-]
	 SCS Same-Spin Energy      =      -0.1272893912433240 [Eh]
	 SCS Opposite-Spin Energy  =      -1.5020564784154860 [Eh]
	 SCS Correlation Energy    =      -1.6293458696588099 [Eh]
	 SCS Total Energy          =    -384.5282685692824884 [Eh]
	-----------------------------------------------------------

  Dipole Moment: [D]
     X:    -0.2820      Y:     1.4522      Z:     0.2326     Total:     1.4975

*** Psi4 exiting successfully. Buy a developer a beer!
