                               Psi4 1.4a3.dev225

  ==> Input File <==

--------------------------------------------------------------------------
#psi4
#
memory 32 gb

molecule  {
0 1
  O       -3.2271830    -0.3786580    -0.1569640
  O       -1.8275510     1.3993140    -0.2614160
  C        2.8225670    -0.4310850    -0.3953020
  C        1.4009980    -0.8942070    -0.2419560
  C       -0.9807690    -0.7586230     0.4926230
  C        0.4143070    -0.2269140     0.3719860
  C        3.1298050     0.9339520     0.2103920
  C       -2.0113430     0.2195500    -0.0192140
  H        3.4859920    -1.1868430     0.0468460
  H        3.0699840    -0.4203720    -1.4654230
  H        1.1737130    -1.8673930    -0.6818980
  H       -1.0998220    -1.7054460    -0.0447970
  H       -1.2414610    -0.9681590     1.5400430
  H        0.5847351     0.7053076     0.7919359
  H        4.1791340     1.1958370     0.0500290
  H        2.5131630     1.7137800    -0.2445400
  H        2.9424530     0.9385920     1.2876810
  H       -3.8316340     0.3284440    -0.4642740
units angstrom
no_reorient  #important for SAPT in psi4, default
symmetry c1  #important for SAPT in psi4, default
}

set PROPERTIES_ORIGIN ["COM"]
properties('MP2/aug-cc-pvtz', properties = ['dipole'])
--------------------------------------------------------------------------

    Molecular point group: c1
  Charge       = 0
  Multiplicity = 1
  Basis Set: AUG-CC-PVTZ
    Blend: AUG-CC-PVTZ
  Basis Set: (AUG-CC-PVTZ AUX)
    Blend: AUG-CC-PVTZ-JKFIT

    Orbital Energies [Eh]
    ---------------------

    Doubly Occupied:

       1A    -20.616383     2A    -20.552313     3A    -11.391173
       4A    -11.254233     5A    -11.234754     6A    -11.229839
       7A    -11.226431     8A    -11.214569     9A     -1.460020
      10A     -1.357374    11A     -1.104363    12A     -1.045617
      13A     -0.961364    14A     -0.872096    15A     -0.807451
      16A     -0.747405    17A     -0.703683    18A     -0.682217
      19A     -0.655749    20A     -0.624549    21A     -0.612820
      22A     -0.601629    23A     -0.581703    24A     -0.553796
      25A     -0.532789    26A     -0.498822    27A     -0.492821
      28A     -0.485194    29A     -0.479973    30A     -0.455814
      31A     -0.354370

  @DF-RHF Final Energy:  -382.90302403919878

   => Energetics <=

    Nuclear Repulsion Energy =            355.2180429974654317
    One-Electron Energy =               -1225.4595067528248364
    Two-Electron Energy =                 487.3384397161606216
    Total Energy =                       -382.9030240391987832
  Basis Set: (AUG-CC-PVTZ AUX)
    Blend: AUG-CC-PVTZ-RI
    Molecular point group: c1

    Geometry (in Angstrom), charge = 0, multiplicity = 1:

       Center              X                  Y                   Z               Mass
    ------------   -----------------  -----------------  -----------------  -----------------
         O           -3.124833139214    -0.388838067154    -0.149533180065    15.994914619570
         O           -1.725201139214     1.389133932846    -0.253985180065    15.994914619570
         C            2.924916860786    -0.441265067154    -0.387871180065    12.000000000000
         C            1.503347860786    -0.904387067154    -0.234525180065    12.000000000000
         C           -0.878419139214    -0.768803067154     0.500053819935    12.000000000000
         C            0.516656860786    -0.237094067154     0.379416819935    12.000000000000
         C            3.232154860786     0.923771932846     0.217822819935    12.000000000000
         C           -1.908993139214     0.209369932846    -0.011783180065    12.000000000000
         H            3.588341860786    -1.197023067154     0.054276819935     1.007825032230
         H            3.172333860786    -0.430552067154    -1.457992180065     1.007825032230
         H            1.276062860786    -1.877573067154    -0.674467180065     1.007825032230
         H           -0.997472139214    -1.715626067154    -0.037366180065     1.007825032230
         H           -1.139111139214    -0.978339067154     1.547473819935     1.007825032230
         H            0.687084960786     0.695127532846     0.799366719935     1.007825032230
         H            4.281483860786     1.185656932846     0.057459819935     1.007825032230
         H            2.615512860786     1.703599932846    -0.237109180065     1.007825032230
         H            3.044802860786     0.928411932846     1.295111819935     1.007825032230
         H           -3.729284139214     0.318263932846    -0.456843180065     1.007825032230

  Basis Set: AUG-CC-PVTZ
    Blend: AUG-CC-PVTZ
  Basis Set: (AUG-CC-PVTZ AUX)
    Blend: AUG-CC-PVTZ-JKFIT
	 Reference Energy          =    -382.9030240391987832 [Eh]
	 Singles Energy            =      -0.0000000000000000 [Eh]
	 Same-Spin Energy          =      -0.3828703703610640 [Eh]
	 Opposite-Spin Energy      =      -1.2538869997441398 [Eh]
	 Correlation Energy        =      -1.6367573701052036 [Eh]
	 Total Energy              =    -384.5397814093039983 [Eh]

	 ================> DF-SCS-MP2 Energies <==================
	-----------------------------------------------------------
	 SCS Same-Spin Scale       =       0.3333333333333333 [-]
	 SCS Opposite-Spin Scale   =       1.2000000000000000 [-]
	 SCS Same-Spin Energy      =      -0.1276234567870213 [Eh]
	 SCS Opposite-Spin Energy  =      -1.5046643996929676 [Eh]
	 SCS Correlation Energy    =      -1.6322878564799890 [Eh]
	 SCS Total Energy          =    -384.5353118956787739 [Eh]
	-----------------------------------------------------------

  Dipole Moment: [D]
     X:     0.1734      Y:    -1.4119      Z:     0.2440     Total:     1.4432

*** Psi4 exiting successfully. Buy a developer a beer!
