                               Psi4 1.3.2 release

  ==> Input File <==

--------------------------------------------------------------------------
#psi4
#
memory 32 gb

molecule  {
0 1
  O        3.1501630     0.3869830     0.0122970
  O        1.7226580    -1.3643080    -0.2059640
  C       -2.9163610     0.3476720    -0.5022120
  C       -1.5034338     0.8168478    -0.4040712
  C        0.8619154     0.8137902     0.4216323
  C       -0.5245990     0.2621860     0.3264500
  C       -3.2476580    -0.8824200     0.3361610
  C        1.9107340    -0.1856640     0.0271730
  H       -3.5825680     1.1749950    -0.2170990
  H       -3.1475630     0.1432210    -1.5599470
  H       -1.2553160     1.7190160    -0.9933200
  H        0.9787830     1.7133270    -0.2211670
  H        1.0972480     1.1531100     1.4329360
  H       -0.7130820    -0.6444280     0.9033180
  H       -4.2956480    -1.1625270     0.2123440
  H       -2.6314050    -1.7369230     0.0388270
  H       -3.0739380    -0.6897760     1.4001060
  H        3.7686820    -0.3352680    -0.2293440
units angstrom
no_reorient  #important for SAPT in psi4, default
symmetry c1  #important for SAPT in psi4, default
}

set PROPERTIES_ORIGIN ["COM"]
properties('MP2/aug-cc-pvtz', properties = ['dipole'])
--------------------------------------------------------------------------

    Molecular point group: c1
  Charge       = 0
  Multiplicity = 1
  Basis Set: AUG-CC-PVTZ
    Blend: AUG-CC-PVTZ
  Basis Set: (AUG-CC-PVTZ AUX)
    Blend: AUG-CC-PVTZ-JKFIT

    Orbital Energies [Eh]
    ---------------------

    Doubly Occupied:

       1A    -20.615869     2A    -20.552707     3A    -11.390457
       4A    -11.254684     5A    -11.236232     6A    -11.232316
       7A    -11.230006     8A    -11.214761     9A     -1.458852
      10A     -1.358258    11A     -1.103701    12A     -1.046955
      13A     -0.960609    14A     -0.871426    15A     -0.806332
      16A     -0.736853    17A     -0.702928    18A     -0.683416
      19A     -0.655201    20A     -0.626285    21A     -0.612856
      22A     -0.597874    23A     -0.583416    24A     -0.553203
      25A     -0.525631    26A     -0.498717    27A     -0.492941
      28A     -0.483857    29A     -0.479423    30A     -0.456234
      31A     -0.354182

  @DF-RHF Final Energy:  -382.90246187493642

   => Energetics <=

    Nuclear Repulsion Energy =            355.2126421063526891
    One-Electron Energy =               -1225.4778457437573707
    Two-Electron Energy =                 487.3627417624683176
    Total Energy =                       -382.9024618749364208
  Basis Set: (AUG-CC-PVTZ AUX)
    Blend: AUG-CC-PVTZ-RI
    Molecular point group: c1

    Geometry (in Angstrom), charge = 0, multiplicity = 1:

       Center              X                  Y                   Z               Mass
    ------------   -----------------  -----------------  -----------------  -----------------
         O            3.150582654892     0.388894967775     0.011099792480    15.994914619570
         O            1.723077654892    -1.362396032225    -0.207161207520    15.994914619570
         C           -2.915941345108     0.349583967775    -0.503409207520    12.000000000000
         C           -1.503014145108     0.818759767775    -0.405268407520    12.000000000000
         C            0.862335054892     0.815702167775     0.420435092480    12.000000000000
         C           -0.524179345108     0.264097967775     0.325252792480    12.000000000000
         C           -3.247238345108    -0.880508032225     0.334963792480    12.000000000000
         C            1.911153654892    -0.183752032225     0.025975792480    12.000000000000
         H           -3.582148345108     1.176906967775    -0.218296207520     1.007825032230
         H           -3.147143345108     0.145132967775    -1.561144207520     1.007825032230
         H           -1.254896345108     1.720927967775    -0.994517207520     1.007825032230
         H            0.979202654892     1.715238967775    -0.222364207520     1.007825032230
         H            1.097667654892     1.155021967775     1.431738792480     1.007825032230
         H           -0.712662345108    -0.642516032225     0.902120792480     1.007825032230
         H           -4.295228345108    -1.160615032225     0.211146792480     1.007825032230
         H           -2.630985345108    -1.735011032225     0.037629792480     1.007825032230
         H           -3.073518345108    -0.687864032225     1.398908792480     1.007825032230
         H            3.769101654892    -0.333356032225    -0.230541207520     1.007825032230

  Basis Set: AUG-CC-PVTZ
    Blend: AUG-CC-PVTZ
  Basis Set: (AUG-CC-PVTZ AUX)
    Blend: AUG-CC-PVTZ-JKFIT
	 Reference Energy          =    -382.9024618749364208 [Eh]
	 Singles Energy            =      -0.0000000000000000 [Eh]
	 Same-Spin Energy          =      -0.3832668117900982 [Eh]
	 Opposite-Spin Energy      =      -1.2547010146703752 [Eh]
	 Correlation Energy        =      -1.6379678264604736 [Eh]
	 Total Energy              =    -384.5404297013968744 [Eh]

	 ================> DF-SCS-MP2 Energies <==================
	-----------------------------------------------------------
	 SCS Same-Spin Scale       =       0.3333333333333333 [-]
	 SCS Opposite-Spin Scale   =       1.2000000000000000 [-]
	 SCS Same-Spin Energy      =      -0.1277556039300327 [Eh]
	 SCS Opposite-Spin Energy  =      -1.5056412176044502 [Eh]
	 SCS Correlation Energy    =      -1.6333968215344830 [Eh]
	 SCS Total Energy          =    -384.5358586964708820 [Eh]
	-----------------------------------------------------------

  Dipole Moment: [D]
     X:    -0.1915      Y:     1.3884      Z:     0.2133     Total:     1.4177

*** Psi4 exiting successfully. Buy a developer a beer!
