                               Psi4 1.3.2 release

  ==> Input File <==

--------------------------------------------------------------------------
#psi4
#
memory 32 gb

molecule  {
0 1
  O        3.1197965     0.4487479     0.0316096
  O        1.7226580    -1.3643080    -0.2059640
  C       -2.9163610     0.3476720    -0.5022120
  C       -1.4960630     0.8252950    -0.4074400
  C        0.9156961     0.8776375     0.4198610
  C       -0.5245990     0.2621860     0.3264500
  C       -3.2476580    -0.8824200     0.3361610
  C        1.9107340    -0.1856640     0.0271730
  H       -3.5825680     1.1749950    -0.2170990
  H       -3.1475630     0.1432210    -1.5599470
  H       -1.2553160     1.7190160    -0.9933200
  H        0.9787830     1.7133270    -0.2211670
  H        1.0972480     1.1531100     1.4329360
  H       -0.7130820    -0.6444280     0.9033180
  H       -4.2956480    -1.1625270     0.2123440
  H       -2.6314050    -1.7369230     0.0388270
  H       -3.0739380    -0.6897760     1.4001060
  H        3.7686820    -0.3352680    -0.2293440
units angstrom
no_reorient  #important for SAPT in psi4, default
symmetry c1  #important for SAPT in psi4, default
}

set PROPERTIES_ORIGIN ["COM"]
properties('MP2/aug-cc-pvtz', properties = ['dipole'])
--------------------------------------------------------------------------

    Molecular point group: c1
  Charge       = 0
  Multiplicity = 1
  Basis Set: AUG-CC-PVTZ
    Blend: AUG-CC-PVTZ
  Basis Set: (AUG-CC-PVTZ AUX)
    Blend: AUG-CC-PVTZ-JKFIT

    Orbital Energies [Eh]
    ---------------------

    Doubly Occupied:

       1A    -20.623069     2A    -20.559175     3A    -11.392086
       4A    -11.248955     5A    -11.234280     6A    -11.231780
       7A    -11.228445     8A    -11.213692     9A     -1.453865
      10A     -1.359036    11A     -1.095483    12A     -1.041579
      13A     -0.959016    14A     -0.864734    15A     -0.794618
      16A     -0.737504    17A     -0.701834    18A     -0.679146
      19A     -0.659232    20A     -0.620121    21A     -0.610743
      22A     -0.599018    23A     -0.581731    24A     -0.556078
      25A     -0.523166    26A     -0.496986    27A     -0.489089
      28A     -0.488700    29A     -0.474667    30A     -0.456958
      31A     -0.352659

  @DF-RHF Final Energy:  -382.88602917660950

   => Energetics <=

    Nuclear Repulsion Energy =            354.2764860364782749
    One-Electron Energy =               -1223.6701416696039360
    Two-Electron Energy =                 486.5076264565162205
    Total Energy =                       -382.8860291766094974
  Basis Set: (AUG-CC-PVTZ AUX)
    Blend: AUG-CC-PVTZ-RI
    Molecular point group: c1

    Geometry (in Angstrom), charge = 0, multiplicity = 1:

       Center              X                  Y                   Z               Mass
    ------------   -----------------  -----------------  -----------------  -----------------
         O            3.118041064138     0.434393631777     0.028245071096    15.994914619570
         O            1.720902564138    -1.378662268223    -0.209328528904    15.994914619570
         C           -2.918116435862     0.333317731777    -0.505576528904    12.000000000000
         C           -1.497818435862     0.810940731777    -0.410804528904    12.000000000000
         C            0.913940664138     0.863283231777     0.416496471096    12.000000000000
         C           -0.526354435862     0.247831731777     0.323085471096    12.000000000000
         C           -3.249413435862    -0.896774268223     0.332796471096    12.000000000000
         C            1.908978564138    -0.200018268223     0.023808471096    12.000000000000
         H           -3.584323435862     1.160640731777    -0.220463528904     1.007825032230
         H           -3.149318435862     0.128866731777    -1.563311528904     1.007825032230
         H           -1.257071435862     1.704661731777    -0.996684528904     1.007825032230
         H            0.977027564138     1.698972731777    -0.224531528904     1.007825032230
         H            1.095492564138     1.138755731777     1.429571471096     1.007825032230
         H           -0.714837435862    -0.658782268223     0.899953471096     1.007825032230
         H           -4.297403435862    -1.176881268223     0.208979471096     1.007825032230
         H           -2.633160435862    -1.751277268223     0.035462471096     1.007825032230
         H           -3.075693435862    -0.704130268223     1.396741471096     1.007825032230
         H            3.766926564138    -0.349622268223    -0.232708528904     1.007825032230

  Basis Set: AUG-CC-PVTZ
    Blend: AUG-CC-PVTZ
  Basis Set: (AUG-CC-PVTZ AUX)
    Blend: AUG-CC-PVTZ-JKFIT
	 Reference Energy          =    -382.8860291766094974 [Eh]
	 Singles Energy            =      -0.0000000000000000 [Eh]
	 Same-Spin Energy          =      -0.3843133908756730 [Eh]
	 Opposite-Spin Energy      =      -1.2579115898529389 [Eh]
	 Correlation Energy        =      -1.6422249807286118 [Eh]
	 Total Energy              =    -384.5282541573380968 [Eh]

	 ================> DF-SCS-MP2 Energies <==================
	-----------------------------------------------------------
	 SCS Same-Spin Scale       =       0.3333333333333333 [-]
	 SCS Opposite-Spin Scale   =       1.2000000000000000 [-]
	 SCS Same-Spin Energy      =      -0.1281044636252243 [Eh]
	 SCS Opposite-Spin Energy  =      -1.5094939078235268 [Eh]
	 SCS Correlation Energy    =      -1.6375983714487510 [Eh]
	 SCS Total Energy          =    -384.5236275480582435 [Eh]
	-----------------------------------------------------------

  Dipole Moment: [D]
     X:    -0.0017      Y:     1.2884      Z:     0.1843     Total:     1.3015

*** Psi4 exiting successfully. Buy a developer a beer!
