                               Psi4 1.3.2 release

  ==> Input File <==

--------------------------------------------------------------------------
#psi4
#
memory 32 gb

molecule  {
0 1
  O        3.1501630     0.3869830     0.0122970
  O        1.7226580    -1.3643080    -0.2059640
  C       -2.9163610     0.3476720    -0.5022120
  C       -1.4960630     0.8252950    -0.4074400
  C        0.8585340     0.8235180     0.4136200
  C       -0.5245990     0.2621860     0.3264500
  C       -3.2476580    -0.8824200     0.3361610
  C        1.9107340    -0.1856640     0.0271730
  H       -3.5825680     1.1749950    -0.2170990
  H       -3.1475630     0.1432210    -1.5599470
  H       -1.2113609     1.8821897    -1.1002887
  H        0.9787830     1.7133270    -0.2211670
  H        1.0972480     1.1531100     1.4329360
  H       -0.7130820    -0.6444280     0.9033180
  H       -4.2956480    -1.1625270     0.2123440
  H       -2.6314050    -1.7369230     0.0388270
  H       -3.0739380    -0.6897760     1.4001060
  H        3.7686820    -0.3352680    -0.2293440
units angstrom
no_reorient  #important for SAPT in psi4, default
symmetry c1  #important for SAPT in psi4, default
}

set PROPERTIES_ORIGIN ["COM"]
properties('MP2/aug-cc-pvtz', properties = ['dipole'])
--------------------------------------------------------------------------

    Molecular point group: c1
  Charge       = 0
  Multiplicity = 1
  Basis Set: AUG-CC-PVTZ
    Blend: AUG-CC-PVTZ
  Basis Set: (AUG-CC-PVTZ AUX)
    Blend: AUG-CC-PVTZ-JKFIT

    Orbital Energies [Eh]
    ---------------------

    Doubly Occupied:

       1A    -20.615846     2A    -20.552975     3A    -11.390710
       4A    -11.257787     5A    -11.254426     6A    -11.235285
       7A    -11.233061     8A    -11.216971     9A     -1.458774
      10A     -1.358333    11A     -1.101931    12A     -1.046548
      13A     -0.958218    14A     -0.870127    15A     -0.806159
      16A     -0.725862    17A     -0.701084    18A     -0.681315
      19A     -0.654313    20A     -0.621345    21A     -0.613981
      22A     -0.588674    23A     -0.580004    24A     -0.553840
      25A     -0.529173    26A     -0.499892    27A     -0.493573
      28A     -0.483802    29A     -0.466475    30A     -0.454605
      31A     -0.356423

  @DF-RHF Final Energy:  -382.88136810909299

   => Energetics <=

    Nuclear Repulsion Energy =            354.2400753514805274
    One-Electron Energy =               -1223.5198590238455836
    Two-Electron Energy =                 486.3984155632720672
    Total Energy =                       -382.8813681090929890
  Basis Set: (AUG-CC-PVTZ AUX)
    Blend: AUG-CC-PVTZ-RI
    Molecular point group: c1

    Geometry (in Angstrom), charge = 0, multiplicity = 1:

       Center              X                  Y                   Z               Mass
    ------------   -----------------  -----------------  -----------------  -----------------
         O            3.149774612446     0.385541264084     0.013242187920    15.994914619570
         O            1.722269612446    -1.365749735916    -0.205018812080    15.994914619570
         C           -2.916749387554     0.346230264084    -0.501266812080    12.000000000000
         C           -1.496451387554     0.823853264084    -0.406494812080    12.000000000000
         C            0.858145612446     0.822076264084     0.414565187920    12.000000000000
         C           -0.524987387554     0.260744264084     0.327395187920    12.000000000000
         C           -3.248046387554    -0.883861735916     0.337106187920    12.000000000000
         C            1.910345612446    -0.187105735916     0.028118187920    12.000000000000
         H           -3.582956387554     1.173553264084    -0.216153812080     1.007825032230
         H           -3.147951387554     0.141779264084    -1.559001812080     1.007825032230
         H           -1.211749287554     1.880747964084    -1.099343512080     1.007825032230
         H            0.978394612446     1.711885264084    -0.220221812080     1.007825032230
         H            1.096859612446     1.151668264084     1.433881187920     1.007825032230
         H           -0.713470387554    -0.645869735916     0.904263187920     1.007825032230
         H           -4.296036387554    -1.163968735916     0.213289187920     1.007825032230
         H           -2.631793387554    -1.738364735916     0.039772187920     1.007825032230
         H           -3.074326387554    -0.691217735916     1.401051187920     1.007825032230
         H            3.768293612446    -0.336709735916    -0.228398812080     1.007825032230

  Basis Set: AUG-CC-PVTZ
    Blend: AUG-CC-PVTZ
  Basis Set: (AUG-CC-PVTZ AUX)
    Blend: AUG-CC-PVTZ-JKFIT
	 Reference Energy          =    -382.8813681090929890 [Eh]
	 Singles Energy            =      -0.0000000000000000 [Eh]
	 Same-Spin Energy          =      -0.3835798189299189 [Eh]
	 Opposite-Spin Energy      =      -1.2565903803623790 [Eh]
	 Correlation Energy        =      -1.6401701992922979 [Eh]
	 Total Energy              =    -384.5215383083852885 [Eh]

	 ================> DF-SCS-MP2 Energies <==================
	-----------------------------------------------------------
	 SCS Same-Spin Scale       =       0.3333333333333333 [-]
	 SCS Opposite-Spin Scale   =       1.2000000000000000 [-]
	 SCS Same-Spin Energy      =      -0.1278599396433063 [Eh]
	 SCS Opposite-Spin Energy  =      -1.5079084564348548 [Eh]
	 SCS Correlation Energy    =      -1.6357683960781610 [Eh]
	 SCS Total Energy          =    -384.5171365051711518 [Eh]
	-----------------------------------------------------------

  Dipole Moment: [D]
     X:    -0.2418      Y:     1.2617      Z:     0.2833     Total:     1.3156

*** Psi4 exiting successfully. Buy a developer a beer!
