                               Psi4 1.3.2 release

  ==> Input File <==

--------------------------------------------------------------------------
#psi4
#
memory 32 gb

molecule  {
0 1
  O        3.1501630     0.3869830     0.0122970
  O        1.7226580    -1.3643080    -0.2059640
  C       -2.9163610     0.3476720    -0.5022120
  C       -1.4817521     0.7663498    -0.3574432
  C        0.8585340     0.8235180     0.4136200
  C       -0.5245990     0.2621860     0.3264500
  C       -3.1718887    -0.8830839     0.3613265
  C        1.9107340    -0.1856640     0.0271730
  H       -3.5825680     1.1749950    -0.2170990
  H       -3.1475630     0.1432210    -1.5599470
  H       -1.2553160     1.7190160    -0.9933200
  H        0.9787830     1.7133270    -0.2211670
  H        1.0972480     1.1531100     1.4329360
  H       -0.7130820    -0.6444280     0.9033180
  H       -4.2956480    -1.1625270     0.2123440
  H       -2.6314050    -1.7369230     0.0388270
  H       -3.0739380    -0.6897760     1.4001060
  H        3.7686820    -0.3352680    -0.2293440
units angstrom
no_reorient  #important for SAPT in psi4, default
symmetry c1  #important for SAPT in psi4, default
}

set PROPERTIES_ORIGIN ["COM"]
properties('MP2/aug-cc-pvtz', properties = ['dipole'])
--------------------------------------------------------------------------

    Molecular point group: c1
  Charge       = 0
  Multiplicity = 1
  Basis Set: AUG-CC-PVTZ
    Blend: AUG-CC-PVTZ
  Basis Set: (AUG-CC-PVTZ AUX)
    Blend: AUG-CC-PVTZ-JKFIT

    Orbital Energies [Eh]
    ---------------------

    Doubly Occupied:

       1A    -20.616216     2A    -20.553257     3A    -11.391205
       4A    -11.255195     5A    -11.232044     6A    -11.231067
       7A    -11.223504     8A    -11.214803     9A     -1.459116
      10A     -1.358621    11A     -1.112127    12A     -1.046816
      13A     -0.966663    14A     -0.870369    15A     -0.810083
      16A     -0.730096    17A     -0.702532    18A     -0.682378
      19A     -0.655378    20A     -0.623755    21A     -0.622219
      22A     -0.598441    23A     -0.583621    24A     -0.550883
      25A     -0.525150    26A     -0.512650    27A     -0.493930
      28A     -0.484176    29A     -0.459574    30A     -0.448105
      31A     -0.370048

  @DF-RHF Final Energy:  -382.88962159381009

   => Energetics <=

    Nuclear Repulsion Energy =            356.6163732076348083
    One-Electron Energy =               -1228.2439455704029569
    Two-Electron Energy =                 488.7379507689581146
    Total Energy =                       -382.8896215938100909
  Basis Set: (AUG-CC-PVTZ AUX)
    Blend: AUG-CC-PVTZ-RI
    Molecular point group: c1

    Geometry (in Angstrom), charge = 0, multiplicity = 1:

       Center              X                  Y                   Z               Mass
    ------------   -----------------  -----------------  -----------------  -----------------
         O            3.140686501610     0.393253848909     0.004389988976    15.994914619570
         O            1.713181501610    -1.358037151091    -0.213871011024    15.994914619570
         C           -2.925837498390     0.353942848909    -0.510119011024    12.000000000000
         C           -1.491228598390     0.772620648909    -0.365350211024    12.000000000000
         C            0.849057501610     0.829788848909     0.405712988976    12.000000000000
         C           -0.534075498390     0.268456848909     0.318542988976    12.000000000000
         C           -3.181365198390    -0.876813051091     0.353419488976    12.000000000000
         C            1.901257501610    -0.179393151091     0.019265988976    12.000000000000
         H           -3.592044498390     1.181265848909    -0.225006011024     1.007825032230
         H           -3.157039498390     0.149491848909    -1.567854011024     1.007825032230
         H           -1.264792498390     1.725286848909    -1.001227011024     1.007825032230
         H            0.969306501610     1.719597848909    -0.229074011024     1.007825032230
         H            1.087771501610     1.159380848909     1.425028988976     1.007825032230
         H           -0.722558498390    -0.638157151091     0.895410988976     1.007825032230
         H           -4.305124498390    -1.156256151091     0.204436988976     1.007825032230
         H           -2.640881498390    -1.730652151091     0.030919988976     1.007825032230
         H           -3.083414498390    -0.683505151091     1.392198988976     1.007825032230
         H            3.759205501610    -0.328997151091    -0.237251011024     1.007825032230

  Basis Set: AUG-CC-PVTZ
    Blend: AUG-CC-PVTZ
  Basis Set: (AUG-CC-PVTZ AUX)
    Blend: AUG-CC-PVTZ-JKFIT
	 Reference Energy          =    -382.8896215938100909 [Eh]
	 Singles Energy            =      -0.0000000000000000 [Eh]
	 Same-Spin Energy          =      -0.3830570918529913 [Eh]
	 Opposite-Spin Energy      =      -1.2541253173987790 [Eh]
	 Correlation Energy        =      -1.6371824092517704 [Eh]
	 Total Energy              =    -384.5268040030618408 [Eh]

	 ================> DF-SCS-MP2 Energies <==================
	-----------------------------------------------------------
	 SCS Same-Spin Scale       =       0.3333333333333333 [-]
	 SCS Opposite-Spin Scale   =       1.2000000000000000 [-]
	 SCS Same-Spin Energy      =      -0.1276856972843304 [Eh]
	 SCS Opposite-Spin Energy  =      -1.5049503808785347 [Eh]
	 SCS Correlation Energy    =      -1.6326360781628653 [Eh]
	 SCS Total Energy          =    -384.5222576719729659 [Eh]
	-----------------------------------------------------------

  Dipole Moment: [D]
     X:    -0.1563      Y:     1.3556      Z:     0.2410     Total:     1.3857

*** Psi4 exiting successfully. Buy a developer a beer!
