                               Psi4 1.3.2 release

  ==> Input File <==

--------------------------------------------------------------------------
#psi4
#
memory 32 gb

molecule  {
0 1
  O        3.1501630     0.3869830     0.0122970
  O        1.7226580    -1.3643080    -0.2059640
  C       -2.9310237     0.4074455    -0.5511114
  C       -1.4960630     0.8252950    -0.4074400
  C        0.8585340     0.8235180     0.4136200
  C       -0.5245990     0.2621860     0.3264500
  C       -3.2476580    -0.8824200     0.3361610
  C        1.9107340    -0.1856640     0.0271730
  H       -3.5825680     1.1749950    -0.2170990
  H       -3.1475630     0.1432210    -1.5599470
  H       -1.3097673     1.7200633    -1.0112905
  H        0.9787830     1.7133270    -0.2211670
  H        1.0972480     1.1531100     1.4329360
  H       -0.7130820    -0.6444280     0.9033180
  H       -4.2956480    -1.1625270     0.2123440
  H       -2.6314050    -1.7369230     0.0388270
  H       -3.0739380    -0.6897760     1.4001060
  H        3.7686820    -0.3352680    -0.2293440
units angstrom
no_reorient  #important for SAPT in psi4, default
symmetry c1  #important for SAPT in psi4, default
}

set PROPERTIES_ORIGIN ["COM"]
properties('MP2/aug-cc-pvtz', properties = ['dipole'])
--------------------------------------------------------------------------

    Molecular point group: c1
  Charge       = 0
  Multiplicity = 1
  Basis Set: AUG-CC-PVTZ
    Blend: AUG-CC-PVTZ
  Basis Set: (AUG-CC-PVTZ AUX)
    Blend: AUG-CC-PVTZ-JKFIT

    Orbital Energies [Eh]
    ---------------------

    Doubly Occupied:

       1A    -20.615970     2A    -20.553054     3A    -11.390838
       4A    -11.254820     5A    -11.236174     6A    -11.234452
       7A    -11.226449     8A    -11.215815     9A     -1.458875
      10A     -1.358397    11A     -1.101181    12A     -1.041107
      13A     -0.954352    14A     -0.874684    15A     -0.808109
      16A     -0.740131    17A     -0.703124    18A     -0.683270
      19A     -0.655254    20A     -0.621655    21A     -0.618210
      22A     -0.601037    23A     -0.582819    24A     -0.551431
      25A     -0.522248    26A     -0.509618    27A     -0.496333
      28A     -0.483618    29A     -0.462032    30A     -0.454902
      31A     -0.356895

  @DF-RHF Final Energy:  -382.89733472562983

   => Energetics <=

    Nuclear Repulsion Energy =            354.3470942923745497
    One-Electron Energy =               -1223.7551516857449769
    Two-Electron Energy =                 486.5107226677405947
    Total Energy =                       -382.8973347256298325
  Basis Set: (AUG-CC-PVTZ AUX)
    Blend: AUG-CC-PVTZ-RI
    Molecular point group: c1

    Geometry (in Angstrom), charge = 0, multiplicity = 1:

       Center              X                  Y                   Z               Mass
    ------------   -----------------  -----------------  -----------------  -----------------
         O            3.152186582861     0.380685506384     0.017600095830    15.994914619570
         O            1.724681582861    -1.370605493616    -0.200660904170    15.994914619570
         C           -2.929000117139     0.401148006384    -0.545808304170    12.000000000000
         C           -1.494039417139     0.818997506384    -0.402136904170    12.000000000000
         C            0.860557582861     0.817220506384     0.418923095830    12.000000000000
         C           -0.522575417139     0.255888506384     0.331753095830    12.000000000000
         C           -3.245634417139    -0.888717493616     0.341464095830    12.000000000000
         C            1.912757582861    -0.191961493616     0.032476095830    12.000000000000
         H           -3.580544417139     1.168697506384    -0.211795904170     1.007825032230
         H           -3.145539417139     0.136923506384    -1.554643904170     1.007825032230
         H           -1.307743717139     1.713765806384    -1.005987404170     1.007825032230
         H            0.980806582861     1.707029506384    -0.215863904170     1.007825032230
         H            1.099271582861     1.146812506384     1.438239095830     1.007825032230
         H           -0.711058417139    -0.650725493616     0.908621095830     1.007825032230
         H           -4.293624417139    -1.168824493616     0.217647095830     1.007825032230
         H           -2.629381417139    -1.743220493616     0.044130095830     1.007825032230
         H           -3.071914417139    -0.696073493616     1.405409095830     1.007825032230
         H            3.770705582861    -0.341565493616    -0.224040904170     1.007825032230

  Basis Set: AUG-CC-PVTZ
    Blend: AUG-CC-PVTZ
  Basis Set: (AUG-CC-PVTZ AUX)
    Blend: AUG-CC-PVTZ-JKFIT
	 Reference Energy          =    -382.8973347256298325 [Eh]
	 Singles Energy            =      -0.0000000000000000 [Eh]
	 Same-Spin Energy          =      -0.3827768838213256 [Eh]
	 Opposite-Spin Energy      =      -1.2545688069549461 [Eh]
	 Correlation Energy        =      -1.6373456907762716 [Eh]
	 Total Energy              =    -384.5346804164061041 [Eh]

	 ================> DF-SCS-MP2 Energies <==================
	-----------------------------------------------------------
	 SCS Same-Spin Scale       =       0.3333333333333333 [-]
	 SCS Opposite-Spin Scale   =       1.2000000000000000 [-]
	 SCS Same-Spin Energy      =      -0.1275922946071085 [Eh]
	 SCS Opposite-Spin Energy  =      -1.5054825683459352 [Eh]
	 SCS Correlation Energy    =      -1.6330748629530438 [Eh]
	 SCS Total Energy          =    -384.5304095885828701 [Eh]
	-----------------------------------------------------------

  Dipole Moment: [D]
     X:    -0.1438      Y:     1.4268      Z:     0.1890     Total:     1.4464

*** Psi4 exiting successfully. Buy a developer a beer!
