                               Psi4 1.3.2 release

  ==> Input File <==

--------------------------------------------------------------------------
#psi4
#
memory 32 gb

molecule  {
0 1
  O        3.1501630     0.3869830     0.0122970
  O        1.7226580    -1.3643080    -0.2059640
  C       -2.9163610     0.3476720    -0.5022120
  C       -1.4960630     0.8252950    -0.4074400
  C        0.8585340     0.8235180     0.4136200
  C       -0.5245990     0.2621860     0.3264500
  C       -3.2476580    -0.8824200     0.3361610
  C        1.9261994    -0.0887449     0.0463437
  H       -3.5825680     1.1749950    -0.2170990
  H       -3.1475630     0.1432210    -1.5599470
  H       -1.2553160     1.7190160    -0.9933200
  H        0.9787830     1.7133270    -0.2211670
  H        1.0972480     1.1531100     1.4329360
  H       -0.7130820    -0.6444280     0.9033180
  H       -4.2956480    -1.1625270     0.2123440
  H       -2.6314050    -1.7369230     0.0388270
  H       -3.0739380    -0.6897760     1.4001060
  H        3.7686820    -0.3352680    -0.2293440
units angstrom
no_reorient  #important for SAPT in psi4, default
symmetry c1  #important for SAPT in psi4, default
}

set PROPERTIES_ORIGIN ["COM"]
properties('MP2/aug-cc-pvtz', properties = ['dipole'])
--------------------------------------------------------------------------

    Molecular point group: c1
  Charge       = 0
  Multiplicity = 1
  Basis Set: AUG-CC-PVTZ
    Blend: AUG-CC-PVTZ
  Basis Set: (AUG-CC-PVTZ AUX)
    Blend: AUG-CC-PVTZ-JKFIT

    Orbital Energies [Eh]
    ---------------------

    Doubly Occupied:

       1A    -20.631682     2A    -20.533825     3A    -11.398109
       4A    -11.257824     5A    -11.237241     6A    -11.234978
       7A    -11.230690     8A    -11.214543     9A     -1.473353
      10A     -1.302663    11A     -1.108627    12A     -1.054632
      13A     -0.969631    14A     -0.877426    15A     -0.824752
      16A     -0.740825    17A     -0.701492    18A     -0.686530
      19A     -0.662763    20A     -0.630839    21A     -0.612223
      22A     -0.599511    23A     -0.562394    24A     -0.557427
      25A     -0.528448    26A     -0.498168    27A     -0.492092
      28A     -0.482981    29A     -0.447785    30A     -0.443603
      31A     -0.356301

  @DF-RHF Final Energy:  -382.88178000986022

   => Energetics <=

    Nuclear Repulsion Energy =            354.7998019922929416
    One-Electron Energy =               -1224.6564451320052740
    Two-Electron Energy =                 486.9748631298521104
    Total Energy =                       -382.8817800098602220
  Basis Set: (AUG-CC-PVTZ AUX)
    Blend: AUG-CC-PVTZ-RI
    Molecular point group: c1

    Geometry (in Angstrom), charge = 0, multiplicity = 1:

       Center              X                  Y                   Z               Mass
    ------------   -----------------  -----------------  -----------------  -----------------
         O            3.148536003446     0.376787030083     0.010280323963    15.994914619570
         O            1.721031003446    -1.374503969917    -0.207980676037    15.994914619570
         C           -2.917987996554     0.337476030083    -0.504228676037    12.000000000000
         C           -1.497689996554     0.815099030083    -0.409456676037    12.000000000000
         C            0.856907003446     0.813322030083     0.411603323963    12.000000000000
         C           -0.526225996554     0.251990030083     0.324433323963    12.000000000000
         C           -3.249284996554    -0.892615969917     0.334144323963    12.000000000000
         C            1.924572403446    -0.098940869917     0.044327023963    12.000000000000
         H           -3.584194996554     1.164799030083    -0.219115676037     1.007825032230
         H           -3.149189996554     0.133025030083    -1.561963676037     1.007825032230
         H           -1.256942996554     1.708820030083    -0.995336676037     1.007825032230
         H            0.977156003446     1.703131030083    -0.223183676037     1.007825032230
         H            1.095621003446     1.142914030083     1.430919323963     1.007825032230
         H           -0.714708996554    -0.654623969917     0.901301323963     1.007825032230
         H           -4.297274996554    -1.172722969917     0.210327323963     1.007825032230
         H           -2.633031996554    -1.747118969917     0.036810323963     1.007825032230
         H           -3.075564996554    -0.699971969917     1.398089323963     1.007825032230
         H            3.767055003446    -0.345463969917    -0.231360676037     1.007825032230

  Basis Set: AUG-CC-PVTZ
    Blend: AUG-CC-PVTZ
  Basis Set: (AUG-CC-PVTZ AUX)
    Blend: AUG-CC-PVTZ-JKFIT
	 Reference Energy          =    -382.8817800098602220 [Eh]
	 Singles Energy            =      -0.0000000000000000 [Eh]
	 Same-Spin Energy          =      -0.3852009967727827 [Eh]
	 Opposite-Spin Energy      =      -1.2580928272937282 [Eh]
	 Correlation Energy        =      -1.6432938240665109 [Eh]
	 Total Energy              =    -384.5250738339267400 [Eh]

	 ================> DF-SCS-MP2 Energies <==================
	-----------------------------------------------------------
	 SCS Same-Spin Scale       =       0.3333333333333333 [-]
	 SCS Opposite-Spin Scale   =       1.2000000000000000 [-]
	 SCS Same-Spin Energy      =      -0.1284003322575942 [Eh]
	 SCS Opposite-Spin Energy  =      -1.5097113927524737 [Eh]
	 SCS Correlation Energy    =      -1.6381117250100679 [Eh]
	 SCS Total Energy          =    -384.5198917348702707 [Eh]
	-----------------------------------------------------------

  Dipole Moment: [D]
     X:     0.0376      Y:     1.9794      Z:     0.3055     Total:     2.0032

*** Psi4 exiting successfully. Buy a developer a beer!
