                               Psi4 1.3.2 release

  ==> Input File <==

--------------------------------------------------------------------------
#psi4
#
memory 32 gb

molecule  {
0 1
  O        3.1501630     0.3869830     0.0122970
  O        1.7226580    -1.3643080    -0.2059640
  C       -2.9163610     0.3476720    -0.5022120
  C       -1.4960630     0.8252950    -0.4074400
  C        0.8585340     0.8235180     0.4136200
  C       -0.5520375     0.3315797     0.3501074
  C       -3.2476580    -0.8824200     0.3361610
  C        1.9656377    -0.1306116     0.0409640
  H       -3.5825680     1.1749950    -0.2170990
  H       -3.1475630     0.1432210    -1.5599470
  H       -1.2553160     1.7190160    -0.9933200
  H        0.9787830     1.7133270    -0.2211670
  H        1.0972480     1.1531100     1.4329360
  H       -0.7130820    -0.6444280     0.9033180
  H       -4.2956480    -1.1625270     0.2123440
  H       -2.6314050    -1.7369230     0.0388270
  H       -3.0739380    -0.6897760     1.4001060
  H        3.7686820    -0.3352680    -0.2293440
units angstrom
no_reorient  #important for SAPT in psi4, default
symmetry c1  #important for SAPT in psi4, default
}

set PROPERTIES_ORIGIN ["COM"]
properties('MP2/aug-cc-pvtz', properties = ['dipole'])
--------------------------------------------------------------------------

    Molecular point group: c1
  Charge       = 0
  Multiplicity = 1
  Basis Set: AUG-CC-PVTZ
    Blend: AUG-CC-PVTZ
  Basis Set: (AUG-CC-PVTZ AUX)
    Blend: AUG-CC-PVTZ-JKFIT

    Orbital Energies [Eh]
    ---------------------

    Doubly Occupied:

       1A    -20.637703     2A    -20.537743     3A    -11.395971
       4A    -11.255141     5A    -11.231421     6A    -11.229818
       7A    -11.229079     8A    -11.213297     9A     -1.489057
      10A     -1.324434    11A     -1.105628    12A     -1.045070
      13A     -0.967898    14A     -0.875742    15A     -0.828948
      16A     -0.731435    17A     -0.710648    18A     -0.685055
      19A     -0.664116    20A     -0.629420    21A     -0.611382
      22A     -0.601622    23A     -0.567220    24A     -0.558405
      25A     -0.519914    26A     -0.497415    27A     -0.492073
      28A     -0.473002    29A     -0.459772    30A     -0.445910
      31A     -0.361482

  @DF-RHF Final Energy:  -382.88876012921679

   => Energetics <=

    Nuclear Repulsion Energy =            354.7923488641815766
    One-Electron Energy =               -1224.6105739963813903
    Two-Electron Energy =                 486.9294650029830223
    Total Energy =                       -382.8887601292167915
  Basis Set: (AUG-CC-PVTZ AUX)
    Blend: AUG-CC-PVTZ-RI
    Molecular point group: c1

    Geometry (in Angstrom), charge = 0, multiplicity = 1:

       Center              X                  Y                   Z               Mass
    ------------   -----------------  -----------------  -----------------  -----------------
         O            3.147273620485     0.373891180505     0.008357503829    15.994914619570
         O            1.719768620485    -1.377399819495    -0.209903496171    15.994914619570
         C           -2.919250379515     0.334580180505    -0.506151496171    12.000000000000
         C           -1.498952379515     0.812203180505    -0.411379496171    12.000000000000
         C            0.855644620485     0.810426180505     0.409680503829    12.000000000000
         C           -0.554926879515     0.318487880505     0.346167903829    12.000000000000
         C           -3.250547379515    -0.895511819495     0.332221503829    12.000000000000
         C            1.962748320485    -0.143703419495     0.037024503829    12.000000000000
         H           -3.585457379515     1.161903180505    -0.221038496171     1.007825032230
         H           -3.150452379515     0.130129180505    -1.563886496171     1.007825032230
         H           -1.258205379515     1.705924180505    -0.997259496171     1.007825032230
         H            0.975893620485     1.700235180505    -0.225106496171     1.007825032230
         H            1.094358620485     1.140018180505     1.428996503829     1.007825032230
         H           -0.715971379515    -0.657519819495     0.899378503829     1.007825032230
         H           -4.298537379515    -1.175618819495     0.208404503829     1.007825032230
         H           -2.634294379515    -1.750014819495     0.034887503829     1.007825032230
         H           -3.076827379515    -0.702867819495     1.396166503829     1.007825032230
         H            3.765792620485    -0.348359819495    -0.233283496171     1.007825032230

  Basis Set: AUG-CC-PVTZ
    Blend: AUG-CC-PVTZ
  Basis Set: (AUG-CC-PVTZ AUX)
    Blend: AUG-CC-PVTZ-JKFIT
	 Reference Energy          =    -382.8887601292167915 [Eh]
	 Singles Energy            =      -0.0000000000000000 [Eh]
	 Same-Spin Energy          =      -0.3838611045720355 [Eh]
	 Opposite-Spin Energy      =      -1.2552745800215506 [Eh]
	 Correlation Energy        =      -1.6391356845935861 [Eh]
	 Total Energy              =    -384.5278958138104031 [Eh]

	 ================> DF-SCS-MP2 Energies <==================
	-----------------------------------------------------------
	 SCS Same-Spin Scale       =       0.3333333333333333 [-]
	 SCS Opposite-Spin Scale   =       1.2000000000000000 [-]
	 SCS Same-Spin Energy      =      -0.1279537015240118 [Eh]
	 SCS Opposite-Spin Energy  =      -1.5063294960258606 [Eh]
	 SCS Correlation Energy    =      -1.6342831975498724 [Eh]
	 SCS Total Energy          =    -384.5230433267666399 [Eh]
	-----------------------------------------------------------

  Dipole Moment: [D]
     X:     0.3358      Y:     1.7752      Z:     0.1874     Total:     1.8164

*** Psi4 exiting successfully. Buy a developer a beer!
