                               Psi4 1.3.2 release

  ==> Input File <==

--------------------------------------------------------------------------
#psi4
#
memory 32 gb

molecule  {
0 1
  O        3.1501630     0.3869830     0.0122970
  O        1.7226580    -1.3643080    -0.2059640
  C       -2.9163610     0.3476720    -0.5022120
  C       -1.4960630     0.8252950    -0.4074400
  C        0.8585340     0.8235180     0.4136200
  C       -0.5245990     0.2621860     0.3264500
  C       -3.2476580    -0.8824200     0.3361610
  C        2.0015077    -0.1437243     0.0260835
  H       -3.5825680     1.1749950    -0.2170990
  H       -3.1475630     0.1432210    -1.5599470
  H       -1.2553160     1.7190160    -0.9933200
  H        0.9787830     1.7133270    -0.2211670
  H        1.0972480     1.1531100     1.4329360
  H       -0.7130820    -0.6444280     0.9033180
  H       -4.2956480    -1.1625270     0.2123440
  H       -2.6314050    -1.7369230     0.0388270
  H       -3.0739380    -0.6897760     1.4001060
  H        3.7686820    -0.3352680    -0.2293440
units angstrom
no_reorient  #important for SAPT in psi4, default
symmetry c1  #important for SAPT in psi4, default
}

set PROPERTIES_ORIGIN ["COM"]
properties('MP2/aug-cc-pvtz', properties = ['dipole'])
--------------------------------------------------------------------------

    Molecular point group: c1
  Charge       = 0
  Multiplicity = 1
  Basis Set: AUG-CC-PVTZ
    Blend: AUG-CC-PVTZ
  Basis Set: (AUG-CC-PVTZ AUX)
    Blend: AUG-CC-PVTZ-JKFIT

    Orbital Energies [Eh]
    ---------------------

    Doubly Occupied:

       1A    -20.644374     2A    -20.536186     3A    -11.392590
       4A    -11.252997     5A    -11.232382     6A    -11.229627
       7A    -11.227732     8A    -11.212354     9A     -1.506696
      10A     -1.329827    11A     -1.097408    12A     -1.039068
      13A     -0.958763    14A     -0.877705    15A     -0.830531
      16A     -0.736320    17A     -0.720348    18A     -0.680385
      19A     -0.669909    20A     -0.628434    21A     -0.609865
      22A     -0.600167    23A     -0.566364    24A     -0.551357
      25A     -0.525168    26A     -0.495699    27A     -0.488584
      28A     -0.479035    29A     -0.461996    30A     -0.441905
      31A     -0.350238

  @DF-RHF Final Energy:  -382.88941734840319

   => Energetics <=

    Nuclear Repulsion Energy =            354.7792324497739855
    One-Electron Energy =               -1224.5892712482104798
    Two-Electron Energy =                 486.9206214500333090
    Total Energy =                       -382.8894173484031853
  Basis Set: (AUG-CC-PVTZ AUX)
    Blend: AUG-CC-PVTZ-RI
    Molecular point group: c1

    Geometry (in Angstrom), charge = 0, multiplicity = 1:

       Center              X                  Y                   Z               Mass
    ------------   -----------------  -----------------  -----------------  -----------------
         O            3.140613545178     0.382570881293     0.012411703758    15.994914619570
         O            1.713108545178    -1.368720118707    -0.205849296242    15.994914619570
         C           -2.925910454822     0.343259881293    -0.502097296242    12.000000000000
         C           -1.505612454822     0.820882881293    -0.407325296242    12.000000000000
         C            0.848984545178     0.819105881293     0.413734703758    12.000000000000
         C           -0.534148454822     0.257773881293     0.326564703758    12.000000000000
         C           -3.257207454822    -0.886832118707     0.336275703758    12.000000000000
         C            1.991958245178    -0.148136418707     0.026198203758    12.000000000000
         H           -3.592117454822     1.170582881293    -0.216984296242     1.007825032230
         H           -3.157112454822     0.138808881293    -1.559832296242     1.007825032230
         H           -1.264865454822     1.714603881293    -0.993205296242     1.007825032230
         H            0.969233545178     1.708914881293    -0.221052296242     1.007825032230
         H            1.087698545178     1.148697881293     1.433050703758     1.007825032230
         H           -0.722631454822    -0.648840118707     0.903432703758     1.007825032230
         H           -4.305197454822    -1.166939118707     0.212458703758     1.007825032230
         H           -2.640954454822    -1.741335118707     0.038941703758     1.007825032230
         H           -3.083487454822    -0.694188118707     1.400220703758     1.007825032230
         H            3.759132545178    -0.339680118707    -0.229229296242     1.007825032230

  Basis Set: AUG-CC-PVTZ
    Blend: AUG-CC-PVTZ
  Basis Set: (AUG-CC-PVTZ AUX)
    Blend: AUG-CC-PVTZ-JKFIT
	 Reference Energy          =    -382.8894173484031853 [Eh]
	 Singles Energy            =      -0.0000000000000000 [Eh]
	 Same-Spin Energy          =      -0.3836593540965414 [Eh]
	 Opposite-Spin Energy      =      -1.2549278909351602 [Eh]
	 Correlation Energy        =      -1.6385872450317016 [Eh]
	 Total Energy              =    -384.5280045934349005 [Eh]

	 ================> DF-SCS-MP2 Energies <==================
	-----------------------------------------------------------
	 SCS Same-Spin Scale       =       0.3333333333333333 [-]
	 SCS Opposite-Spin Scale   =       1.2000000000000000 [-]
	 SCS Same-Spin Energy      =      -0.1278864513655138 [Eh]
	 SCS Opposite-Spin Energy  =      -1.5059134691221923 [Eh]
	 SCS Correlation Energy    =      -1.6337999204877061 [Eh]
	 SCS Total Energy          =    -384.5232172688909031 [Eh]
	-----------------------------------------------------------

  Dipole Moment: [D]
     X:     0.5998      Y:     1.7705      Z:     0.2064     Total:     1.8807

*** Psi4 exiting successfully. Buy a developer a beer!
