                               Psi4 1.3.2 release

  ==> Input File <==

--------------------------------------------------------------------------
#psi4
#
memory 32 gb

molecule  {
0 1
  O        3.1687201     0.3445436     0.0010752
  O        1.7644501    -1.3690859    -0.2116590
  C       -2.9163610     0.3476720    -0.5022120
  C       -1.4960630     0.8252950    -0.4074400
  C        0.8585340     0.8235180     0.4136200
  C       -0.5245990     0.2621860     0.3264500
  C       -3.2476580    -0.8824200     0.3361610
  C        1.9107340    -0.1856640     0.0271730
  H       -3.5825680     1.1749950    -0.2170990
  H       -3.1475630     0.1432210    -1.5599470
  H       -1.2553160     1.7190160    -0.9933200
  H        0.9787830     1.7133270    -0.2211670
  H        1.0972480     1.1531100     1.4329360
  H       -0.7130820    -0.6444280     0.9033180
  H       -4.2956480    -1.1625270     0.2123440
  H       -2.6314050    -1.7369230     0.0388270
  H       -3.0739380    -0.6897760     1.4001060
  H        3.7686820    -0.3352680    -0.2293440
units angstrom
no_reorient  #important for SAPT in psi4, default
symmetry c1  #important for SAPT in psi4, default
}

set PROPERTIES_ORIGIN ["COM"]
properties('MP2/aug-cc-pvtz', properties = ['dipole'])
--------------------------------------------------------------------------

    Molecular point group: c1
  Charge       = 0
  Multiplicity = 1
  Basis Set: AUG-CC-PVTZ
    Blend: AUG-CC-PVTZ
  Basis Set: (AUG-CC-PVTZ AUX)
    Blend: AUG-CC-PVTZ-JKFIT

    Orbital Energies [Eh]
    ---------------------

    Doubly Occupied:

       1A    -20.605535     2A    -20.549710     3A    -11.390245
       4A    -11.258645     5A    -11.237777     6A    -11.234582
       7A    -11.231466     8A    -11.215819     9A     -1.463059
      10A     -1.355100    11A     -1.105657    12A     -1.048088
      13A     -0.962929    14A     -0.873354    15A     -0.814736
      16A     -0.741140    17A     -0.701904    18A     -0.683434
      19A     -0.654389    20A     -0.628288    21A     -0.613296
      22A     -0.599048    23A     -0.582122    24A     -0.554923
      25A     -0.530102    26A     -0.499371    27A     -0.492675
      28A     -0.484527    29A     -0.478772    30A     -0.455044
      31A     -0.356300

  @DF-RHF Final Energy:  -382.90413717582442

   => Energetics <=

    Nuclear Repulsion Energy =            354.9246322354820791
    One-Electron Energy =               -1224.8534641730304884
    Two-Electron Energy =                 487.0246947617240494
    Total Energy =                       -382.9041371758244168
  Basis Set: (AUG-CC-PVTZ AUX)
    Blend: AUG-CC-PVTZ-RI
    Molecular point group: c1

    Geometry (in Angstrom), charge = 0, multiplicity = 1:

       Center              X                  Y                   Z               Mass
    ------------   -----------------  -----------------  -----------------  -----------------
         O            3.160257751222     0.351164480944     0.003447404477    15.994914619570
         O            1.755987751222    -1.362465019056    -0.209286795523    15.994914619570
         C           -2.924823348778     0.354292880944    -0.499839795523    12.000000000000
         C           -1.504525348778     0.831915880944    -0.405067795523    12.000000000000
         C            0.850071651222     0.830138880944     0.415992204477    12.000000000000
         C           -0.533061348778     0.268806880944     0.328822204477    12.000000000000
         C           -3.256120348778    -0.875799119056     0.338533204477    12.000000000000
         C            1.902271651222    -0.179043119056     0.029545204477    12.000000000000
         H           -3.591030348778     1.181615880944    -0.214726795523     1.007825032230
         H           -3.156025348778     0.149841880944    -1.557574795523     1.007825032230
         H           -1.263778348778     1.725636880944    -0.990947795523     1.007825032230
         H            0.970320651222     1.719947880944    -0.218794795523     1.007825032230
         H            1.088785651222     1.159730880944     1.435308204477     1.007825032230
         H           -0.721544348778    -0.637807119056     0.905690204477     1.007825032230
         H           -4.304110348778    -1.155906119056     0.214716204477     1.007825032230
         H           -2.639867348778    -1.730302119056     0.041199204477     1.007825032230
         H           -3.082400348778    -0.683155119056     1.402478204477     1.007825032230
         H            3.760219651222    -0.328647119056    -0.226971795523     1.007825032230

  Basis Set: AUG-CC-PVTZ
    Blend: AUG-CC-PVTZ
  Basis Set: (AUG-CC-PVTZ AUX)
    Blend: AUG-CC-PVTZ-JKFIT
	 Reference Energy          =    -382.9041371758244168 [Eh]
	 Singles Energy            =      -0.0000000000000000 [Eh]
	 Same-Spin Energy          =      -0.3821948287464712 [Eh]
	 Opposite-Spin Energy      =      -1.2525289411422031 [Eh]
	 Correlation Energy        =      -1.6347237698886743 [Eh]
	 Total Energy              =    -384.5388609457131111 [Eh]

	 ================> DF-SCS-MP2 Energies <==================
	-----------------------------------------------------------
	 SCS Same-Spin Scale       =       0.3333333333333333 [-]
	 SCS Opposite-Spin Scale   =       1.2000000000000000 [-]
	 SCS Same-Spin Energy      =      -0.1273982762488237 [Eh]
	 SCS Opposite-Spin Energy  =      -1.5030347293706436 [Eh]
	 SCS Correlation Energy    =      -1.6304330056194674 [Eh]
	 SCS Total Energy          =    -384.5345701814438826 [Eh]
	-----------------------------------------------------------

  Dipole Moment: [D]
     X:    -0.4168      Y:     1.4892      Z:     0.2426     Total:     1.5653

*** Psi4 exiting successfully. Buy a developer a beer!
