                               Psi4 1.3.2 release

  ==> Input File <==

--------------------------------------------------------------------------
#psi4
#
memory 32 gb

molecule  {
0 1
  O        3.1501630     0.3869830     0.0122970
  O        1.7226580    -1.3643080    -0.2059640
  C       -2.9163610     0.3476720    -0.5022120
  C       -1.4988279     0.8349962    -0.4158018
  C        0.8585340     0.8235180     0.4136200
  C       -0.5245990     0.2621860     0.3264500
  C       -3.2602035    -0.8819814     0.3317414
  C        1.9107340    -0.1856640     0.0271730
  H       -3.5825680     1.1749950    -0.2170990
  H       -3.1475630     0.1432210    -1.5599470
  H       -1.2553160     1.7190160    -0.9933200
  H        0.9787830     1.7133270    -0.2211670
  H        1.0972480     1.1531100     1.4329360
  H       -0.7130820    -0.6444280     0.9033180
  H       -4.2956480    -1.1625270     0.2123440
  H       -2.6314050    -1.7369230     0.0388270
  H       -3.0739380    -0.6897760     1.4001060
  H        3.7686820    -0.3352680    -0.2293440
units angstrom
no_reorient  #important for SAPT in psi4, default
symmetry c1  #important for SAPT in psi4, default
}

set PROPERTIES_ORIGIN ["COM"]
properties('MP2/aug-cc-pvtz', properties = ['dipole'])
--------------------------------------------------------------------------

    Molecular point group: c1
  Charge       = 0
  Multiplicity = 1
  Basis Set: AUG-CC-PVTZ
    Blend: AUG-CC-PVTZ
  Basis Set: (AUG-CC-PVTZ AUX)
    Blend: AUG-CC-PVTZ-JKFIT

    Orbital Energies [Eh]
    ---------------------

    Doubly Occupied:

       1A    -20.615696     2A    -20.552759     3A    -11.390435
       4A    -11.254177     5A    -11.236428     6A    -11.233873
       7A    -11.230007     8A    -11.215054     9A     -1.458589
      10A     -1.358102    11A     -1.101876    12A     -1.045429
      13A     -0.959463    14A     -0.870351    15A     -0.805326
      16A     -0.740996    17A     -0.703037    18A     -0.682403
      19A     -0.654134    20A     -0.627100    21A     -0.610725
      22A     -0.599031    23A     -0.582080    24A     -0.553291
      25A     -0.529306    26A     -0.495639    27A     -0.489824
      28A     -0.486962    29A     -0.482208    30A     -0.455820
      31A     -0.351533

  @DF-RHF Final Energy:  -382.90219175857692

   => Energetics <=

    Nuclear Repulsion Energy =            354.8230727982722783
    One-Electron Energy =               -1224.7072260121346972
    Two-Electron Energy =                 486.9819614552855001
    Total Energy =                       -382.9021917585769188
  Basis Set: (AUG-CC-PVTZ AUX)
    Blend: AUG-CC-PVTZ-RI
    Molecular point group: c1

    Geometry (in Angstrom), charge = 0, multiplicity = 1:

       Center              X                  Y                   Z               Mass
    ------------   -----------------  -----------------  -----------------  -----------------
         O            3.151773627867     0.385916241375     0.013641695536    15.994914619570
         O            1.724268627867    -1.365374758625    -0.204619304464    15.994914619570
         C           -2.914750372133     0.346605241375    -0.500867304464    12.000000000000
         C           -1.497217272133     0.833929441375    -0.414457104464    12.000000000000
         C            0.860144627867     0.822451241375     0.414964695536    12.000000000000
         C           -0.522988372133     0.261119241375     0.327794695536    12.000000000000
         C           -3.258592872133    -0.883048158625     0.333086095536    12.000000000000
         C            1.912344627867    -0.186730758625     0.028517695536    12.000000000000
         H           -3.580957372133     1.173928241375    -0.215754304464     1.007825032230
         H           -3.145952372133     0.142154241375    -1.558602304464     1.007825032230
         H           -1.253705372133     1.717949241375    -0.991975304464     1.007825032230
         H            0.980393627867     1.712260241375    -0.219822304464     1.007825032230
         H            1.098858627867     1.152043241375     1.434280695536     1.007825032230
         H           -0.711471372133    -0.645494758625     0.904662695536     1.007825032230
         H           -4.294037372133    -1.163593758625     0.213688695536     1.007825032230
         H           -2.629794372133    -1.737989758625     0.040171695536     1.007825032230
         H           -3.072327372133    -0.690842758625     1.401450695536     1.007825032230
         H            3.770292627867    -0.336334758625    -0.227999304464     1.007825032230

  Basis Set: AUG-CC-PVTZ
    Blend: AUG-CC-PVTZ
  Basis Set: (AUG-CC-PVTZ AUX)
    Blend: AUG-CC-PVTZ-JKFIT
	 Reference Energy          =    -382.9021917585769188 [Eh]
	 Singles Energy            =      -0.0000000000000000 [Eh]
	 Same-Spin Energy          =      -0.3832167972103686 [Eh]
	 Opposite-Spin Energy      =      -1.2547619170581807 [Eh]
	 Correlation Energy        =      -1.6379787142685494 [Eh]
	 Total Energy              =    -384.5401704728454888 [Eh]

	 ================> DF-SCS-MP2 Energies <==================
	-----------------------------------------------------------
	 SCS Same-Spin Scale       =       0.3333333333333333 [-]
	 SCS Opposite-Spin Scale   =       1.2000000000000000 [-]
	 SCS Same-Spin Energy      =      -0.1277389324034562 [Eh]
	 SCS Opposite-Spin Energy  =      -1.5057143004698168 [Eh]
	 SCS Correlation Energy    =      -1.6334532328732729 [Eh]
	 SCS Total Energy          =    -384.5356449914501695 [Eh]
	-----------------------------------------------------------

  Dipole Moment: [D]
     X:    -0.1796      Y:     1.3956      Z:     0.2023     Total:     1.4216

*** Psi4 exiting successfully. Buy a developer a beer!
