                               Psi4 1.3.2 release

  ==> Input File <==

--------------------------------------------------------------------------
#psi4
#
memory 32 gb

molecule  {
0 1
  O        3.1501630     0.3869830     0.0122970
  O        1.7226580    -1.3643080    -0.2059640
  C       -2.9163610     0.3476720    -0.5022120
  C       -1.4960630     0.8252950    -0.4074400
  C        0.8585340     0.8235180     0.4136200
  C       -0.6171013     0.2246448     0.3206202
  C       -3.2476580    -0.8824200     0.3361610
  C        1.9107340    -0.1856640     0.0271730
  H       -3.5825680     1.1749950    -0.2170990
  H       -3.1475630     0.1432210    -1.5599470
  H       -1.2553160     1.7190160    -0.9933200
  H        0.9787830     1.7133270    -0.2211670
  H        1.0972480     1.1531100     1.4329360
  H       -0.7130820    -0.6444280     0.9033180
  H       -4.2956480    -1.1625270     0.2123440
  H       -2.6314050    -1.7369230     0.0388270
  H       -3.0739380    -0.6897760     1.4001060
  H        3.7686820    -0.3352680    -0.2293440
units angstrom
no_reorient  #important for SAPT in psi4, default
symmetry c1  #important for SAPT in psi4, default
}

set PROPERTIES_ORIGIN ["COM"]
properties('MP2/aug-cc-pvtz', properties = ['dipole'])
--------------------------------------------------------------------------

    Molecular point group: c1
  Charge       = 0
  Multiplicity = 1
  Basis Set: AUG-CC-PVTZ
    Blend: AUG-CC-PVTZ
  Basis Set: (AUG-CC-PVTZ AUX)
    Blend: AUG-CC-PVTZ-JKFIT

    Orbital Energies [Eh]
    ---------------------

    Doubly Occupied:

       1A    -20.614710     2A    -20.551387     3A    -11.389242
       4A    -11.255595     5A    -11.229880     6A    -11.227837
       7A    -11.227275     8A    -11.214508     9A     -1.457416
      10A     -1.356859    11A     -1.104991    12A     -1.036167
      13A     -0.966499    14A     -0.868895    15A     -0.802916
      16A     -0.745158    17A     -0.702200    18A     -0.677935
      19A     -0.649995    20A     -0.624319    21A     -0.612164
      22A     -0.609485    23A     -0.581139    24A     -0.551383
      25A     -0.521786    26A     -0.498204    27A     -0.493832
      28A     -0.483089    29A     -0.467898    30A     -0.453111
      31A     -0.368954

  @DF-RHF Final Energy:  -382.89564416332138

   => Energetics <=

    Nuclear Repulsion Energy =            354.8845916910228198
    One-Electron Energy =               -1224.8708150456525345
    Two-Electron Energy =                 487.0905791913083362
    Total Energy =                       -382.8956441633213785
  Basis Set: (AUG-CC-PVTZ AUX)
    Blend: AUG-CC-PVTZ-RI
    Molecular point group: c1

    Geometry (in Angstrom), charge = 0, multiplicity = 1:

       Center              X                  Y                   Z               Mass
    ------------   -----------------  -----------------  -----------------  -----------------
         O            3.159894241482     0.390932298472     0.012910384898    15.994914619570
         O            1.732389241482    -1.360358701528    -0.205350615102    15.994914619570
         C           -2.906629758518     0.351621298472    -0.501598615102    12.000000000000
         C           -1.486331758518     0.829244298472    -0.406826615102    12.000000000000
         C            0.868265241482     0.827467298472     0.414233384898    12.000000000000
         C           -0.607370058518     0.228594098472     0.321233584898    12.000000000000
         C           -3.237926758518    -0.878470701528     0.336774384898    12.000000000000
         C            1.920465241482    -0.181714701528     0.027786384898    12.000000000000
         H           -3.572836758518     1.178944298472    -0.216485615102     1.007825032230
         H           -3.137831758518     0.147170298472    -1.559333615102     1.007825032230
         H           -1.245584758518     1.722965298472    -0.992706615102     1.007825032230
         H            0.988514241482     1.717276298472    -0.220553615102     1.007825032230
         H            1.106979241482     1.157059298472     1.433549384898     1.007825032230
         H           -0.703350758518    -0.640478701528     0.903931384898     1.007825032230
         H           -4.285916758518    -1.158577701528     0.212957384898     1.007825032230
         H           -2.621673758518    -1.732973701528     0.039440384898     1.007825032230
         H           -3.064206758518    -0.685826701528     1.400719384898     1.007825032230
         H            3.778413241482    -0.331318701528    -0.228730615102     1.007825032230

  Basis Set: AUG-CC-PVTZ
    Blend: AUG-CC-PVTZ
  Basis Set: (AUG-CC-PVTZ AUX)
    Blend: AUG-CC-PVTZ-JKFIT
	 Reference Energy          =    -382.8956441633213785 [Eh]
	 Singles Energy            =      -0.0000000000000000 [Eh]
	 Same-Spin Energy          =      -0.3822774719639792 [Eh]
	 Opposite-Spin Energy      =      -1.2531829385479285 [Eh]
	 Correlation Energy        =      -1.6354604105119077 [Eh]
	 Total Energy              =    -384.5311045738332609 [Eh]

	 ================> DF-SCS-MP2 Energies <==================
	-----------------------------------------------------------
	 SCS Same-Spin Scale       =       0.3333333333333333 [-]
	 SCS Opposite-Spin Scale   =       1.2000000000000000 [-]
	 SCS Same-Spin Energy      =      -0.1274258239879931 [Eh]
	 SCS Opposite-Spin Energy  =      -1.5038195262575142 [Eh]
	 SCS Correlation Energy    =      -1.6312453502455073 [Eh]
	 SCS Total Energy          =    -384.5268895135669140 [Eh]
	-----------------------------------------------------------

  Dipole Moment: [D]
     X:    -0.2356      Y:     1.4003      Z:     0.2023     Total:     1.4343

*** Psi4 exiting successfully. Buy a developer a beer!
