                               Psi4 1.3.2 release

  ==> Input File <==

--------------------------------------------------------------------------
#psi4
#
memory 32 gb

molecule  {
0 1
  O        3.1501630     0.3869830     0.0122970
  O        1.7226580    -1.3643080    -0.2059640
  C       -2.9163610     0.3476720    -0.5022120
  C       -1.4960630     0.8252950    -0.4074400
  C        0.8585340     0.8235180     0.4136200
  C       -0.5245990     0.2621860     0.3264500
  C       -3.2476580    -0.8824200     0.3361610
  C        1.9107340    -0.1856640     0.0271730
  H       -3.5825680     1.1749950    -0.2170990
  H       -3.1475630     0.1432210    -1.5599470
  H       -1.2553160     1.7190160    -0.9933200
  H        0.9787830     1.7133270    -0.2211670
  H        1.0972480     1.1531100     1.4329360
  H       -0.6958056    -0.5613276     0.8504422
  H       -4.2956480    -1.1625270     0.2123440
  H       -2.6314050    -1.7369230     0.0388270
  H       -3.0739380    -0.6897760     1.4001060
  H        3.7686820    -0.3352680    -0.2293440
units angstrom
no_reorient  #important for SAPT in psi4, default
symmetry c1  #important for SAPT in psi4, default
}

set PROPERTIES_ORIGIN ["COM"]
properties('MP2/aug-cc-pvtz', properties = ['dipole'])
--------------------------------------------------------------------------

    Molecular point group: c1
  Charge       = 0
  Multiplicity = 1
  Basis Set: AUG-CC-PVTZ
    Blend: AUG-CC-PVTZ
  Basis Set: (AUG-CC-PVTZ AUX)
    Blend: AUG-CC-PVTZ-JKFIT

    Orbital Energies [Eh]
    ---------------------

    Doubly Occupied:

       1A    -20.615668     2A    -20.552929     3A    -11.390457
       4A    -11.253274     5A    -11.234889     6A    -11.230085
       7A    -11.220914     8A    -11.215081     9A     -1.458624
      10A     -1.358222    11A     -1.105534    12A     -1.045586
      13A     -0.961456    14A     -0.873475    15A     -0.805853
      16A     -0.754263    17A     -0.703872    18A     -0.682196
      19A     -0.654093    20A     -0.626253    21A     -0.612290
      22A     -0.601688    23A     -0.582776    24A     -0.552173
      25A     -0.535974    26A     -0.498371    27A     -0.492021
      28A     -0.486143    29A     -0.481320    30A     -0.455895
      31A     -0.353734

  @DF-RHF Final Energy:  -382.89799134534644

   => Energetics <=

    Nuclear Repulsion Energy =            355.5417769249538082
    One-Electron Energy =               -1226.0893202241275048
    Two-Electron Energy =                 487.6495519538271992
    Total Energy =                       -382.8979913453464405
  Basis Set: (AUG-CC-PVTZ AUX)
    Blend: AUG-CC-PVTZ-RI
    Molecular point group: c1

    Geometry (in Angstrom), charge = 0, multiplicity = 1:

       Center              X                  Y                   Z               Mass
    ------------   -----------------  -----------------  -----------------  -----------------
         O            3.150010326607     0.386248735240     0.012764261239    15.994914619570
         O            1.722505326607    -1.365042264760    -0.205496738761    15.994914619570
         C           -2.916513673393     0.346937735240    -0.501744738761    12.000000000000
         C           -1.496215673393     0.824560735240    -0.406972738761    12.000000000000
         C            0.858381326607     0.822783735240     0.414087261239    12.000000000000
         C           -0.524751673393     0.261451735240     0.326917261239    12.000000000000
         C           -3.247810673393    -0.883154264760     0.336628261239    12.000000000000
         C            1.910581326607    -0.186398264760     0.027640261239    12.000000000000
         H           -3.582720673393     1.174260735240    -0.216631738761     1.007825032230
         H           -3.147715673393     0.142486735240    -1.559479738761     1.007825032230
         H           -1.255468673393     1.718281735240    -0.992852738761     1.007825032230
         H            0.978630326607     1.712592735240    -0.220699738761     1.007825032230
         H            1.097095326607     1.152375735240     1.433403261239     1.007825032230
         H           -0.695958273393    -0.562061864760     0.850909461239     1.007825032230
         H           -4.295800673393    -1.163261264760     0.212811261239     1.007825032230
         H           -2.631557673393    -1.737657264760     0.039294261239     1.007825032230
         H           -3.074090673393    -0.690510264760     1.400573261239     1.007825032230
         H            3.768529326607    -0.336002264760    -0.228876738761     1.007825032230

  Basis Set: AUG-CC-PVTZ
    Blend: AUG-CC-PVTZ
  Basis Set: (AUG-CC-PVTZ AUX)
    Blend: AUG-CC-PVTZ-JKFIT
	 Reference Energy          =    -382.8979913453464405 [Eh]
	 Singles Energy            =      -0.0000000000000000 [Eh]
	 Same-Spin Energy          =      -0.3828751045045132 [Eh]
	 Opposite-Spin Energy      =      -1.2539294332339224 [Eh]
	 Correlation Energy        =      -1.6368045377384355 [Eh]
	 Total Energy              =    -384.5347958830848825 [Eh]

	 ================> DF-SCS-MP2 Energies <==================
	-----------------------------------------------------------
	 SCS Same-Spin Scale       =       0.3333333333333333 [-]
	 SCS Opposite-Spin Scale   =       1.2000000000000000 [-]
	 SCS Same-Spin Energy      =      -0.1276250348348377 [Eh]
	 SCS Opposite-Spin Energy  =      -1.5047153198807068 [Eh]
	 SCS Correlation Energy    =      -1.6323403547155446 [Eh]
	 SCS Total Energy          =    -384.5303317000619927 [Eh]
	-----------------------------------------------------------

  Dipole Moment: [D]
     X:    -0.1928      Y:     1.3826      Z:     0.2158     Total:     1.4126

*** Psi4 exiting successfully. Buy a developer a beer!
