                               Psi4 1.3.2 release

  ==> Input File <==

--------------------------------------------------------------------------
#psi4
#
memory 32 gb

molecule  {
0 1
  O        3.1300959     0.4287247     0.0235369
  O        1.6810950    -1.3580941    -0.1999849
  C       -2.9163610     0.3476720    -0.5022120
  C       -1.4960630     0.8252950    -0.4074400
  C        0.8585340     0.8235180     0.4136200
  C       -0.5245990     0.2621860     0.3264500
  C       -3.2476580    -0.8824200     0.3361610
  C        1.9107340    -0.1856640     0.0271730
  H       -3.5825680     1.1749950    -0.2170990
  H       -3.1475630     0.1432210    -1.5599470
  H       -1.2553160     1.7190160    -0.9933200
  H        0.9787830     1.7133270    -0.2211670
  H        1.0972480     1.1531100     1.4329360
  H       -0.7130820    -0.6444280     0.9033180
  H       -4.2956480    -1.1625270     0.2123440
  H       -2.6314050    -1.7369230     0.0388270
  H       -3.0739380    -0.6897760     1.4001060
  H        3.7686820    -0.3352680    -0.2293440
units angstrom
no_reorient  #important for SAPT in psi4, default
symmetry c1  #important for SAPT in psi4, default
}

set PROPERTIES_ORIGIN ["COM"]
properties('MP2/aug-cc-pvtz', properties = ['dipole'])
--------------------------------------------------------------------------

    Molecular point group: c1
  Charge       = 0
  Multiplicity = 1
  Basis Set: AUG-CC-PVTZ
    Blend: AUG-CC-PVTZ
  Basis Set: (AUG-CC-PVTZ AUX)
    Blend: AUG-CC-PVTZ-JKFIT

    Orbital Energies [Eh]
    ---------------------

    Doubly Occupied:

       1A    -20.625181     2A    -20.555782     3A    -11.391110
       4A    -11.249873     5A    -11.233282     6A    -11.230066
       7A    -11.228716     8A    -11.213723     9A     -1.455054
      10A     -1.361340    11A     -1.100642    12A     -1.042930
      13A     -0.957620    14A     -0.867570    15A     -0.798160
      16A     -0.737244    17A     -0.703394    18A     -0.681592
      19A     -0.654400    20A     -0.624013    21A     -0.610984
      22A     -0.599354    23A     -0.581377    24A     -0.550211
      25A     -0.525825    26A     -0.497055    27A     -0.490351
      28A     -0.487013    29A     -0.479420    30A     -0.455375
      31A     -0.351814

  @DF-RHF Final Energy:  -382.89580017561474

   => Energetics <=

    Nuclear Repulsion Energy =            355.2983892667966757
    One-Electron Energy =               -1225.7074372475635755
    Two-Electron Energy =                 487.5132478051521616
    Total Energy =                       -382.8958001756147382
  Basis Set: (AUG-CC-PVTZ AUX)
    Blend: AUG-CC-PVTZ-RI
    Molecular point group: c1

    Geometry (in Angstrom), charge = 0, multiplicity = 1:

       Center              X                  Y                   Z               Mass
    ------------   -----------------  -----------------  -----------------  -----------------
         O            3.138737797180     0.422000196193     0.021122496264    15.994914619570
         O            1.689736897180    -1.364818603807    -0.202399303736    15.994914619570
         C           -2.907719102820     0.340947496193    -0.504626403736    12.000000000000
         C           -1.487421102820     0.818570496193    -0.409854403736    12.000000000000
         C            0.867175897180     0.816793496193     0.411205596264    12.000000000000
         C           -0.515957102820     0.255461496193     0.324035596264    12.000000000000
         C           -3.239016102820    -0.889144503807     0.333746596264    12.000000000000
         C            1.919375897180    -0.192388503807     0.024758596264    12.000000000000
         H           -3.573926102820     1.168270496193    -0.219513403736     1.007825032230
         H           -3.138921102820     0.136496496193    -1.562361403736     1.007825032230
         H           -1.246674102820     1.712291496193    -0.995734403736     1.007825032230
         H            0.987424897180     1.706602496193    -0.223581403736     1.007825032230
         H            1.105889897180     1.146385496193     1.430521596264     1.007825032230
         H           -0.704440102820    -0.651152503807     0.900903596264     1.007825032230
         H           -4.287006102820    -1.169251503807     0.209929596264     1.007825032230
         H           -2.622763102820    -1.743647503807     0.036412596264     1.007825032230
         H           -3.065296102820    -0.696500503807     1.397691596264     1.007825032230
         H            3.777323897180    -0.341992503807    -0.231758403736     1.007825032230

  Basis Set: AUG-CC-PVTZ
    Blend: AUG-CC-PVTZ
  Basis Set: (AUG-CC-PVTZ AUX)
    Blend: AUG-CC-PVTZ-JKFIT
	 Reference Energy          =    -382.8958001756147382 [Eh]
	 Singles Energy            =      -0.0000000000000000 [Eh]
	 Same-Spin Energy          =      -0.3841945236516290 [Eh]
	 Opposite-Spin Energy      =      -1.2568306930688047 [Eh]
	 Correlation Energy        =      -1.6410252167204336 [Eh]
	 Total Energy              =    -384.5368253923351745 [Eh]

	 ================> DF-SCS-MP2 Energies <==================
	-----------------------------------------------------------
	 SCS Same-Spin Scale       =       0.3333333333333333 [-]
	 SCS Opposite-Spin Scale   =       1.2000000000000000 [-]
	 SCS Same-Spin Energy      =      -0.1280648412172097 [Eh]
	 SCS Opposite-Spin Energy  =      -1.5081968316825656 [Eh]
	 SCS Correlation Energy    =      -1.6362616728997752 [Eh]
	 SCS Total Energy          =    -384.5320618485145019 [Eh]
	-----------------------------------------------------------

  Dipole Moment: [D]
     X:     0.0521      Y:     1.2934      Z:     0.1716     Total:     1.3057

*** Psi4 exiting successfully. Buy a developer a beer!
