                               Psi4 1.3.2 release

  ==> Input File <==

--------------------------------------------------------------------------
#psi4
#
memory 32 gb

molecule  {
0 1
  O        3.1501630     0.3869830     0.0122970
  O        1.7226580    -1.3643080    -0.2059640
  C       -2.9163610     0.3476720    -0.5022120
  C       -1.4960630     0.8252950    -0.4074400
  C        0.8585340     0.8235180     0.4136200
  C       -0.5245990     0.2621860     0.3264500
  C       -3.2476580    -0.8824200     0.3361610
  C        1.9107340    -0.1856640     0.0271730
  H       -3.5825680     1.1749950    -0.2170990
  H       -3.1475630     0.1432210    -1.5599470
  H       -1.2772935     1.6374292    -0.9398356
  H        0.9787830     1.7133270    -0.2211670
  H        1.0972480     1.1531100     1.4329360
  H       -0.7130820    -0.6444280     0.9033180
  H       -4.2956480    -1.1625270     0.2123440
  H       -2.6314050    -1.7369230     0.0388270
  H       -3.0739380    -0.6897760     1.4001060
  H        3.7686820    -0.3352680    -0.2293440
units angstrom
no_reorient  #important for SAPT in psi4, default
symmetry c1  #important for SAPT in psi4, default
}

set PROPERTIES_ORIGIN ["COM"]
properties('MP2/aug-cc-pvtz', properties = ['dipole'])
--------------------------------------------------------------------------

    Molecular point group: c1
  Charge       = 0
  Multiplicity = 1
  Basis Set: AUG-CC-PVTZ
    Blend: AUG-CC-PVTZ
  Basis Set: (AUG-CC-PVTZ AUX)
    Blend: AUG-CC-PVTZ-JKFIT

    Orbital Energies [Eh]
    ---------------------

    Doubly Occupied:

       1A    -20.615779     2A    -20.552827     3A    -11.390541
       4A    -11.254338     5A    -11.231830     6A    -11.229000
       7A    -11.222773     8A    -11.213972     9A     -1.458666
      10A     -1.358163    11A     -1.105137    12A     -1.045395
      13A     -0.962924    14A     -0.871206    15A     -0.806354
      16A     -0.750899    17A     -0.703886    18A     -0.683142
      19A     -0.654678    20A     -0.630576    21A     -0.611461
      22A     -0.603032    23A     -0.582572    24A     -0.552181
      25A     -0.527636    26A     -0.497612    27A     -0.491061
      28A     -0.487893    29A     -0.482247    30A     -0.455975
      31A     -0.353378

  @DF-RHF Final Energy:  -382.89797170512179

   => Energetics <=

    Nuclear Repulsion Energy =            355.5656295627964596
    One-Electron Energy =               -1226.1529320546437702
    Two-Electron Energy =                 487.6893307867255771
    Total Energy =                       -382.8979717051217904
  Basis Set: (AUG-CC-PVTZ AUX)
    Blend: AUG-CC-PVTZ-RI
    Molecular point group: c1

    Geometry (in Angstrom), charge = 0, multiplicity = 1:

       Center              X                  Y                   Z               Mass
    ------------   -----------------  -----------------  -----------------  -----------------
         O            3.150357146359     0.387703795090     0.011824537590    15.994914619570
         O            1.722852146359    -1.363587204910    -0.206436462410    15.994914619570
         C           -2.916166853641     0.348392795090    -0.502684462410    12.000000000000
         C           -1.495868853641     0.826015795090    -0.407912462410    12.000000000000
         C            0.858728146359     0.824238795090     0.413147537590    12.000000000000
         C           -0.524404853641     0.262906795090     0.325977537590    12.000000000000
         C           -3.247463853641    -0.881699204910     0.335688537590    12.000000000000
         C            1.910928146359    -0.184943204910     0.026700537590    12.000000000000
         H           -3.582373853641     1.175715795090    -0.217571462410     1.007825032230
         H           -3.147368853641     0.143941795090    -1.560419462410     1.007825032230
         H           -1.277099353641     1.638149995090    -0.940308062410     1.007825032230
         H            0.978977146359     1.714047795090    -0.221639462410     1.007825032230
         H            1.097442146359     1.153830795090     1.432463537590     1.007825032230
         H           -0.712887853641    -0.643707204910     0.902845537590     1.007825032230
         H           -4.295453853641    -1.161806204910     0.211871537590     1.007825032230
         H           -2.631210853641    -1.736202204910     0.038354537590     1.007825032230
         H           -3.073743853641    -0.689055204910     1.399633537590     1.007825032230
         H            3.768876146359    -0.334547204910    -0.229816462410     1.007825032230

  Basis Set: AUG-CC-PVTZ
    Blend: AUG-CC-PVTZ
  Basis Set: (AUG-CC-PVTZ AUX)
    Blend: AUG-CC-PVTZ-JKFIT
	 Reference Energy          =    -382.8979717051217904 [Eh]
	 Singles Energy            =      -0.0000000000000000 [Eh]
	 Same-Spin Energy          =      -0.3829888788376175 [Eh]
	 Opposite-Spin Energy      =      -1.2540173647397550 [Eh]
	 Correlation Energy        =      -1.6370062435773725 [Eh]
	 Total Energy              =    -384.5349779486991793 [Eh]

	 ================> DF-SCS-MP2 Energies <==================
	-----------------------------------------------------------
	 SCS Same-Spin Scale       =       0.3333333333333333 [-]
	 SCS Opposite-Spin Scale   =       1.2000000000000000 [-]
	 SCS Same-Spin Energy      =      -0.1276629596125392 [Eh]
	 SCS Opposite-Spin Energy  =      -1.5048208376877059 [Eh]
	 SCS Correlation Energy    =      -1.6324837973002451 [Eh]
	 SCS Total Energy          =    -384.5304555024220576 [Eh]
	-----------------------------------------------------------

  Dipole Moment: [D]
     X:    -0.1485      Y:     1.4341      Z:     0.1836     Total:     1.4534

*** Psi4 exiting successfully. Buy a developer a beer!
