                               Psi4 1.3.2 release

  ==> Input File <==

--------------------------------------------------------------------------
#psi4
#
memory 32 gb

molecule  {
0 1
  O        3.1501630     0.3869830     0.0122970
  O        1.6813189    -1.3584634    -0.1982984
  C       -2.9163610     0.3476720    -0.5022120
  C       -1.4960630     0.8252950    -0.4074400
  C        0.8222817     0.7854510     0.4107375
  C       -0.5245990     0.2621860     0.3264500
  C       -3.2476580    -0.8824200     0.3361610
  C        1.9107340    -0.1856640     0.0271730
  H       -3.5825680     1.1749950    -0.2170990
  H       -3.1475630     0.1432210    -1.5599470
  H       -1.2553160     1.7190160    -0.9933200
  H        0.9787830     1.7133270    -0.2211670
  H        1.0972480     1.1531100     1.4329360
  H       -0.7130820    -0.6444280     0.9033180
  H       -4.2956480    -1.1625270     0.2123440
  H       -2.6314050    -1.7369230     0.0388270
  H       -3.0739380    -0.6897760     1.4001060
  H        3.7686820    -0.3352680    -0.2293440
units angstrom
no_reorient  #important for SAPT in psi4, default
symmetry c1  #important for SAPT in psi4, default
}

set PROPERTIES_ORIGIN ["COM"]
properties('MP2/aug-cc-pvtz', properties = ['dipole'])
--------------------------------------------------------------------------

    Molecular point group: c1
  Charge       = 0
  Multiplicity = 1
  Basis Set: AUG-CC-PVTZ
    Blend: AUG-CC-PVTZ
  Basis Set: (AUG-CC-PVTZ AUX)
    Blend: AUG-CC-PVTZ-JKFIT

    Orbital Energies [Eh]
    ---------------------

    Doubly Occupied:

       1A    -20.620384     2A    -20.551628     3A    -11.390486
       4A    -11.254413     5A    -11.235587     6A    -11.229915
       7A    -11.228810     8A    -11.214477     9A     -1.458826
      10A     -1.361146    11A     -1.106668    12A     -1.045793
      13A     -0.958416    14A     -0.872011    15A     -0.806800
      16A     -0.738246    17A     -0.704392    18A     -0.684370
      19A     -0.652911    20A     -0.628225    21A     -0.611976
      22A     -0.600227    23A     -0.581646    24A     -0.552754
      25A     -0.522678    26A     -0.497935    27A     -0.491916
      28A     -0.483729    29A     -0.481387    30A     -0.453502
      31A     -0.352423

  @DF-RHF Final Energy:  -382.89821947283212

   => Energetics <=

    Nuclear Repulsion Energy =            355.8687790443736390
    One-Electron Energy =               -1226.7866447858659740
    Two-Electron Energy =                 488.0196462686601535
    Total Energy =                       -382.8982194728321247
  Basis Set: (AUG-CC-PVTZ AUX)
    Blend: AUG-CC-PVTZ-RI
    Molecular point group: c1

    Geometry (in Angstrom), charge = 0, multiplicity = 1:

       Center              X                  Y                   Z               Mass
    ------------   -----------------  -----------------  -----------------  -----------------
         O            3.159773395886     0.390168068213     0.011525438136    15.994914619570
         O            1.690929295886    -1.355278331787    -0.199069961864    15.994914619570
         C           -2.906750604114     0.350857068213    -0.502983561864    12.000000000000
         C           -1.486452604114     0.828480068213    -0.408211561864    12.000000000000
         C            0.831892095886     0.788636068213     0.409965938136    12.000000000000
         C           -0.514988604114     0.265371068213     0.325678438136    12.000000000000
         C           -3.238047604114    -0.879234931787     0.335389438136    12.000000000000
         C            1.920344395886    -0.182478931787     0.026401438136    12.000000000000
         H           -3.572957604114     1.178180068213    -0.217870561864     1.007825032230
         H           -3.137952604114     0.146406068213    -1.560718561864     1.007825032230
         H           -1.245705604114     1.722201068213    -0.994091561864     1.007825032230
         H            0.988393395886     1.716512068213    -0.221938561864     1.007825032230
         H            1.106858395886     1.156295068213     1.432164438136     1.007825032230
         H           -0.703471604114    -0.641242931787     0.902546438136     1.007825032230
         H           -4.286037604114    -1.159341931787     0.211572438136     1.007825032230
         H           -2.621794604114    -1.733737931787     0.038055438136     1.007825032230
         H           -3.064327604114    -0.686590931787     1.399334438136     1.007825032230
         H            3.778292395886    -0.332082931787    -0.230115561864     1.007825032230

  Basis Set: AUG-CC-PVTZ
    Blend: AUG-CC-PVTZ
  Basis Set: (AUG-CC-PVTZ AUX)
    Blend: AUG-CC-PVTZ-JKFIT
	 Reference Energy          =    -382.8982194728321247 [Eh]
	 Singles Energy            =      -0.0000000000000000 [Eh]
	 Same-Spin Energy          =      -0.3837537179073220 [Eh]
	 Opposite-Spin Energy      =      -1.2552514008226674 [Eh]
	 Correlation Energy        =      -1.6390051187299894 [Eh]
	 Total Energy              =    -384.5372245915621079 [Eh]

	 ================> DF-SCS-MP2 Energies <==================
	-----------------------------------------------------------
	 SCS Same-Spin Scale       =       0.3333333333333333 [-]
	 SCS Opposite-Spin Scale   =       1.2000000000000000 [-]
	 SCS Same-Spin Energy      =      -0.1279179059691073 [Eh]
	 SCS Opposite-Spin Energy  =      -1.5063016809872007 [Eh]
	 SCS Correlation Energy    =      -1.6342195869563081 [Eh]
	 SCS Total Energy          =    -384.5324390597884303 [Eh]
	-----------------------------------------------------------

  Dipole Moment: [D]
     X:    -0.0753      Y:     1.3582      Z:     0.1811     Total:     1.3723

*** Psi4 exiting successfully. Buy a developer a beer!
