                               Psi4 1.3.2 release

  ==> Input File <==

--------------------------------------------------------------------------
#psi4
#
memory 32 gb

molecule  {
0 1
  O        3.1403167     0.4079443     0.0179156
  O        1.7018447    -1.3613801    -0.2030095
  C       -2.9163610     0.3476720    -0.5022120
  C       -1.4960630     0.8252950    -0.4074400
  C        0.8585340     0.8235180     0.4136200
  C       -0.5245990     0.2621860     0.3264500
  C       -3.2476580    -0.8824200     0.3361610
  C        1.9107340    -0.1856640     0.0271730
  H       -3.5825680     1.1749950    -0.2170990
  H       -3.1475630     0.1432210    -1.5599470
  H       -1.2553160     1.7190160    -0.9933200
  H        0.9787830     1.7133270    -0.2211670
  H        1.0972480     1.1531100     1.4329360
  H       -0.7130820    -0.6444280     0.9033180
  H       -4.2956480    -1.1625270     0.2123440
  H       -2.6314050    -1.7369230     0.0388270
  H       -3.0739380    -0.6897760     1.4001060
  H        3.7686820    -0.3352680    -0.2293440
units angstrom
no_reorient  #important for SAPT in psi4, default
symmetry c1  #important for SAPT in psi4, default
}

set PROPERTIES_ORIGIN ["COM"]
properties('MP2/aug-cc-pvtz', properties = ['dipole'])
--------------------------------------------------------------------------

    Molecular point group: c1
  Charge       = 0
  Multiplicity = 1
  Basis Set: AUG-CC-PVTZ
    Blend: AUG-CC-PVTZ
  Basis Set: (AUG-CC-PVTZ AUX)
    Blend: AUG-CC-PVTZ-JKFIT

    Orbital Energies [Eh]
    ---------------------

    Doubly Occupied:

       1A    -20.620558     2A    -20.554305     3A    -11.390771
       4A    -11.252072     5A    -11.234403     6A    -11.231194
       7A    -11.229401     8A    -11.214241     9A     -1.456746
      10A     -1.359730    11A     -1.101883    12A     -1.044217
      13A     -0.958913    14A     -0.868861    15A     -0.801907
      16A     -0.738165    17A     -0.703268    18A     -0.681937
      19A     -0.654295    20A     -0.625138    21A     -0.611558
      22A     -0.599166    23A     -0.581949    24A     -0.551430
      25A     -0.526917    26A     -0.497630    27A     -0.490729
      28A     -0.485920    29A     -0.480020    30A     -0.455725
      31A     -0.352936

  @DF-RHF Final Energy:  -382.90017184407884

   => Energetics <=

    Nuclear Repulsion Energy =            355.1763688608873508
    One-Electron Energy =               -1225.4411098013322317
    Two-Electron Energy =                 487.3645690963660400
    Total Energy =                       -382.9001718440788409
  Basis Set: (AUG-CC-PVTZ AUX)
    Blend: AUG-CC-PVTZ-RI
    Molecular point group: c1

    Geometry (in Angstrom), charge = 0, multiplicity = 1:

       Center              X                  Y                   Z               Mass
    ------------   -----------------  -----------------  -----------------  -----------------
         O            3.144615835339     0.404594447670     0.016713546229    15.994914619570
         O            1.706143835339    -1.364729952330    -0.204211553771    15.994914619570
         C           -2.912061864661     0.344322147670    -0.503414053771    12.000000000000
         C           -1.491763864661     0.821945147670    -0.408642053771    12.000000000000
         C            0.862833135339     0.820168147670     0.412417946229    12.000000000000
         C           -0.520299864661     0.258836147670     0.325247946229    12.000000000000
         C           -3.243358864661    -0.885769852330     0.334958946229    12.000000000000
         C            1.915033135339    -0.189013852330     0.025970946229    12.000000000000
         H           -3.578268864661     1.171645147670    -0.218301053771     1.007825032230
         H           -3.143263864661     0.139871147670    -1.561149053771     1.007825032230
         H           -1.251016864661     1.715666147670    -0.994522053771     1.007825032230
         H            0.983082135339     1.709977147670    -0.222369053771     1.007825032230
         H            1.101547135339     1.149760147670     1.431733946229     1.007825032230
         H           -0.708782864661    -0.647777852330     0.902115946229     1.007825032230
         H           -4.291348864661    -1.165876852330     0.211141946229     1.007825032230
         H           -2.627105864661    -1.740272852330     0.037624946229     1.007825032230
         H           -3.069638864661    -0.693125852330     1.398903946229     1.007825032230
         H            3.772981135339    -0.338617852330    -0.230546053771     1.007825032230

  Basis Set: AUG-CC-PVTZ
    Blend: AUG-CC-PVTZ
  Basis Set: (AUG-CC-PVTZ AUX)
    Blend: AUG-CC-PVTZ-JKFIT
	 Reference Energy          =    -382.9001718440788409 [Eh]
	 Singles Energy            =      -0.0000000000000000 [Eh]
	 Same-Spin Energy          =      -0.3836494852753880 [Eh]
	 Opposite-Spin Energy      =      -1.2556388411272654 [Eh]
	 Correlation Energy        =      -1.6392883264026534 [Eh]
	 Total Energy              =    -384.5394601704815045 [Eh]

	 ================> DF-SCS-MP2 Energies <==================
	-----------------------------------------------------------
	 SCS Same-Spin Scale       =       0.3333333333333333 [-]
	 SCS Opposite-Spin Scale   =       1.2000000000000000 [-]
	 SCS Same-Spin Energy      =      -0.1278831617584626 [Eh]
	 SCS Opposite-Spin Energy  =      -1.5067666093527186 [Eh]
	 SCS Correlation Energy    =      -1.6346497711111811 [Eh]
	 SCS Total Energy          =    -384.5348216151900260 [Eh]
	-----------------------------------------------------------

  Dipole Moment: [D]
     X:    -0.0616      Y:     1.3422      Z:     0.1890     Total:     1.3568

*** Psi4 exiting successfully. Buy a developer a beer!
