                               Psi4 1.4a3.dev225

  ==> Input File <==

--------------------------------------------------------------------------
#psi4
#
memory 32 gb

molecule  {
0 1
  O       -3.2271830    -0.3786580    -0.1569640
  O       -1.8275510     1.3993140    -0.2614160
  C        2.8225670    -0.4310850    -0.3953020
  C        1.4009980    -0.8942070    -0.2419560
  C       -0.9807690    -0.7586230     0.4926230
  C        0.4143070    -0.2269140     0.3719860
  C        3.1298050     0.9339520     0.2103920
  C       -2.0113430     0.2195500    -0.0192140
  H        3.4859920    -1.1868430     0.0468460
  H        3.0699840    -0.4203720    -1.4654230
  H        1.1737130    -1.8673930    -0.6818980
  H       -1.0998220    -1.7054460    -0.0447970
  H       -1.2414610    -0.9681590     1.5400430
  H        0.5929560     0.7502750     0.8121930
  H        4.1791340     1.1958370     0.0500290
  H        2.5131630     1.7137800    -0.2445400
  H        2.9424530     0.9385920     1.2876810
  H       -3.8192944     0.3140088    -0.4580004
units angstrom
no_reorient  #important for SAPT in psi4, default
symmetry c1  #important for SAPT in psi4, default
}

set PROPERTIES_ORIGIN ["COM"]
properties('MP2/aug-cc-pvtz', properties = ['dipole'])
--------------------------------------------------------------------------

    Molecular point group: c1
  Charge       = 0
  Multiplicity = 1
  Basis Set: AUG-CC-PVTZ
    Blend: AUG-CC-PVTZ
  Basis Set: (AUG-CC-PVTZ AUX)
    Blend: AUG-CC-PVTZ-JKFIT

    Orbital Energies [Eh]
    ---------------------

    Doubly Occupied:

       1A    -20.615123     2A    -20.552630     3A    -11.391580
       4A    -11.254843     5A    -11.235238     6A    -11.232059
       7A    -11.229900     8A    -11.214458     9A     -1.463067
      10A     -1.359306    11A     -1.103447    12A     -1.045922
      13A     -0.961427    14A     -0.871519    15A     -0.810422
      16A     -0.740293    17A     -0.705189    18A     -0.682818
      19A     -0.656196    20A     -0.625030    21A     -0.612820
      22A     -0.600756    23A     -0.582744    24A     -0.554362
      25A     -0.528758    26A     -0.498798    27A     -0.492588
      28A     -0.484734    29A     -0.479730    30A     -0.456066
      31A     -0.354643

  @DF-RHF Final Energy:  -382.90471033533646

   => Energetics <=

    Nuclear Repulsion Energy =            355.1122774124256125
    One-Electron Energy =               -1225.2410453490233522
    Two-Electron Energy =                 487.2240576012613360
    Total Energy =                       -382.9047103353364605
  Basis Set: (AUG-CC-PVTZ AUX)
    Blend: AUG-CC-PVTZ-RI
    Molecular point group: c1

    Geometry (in Angstrom), charge = 0, multiplicity = 1:

       Center              X                  Y                   Z               Mass
    ------------   -----------------  -----------------  -----------------  -----------------
         O           -3.125014797278    -0.389107828121    -0.149767586603    15.994914619570
         O           -1.725382797278     1.388864171879    -0.254219586603    15.994914619570
         C            2.924735202722    -0.441534828121    -0.388105586603    12.000000000000
         C            1.503166202722    -0.904656828121    -0.234759586603    12.000000000000
         C           -0.878600797278    -0.769072828121     0.499819413397    12.000000000000
         C            0.516475202722    -0.237363828121     0.379182413397    12.000000000000
         C            3.231973202722     0.923502171879     0.217588413397    12.000000000000
         C           -1.909174797278     0.209100171879    -0.012017586603    12.000000000000
         H            3.588160202722    -1.197292828121     0.054042413397     1.007825032230
         H            3.172152202722    -0.430821828121    -1.458226586603     1.007825032230
         H            1.275881202722    -1.877842828121    -0.674701586603     1.007825032230
         H           -0.997653797278    -1.715895828121    -0.037600586603     1.007825032230
         H           -1.139292797278    -0.978608828121     1.547239413397     1.007825032230
         H            0.695124202722     0.739825171879     0.819389413397     1.007825032230
         H            4.281302202722     1.185387171879     0.057225413397     1.007825032230
         H            2.615331202722     1.703330171879    -0.237343586603     1.007825032230
         H            3.044621202722     0.928142171879     1.294877413397     1.007825032230
         H           -3.717126197278     0.303558971879    -0.450803986603     1.007825032230

  Basis Set: AUG-CC-PVTZ
    Blend: AUG-CC-PVTZ
  Basis Set: (AUG-CC-PVTZ AUX)
    Blend: AUG-CC-PVTZ-JKFIT
	 Reference Energy          =    -382.9047103353364605 [Eh]
	 Singles Energy            =      -0.0000000000000000 [Eh]
	 Same-Spin Energy          =      -0.3827579462945171 [Eh]
	 Opposite-Spin Energy      =      -1.2536470426726343 [Eh]
	 Correlation Energy        =      -1.6364049889671515 [Eh]
	 Total Energy              =    -384.5411153243036324 [Eh]

	 ================> DF-SCS-MP2 Energies <==================
	-----------------------------------------------------------
	 SCS Same-Spin Scale       =       0.3333333333333333 [-]
	 SCS Opposite-Spin Scale   =       1.2000000000000000 [-]
	 SCS Same-Spin Energy      =      -0.1275859820981723 [Eh]
	 SCS Opposite-Spin Energy  =      -1.5043764512071611 [Eh]
	 SCS Correlation Energy    =      -1.6319624333053335 [Eh]
	 SCS Total Energy          =    -384.5366727686417789 [Eh]
	-----------------------------------------------------------

  Dipole Moment: [D]
     X:     0.1850      Y:    -1.4290      Z:     0.2472     Total:     1.4619

*** Psi4 exiting successfully. Buy a developer a beer!
