                               Psi4 1.4a3.dev225

  ==> Input File <==

--------------------------------------------------------------------------
#psi4
#
memory 32 gb

molecule  {
0 1
  O       -3.2271830    -0.3786580    -0.1569640
  O       -1.8275510     1.3993140    -0.2614160
  C        2.8225670    -0.4310850    -0.3953020
  C        1.4009980    -0.8942070    -0.2419560
  C       -0.9807690    -0.7586230     0.4926230
  C        0.4143070    -0.2269140     0.3719860
  C        3.1298050     0.9339520     0.2103920
  C       -2.0113430     0.2195500    -0.0192140
  H        3.4859920    -1.1868430     0.0468460
  H        3.0699840    -0.4203720    -1.4654230
  H        1.1695500    -1.8852182    -0.6899561
  H       -1.0998220    -1.7054460    -0.0447970
  H       -1.2414610    -0.9681590     1.5400430
  H        0.5929560     0.7502750     0.8121930
  H        4.1791340     1.1958370     0.0500290
  H        2.5131630     1.7137800    -0.2445400
  H        2.9424530     0.9385920     1.2876810
  H       -3.8316340     0.3284440    -0.4642740
units angstrom
no_reorient  #important for SAPT in psi4, default
symmetry c1  #important for SAPT in psi4, default
}

set PROPERTIES_ORIGIN ["COM"]
properties('MP2/aug-cc-pvtz', properties = ['dipole'])
--------------------------------------------------------------------------

    Molecular point group: c1
  Charge       = 0
  Multiplicity = 1
  Basis Set: AUG-CC-PVTZ
    Blend: AUG-CC-PVTZ
  Basis Set: (AUG-CC-PVTZ AUX)
    Blend: AUG-CC-PVTZ-JKFIT

    Orbital Energies [Eh]
    ---------------------

    Doubly Occupied:

       1A    -20.616424     2A    -20.552246     3A    -11.391204
       4A    -11.254747     5A    -11.237459     6A    -11.232283
       7A    -11.230099     8A    -11.214585     9A     -1.460031
      10A     -1.357339    11A     -1.102998    12A     -1.045642
      13A     -0.960444    14A     -0.870528    15A     -0.807486
      16A     -0.738248    17A     -0.702966    18A     -0.682116
      19A     -0.655790    20A     -0.623821    21A     -0.612892
      22A     -0.599349    23A     -0.581455    24A     -0.554102
      25A     -0.528720    26A     -0.498873    27A     -0.492601
      28A     -0.483935    29A     -0.478729    30A     -0.455662
      31A     -0.354719

  @DF-RHF Final Energy:  -382.90320388537378

   => Energetics <=

    Nuclear Repulsion Energy =            354.8992817733912943
    One-Electron Energy =               -1224.8499890777743531
    Two-Electron Energy =                 487.0475034190092742
    Total Energy =                       -382.9032038853737845
  Basis Set: (AUG-CC-PVTZ AUX)
    Blend: AUG-CC-PVTZ-RI
    Molecular point group: c1

    Geometry (in Angstrom), charge = 0, multiplicity = 1:

       Center              X                  Y                   Z               Mass
    ------------   -----------------  -----------------  -----------------  -----------------
         O           -3.124868991954    -0.389077876474    -0.149640961818    15.994914619570
         O           -1.725236991954     1.388894123526    -0.254092961818    15.994914619570
         C            2.924881008046    -0.441504876474    -0.387978961818    12.000000000000
         C            1.503312008046    -0.904626876474    -0.234632961818    12.000000000000
         C           -0.878454991954    -0.769042876474     0.499946038182    12.000000000000
         C            0.516621008046    -0.237333876474     0.379309038182    12.000000000000
         C            3.232119008046     0.923532123526     0.217715038182    12.000000000000
         C           -1.909028991954     0.209130123526    -0.011890961818    12.000000000000
         H            3.588306008046    -1.197262876474     0.054169038182     1.007825032230
         H            3.172298008046    -0.430791876474    -1.458099961818     1.007825032230
         H            1.271864008046    -1.895638076474    -0.682633061818     1.007825032230
         H           -0.997507991954    -1.715865876474    -0.037473961818     1.007825032230
         H           -1.139146991954    -0.978578876474     1.547366038182     1.007825032230
         H            0.695270008046     0.739855123526     0.819516038182     1.007825032230
         H            4.281448008046     1.185417123526     0.057352038182     1.007825032230
         H            2.615477008046     1.703360123526    -0.237216961818     1.007825032230
         H            3.044767008046     0.928172123526     1.295004038182     1.007825032230
         H           -3.729319991954     0.318024123526    -0.456950961818     1.007825032230

  Basis Set: AUG-CC-PVTZ
    Blend: AUG-CC-PVTZ
  Basis Set: (AUG-CC-PVTZ AUX)
    Blend: AUG-CC-PVTZ-JKFIT
	 Reference Energy          =    -382.9032038853737845 [Eh]
	 Singles Energy            =      -0.0000000000000000 [Eh]
	 Same-Spin Energy          =      -0.3830506565459359 [Eh]
	 Opposite-Spin Energy      =      -1.2543813968147053 [Eh]
	 Correlation Energy        =      -1.6374320533606412 [Eh]
	 Total Energy              =    -384.5406359387344537 [Eh]

	 ================> DF-SCS-MP2 Energies <==================
	-----------------------------------------------------------
	 SCS Same-Spin Scale       =       0.3333333333333333 [-]
	 SCS Opposite-Spin Scale   =       1.2000000000000000 [-]
	 SCS Same-Spin Energy      =      -0.1276835521819786 [Eh]
	 SCS Opposite-Spin Energy  =      -1.5052576761776464 [Eh]
	 SCS Correlation Energy    =      -1.6329412283596250 [Eh]
	 SCS Total Energy          =    -384.5361451137334257 [Eh]
	-----------------------------------------------------------

  Dipole Moment: [D]
     X:     0.1712      Y:    -1.4055      Z:     0.2442     Total:     1.4368

*** Psi4 exiting successfully. Buy a developer a beer!
