                               Psi4 1.3.2 release

  ==> Input File <==

--------------------------------------------------------------------------
#psi4
#
memory 32 gb

molecule  {
0 1
  O        3.1501630     0.3869830     0.0122970
  O        1.7226580    -1.3643080    -0.2059640
  C       -2.9163610     0.3476720    -0.5022120
  C       -1.4960630     0.8252950    -0.4074400
  C        0.8585340     0.8235180     0.4136200
  C       -0.5970191     0.3041643     0.2717404
  C       -3.2476580    -0.8824200     0.3361610
  C        1.9107340    -0.1856640     0.0271730
  H       -3.5825680     1.1749950    -0.2170990
  H       -3.1475630     0.1432210    -1.5599470
  H       -1.2553160     1.7190160    -0.9933200
  H        0.9787830     1.7133270    -0.2211670
  H        1.0972480     1.1531100     1.4329360
  H       -0.7130820    -0.6444280     0.9033180
  H       -4.2956480    -1.1625270     0.2123440
  H       -2.6314050    -1.7369230     0.0388270
  H       -3.0739380    -0.6897760     1.4001060
  H        3.7686820    -0.3352680    -0.2293440
units angstrom
no_reorient  #important for SAPT in psi4, default
symmetry c1  #important for SAPT in psi4, default
}

set PROPERTIES_ORIGIN ["COM"]
properties('MP2/aug-cc-pvtz', properties = ['dipole'])
--------------------------------------------------------------------------

    Molecular point group: c1
  Charge       = 0
  Multiplicity = 1
  Basis Set: AUG-CC-PVTZ
    Blend: AUG-CC-PVTZ
  Basis Set: (AUG-CC-PVTZ AUX)
    Blend: AUG-CC-PVTZ-JKFIT

    Orbital Energies [Eh]
    ---------------------

    Doubly Occupied:

       1A    -20.616193     2A    -20.552636     3A    -11.391375
       4A    -11.256145     5A    -11.229197     6A    -11.226678
       7A    -11.219114     8A    -11.214107     9A     -1.458775
      10A     -1.358056    11A     -1.113614    12A     -1.040018
      13A     -0.974247    14A     -0.867002    15A     -0.808519
      16A     -0.728858    17A     -0.702276    18A     -0.680907
      19A     -0.653520    20A     -0.626839    21A     -0.612657
      22A     -0.604817    23A     -0.582821    24A     -0.556708
      25A     -0.516860    26A     -0.498838    27A     -0.493986
      28A     -0.483521    29A     -0.462532    30A     -0.454263
      31A     -0.380333

  @DF-RHF Final Energy:  -382.89056241270589

   => Energetics <=

    Nuclear Repulsion Energy =            355.5179946524688717
    One-Electron Energy =               -1226.0862879611381686
    Two-Electron Energy =                 487.6777308959634638
    Total Energy =                       -382.8905624127058900
  Basis Set: (AUG-CC-PVTZ AUX)
    Blend: AUG-CC-PVTZ-RI
    Molecular point group: c1

    Geometry (in Angstrom), charge = 0, multiplicity = 1:

       Center              X                  Y                   Z               Mass
    ------------   -----------------  -----------------  -----------------  -----------------
         O            3.157781587347     0.382566820560     0.018052556155    15.994914619570
         O            1.730276587347    -1.368724179440    -0.200208443845    15.994914619570
         C           -2.908742412653     0.343255820560    -0.496456443845    12.000000000000
         C           -1.488444412653     0.820878820560    -0.401684443845    12.000000000000
         C            0.866152587347     0.819101820560     0.419375556155    12.000000000000
         C           -0.589400512653     0.299748120560     0.277495956155    12.000000000000
         C           -3.240039412653    -0.886836179440     0.341916556155    12.000000000000
         C            1.918352587347    -0.190080179440     0.032928556155    12.000000000000
         H           -3.574949412653     1.170578820560    -0.211343443845     1.007825032230
         H           -3.139944412653     0.138804820560    -1.554191443845     1.007825032230
         H           -1.247697412653     1.714599820560    -0.987564443845     1.007825032230
         H            0.986401587347     1.708910820560    -0.215411443845     1.007825032230
         H            1.104866587347     1.148693820560     1.438691556155     1.007825032230
         H           -0.705463412653    -0.648844179440     0.909073556155     1.007825032230
         H           -4.288029412653    -1.166943179440     0.218099556155     1.007825032230
         H           -2.623786412653    -1.741339179440     0.044582556155     1.007825032230
         H           -3.066319412653    -0.694192179440     1.405861556155     1.007825032230
         H            3.776300587347    -0.339684179440    -0.223588443845     1.007825032230

  Basis Set: AUG-CC-PVTZ
    Blend: AUG-CC-PVTZ
  Basis Set: (AUG-CC-PVTZ AUX)
    Blend: AUG-CC-PVTZ-JKFIT
	 Reference Energy          =    -382.8905624127058900 [Eh]
	 Singles Energy            =      -0.0000000000000000 [Eh]
	 Same-Spin Energy          =      -0.3822915487106624 [Eh]
	 Opposite-Spin Energy      =      -1.2524830825635593 [Eh]
	 Correlation Energy        =      -1.6347746312742217 [Eh]
	 Total Energy              =    -384.5253370439801301 [Eh]

	 ================> DF-SCS-MP2 Energies <==================
	-----------------------------------------------------------
	 SCS Same-Spin Scale       =       0.3333333333333333 [-]
	 SCS Opposite-Spin Scale   =       1.2000000000000000 [-]
	 SCS Same-Spin Energy      =      -0.1274305162368874 [Eh]
	 SCS Opposite-Spin Energy  =      -1.5029796990762712 [Eh]
	 SCS Correlation Energy    =      -1.6304102153131586 [Eh]
	 SCS Total Energy          =    -384.5209726280190239 [Eh]
	-----------------------------------------------------------

  Dipole Moment: [D]
     X:    -0.1768      Y:     1.4047      Z:     0.1997     Total:     1.4298

*** Psi4 exiting successfully. Buy a developer a beer!
