                               Psi4 1.4a3.dev225

  ==> Input File <==

--------------------------------------------------------------------------
#psi4
#
memory 32 gb

molecule  {
0 1
  O       -3.2271830    -0.3786580    -0.1569640
  O       -1.8275510     1.3993140    -0.2614160
  C        2.8225670    -0.4310850    -0.3953020
  C        1.4009980    -0.8942070    -0.2419560
  C       -0.9807690    -0.7586230     0.4926230
  C        0.4143070    -0.2269140     0.3719860
  C        3.1298050     0.9339520     0.2103920
  C       -2.0083258     0.2389172    -0.0231900
  H        3.4859920    -1.1868430     0.0468460
  H        3.0699840    -0.4203720    -1.4654230
  H        1.1737130    -1.8673930    -0.6818980
  H       -1.0998220    -1.7054460    -0.0447970
  H       -1.2414610    -0.9681590     1.5400430
  H        0.5929560     0.7502750     0.8121930
  H        4.1791340     1.1958370     0.0500290
  H        2.5131630     1.7137800    -0.2445400
  H        2.9424530     0.9385920     1.2876810
  H       -3.8316340     0.3284440    -0.4642740
units angstrom
no_reorient  #important for SAPT in psi4, default
symmetry c1  #important for SAPT in psi4, default
}

set PROPERTIES_ORIGIN ["COM"]
properties('MP2/aug-cc-pvtz', properties = ['dipole'])
--------------------------------------------------------------------------

    Molecular point group: c1
  Charge       = 0
  Multiplicity = 1
  Basis Set: AUG-CC-PVTZ
    Blend: AUG-CC-PVTZ
  Basis Set: (AUG-CC-PVTZ AUX)
    Blend: AUG-CC-PVTZ-JKFIT

    Orbital Energies [Eh]
    ---------------------

    Doubly Occupied:

       1A    -20.613035     2A    -20.555927     3A    -11.389450
       4A    -11.254017     5A    -11.234771     6A    -11.231463
       7A    -11.229696     8A    -11.214451     9A     -1.461298
      10A     -1.365579    11A     -1.102335    12A     -1.043836
      13A     -0.958847    14A     -0.869331    15A     -0.803769
      16A     -0.740052    17A     -0.704517    18A     -0.682861
      19A     -0.655010    20A     -0.623830    21A     -0.612759
      22A     -0.601966    23A     -0.583235    24A     -0.553000
      25A     -0.528130    26A     -0.498752    27A     -0.492912
      28A     -0.489073    29A     -0.480820    30A     -0.456446
      31A     -0.353928

  @DF-RHF Final Energy:  -382.90455911945304

   => Energetics <=

    Nuclear Repulsion Energy =            355.0702782321948234
    One-Electron Energy =               -1225.1794832130533450
    Two-Electron Energy =                 487.2046458614054814
    Total Energy =                       -382.9045591194530402
  Basis Set: (AUG-CC-PVTZ AUX)
    Blend: AUG-CC-PVTZ-RI
    Molecular point group: c1

    Geometry (in Angstrom), charge = 0, multiplicity = 1:

       Center              X                  Y                   Z               Mass
    ------------   -----------------  -----------------  -----------------  -----------------
         O           -3.125223183729    -0.391272803256    -0.149293880976    15.994914619570
         O           -1.725591183729     1.386699196744    -0.253745880976    15.994914619570
         C            2.924526816271    -0.443699803256    -0.387631880976    12.000000000000
         C            1.502957816271    -0.906821803256    -0.234285880976    12.000000000000
         C           -0.878809183729    -0.771237803256     0.500293119024    12.000000000000
         C            0.516266816271    -0.239528803256     0.379656119024    12.000000000000
         C            3.231764816271     0.921337196744     0.218062119024    12.000000000000
         C           -1.906365983729     0.226302396744    -0.015519880976    12.000000000000
         H            3.587951816271    -1.199457803256     0.054516119024     1.007825032230
         H            3.171943816271    -0.432986803256    -1.457752880976     1.007825032230
         H            1.275672816271    -1.880007803256    -0.674227880976     1.007825032230
         H           -0.997862183729    -1.718060803256    -0.037126880976     1.007825032230
         H           -1.139501183729    -0.980773803256     1.547713119024     1.007825032230
         H            0.694915816271     0.737660196744     0.819863119024     1.007825032230
         H            4.281093816271     1.183222196744     0.057699119024     1.007825032230
         H            2.615122816271     1.701165196744    -0.236869880976     1.007825032230
         H            3.044412816271     0.925977196744     1.295351119024     1.007825032230
         H           -3.729674183729     0.315829196744    -0.456603880976     1.007825032230

  Basis Set: AUG-CC-PVTZ
    Blend: AUG-CC-PVTZ
  Basis Set: (AUG-CC-PVTZ AUX)
    Blend: AUG-CC-PVTZ-JKFIT
	 Reference Energy          =    -382.9045591194530402 [Eh]
	 Singles Energy            =      -0.0000000000000000 [Eh]
	 Same-Spin Energy          =      -0.3826545438576316 [Eh]
	 Opposite-Spin Energy      =      -1.2535999289770035 [Eh]
	 Correlation Energy        =      -1.6362544728346351 [Eh]
	 Total Energy              =    -384.5408135922876909 [Eh]

	 ================> DF-SCS-MP2 Energies <==================
	-----------------------------------------------------------
	 SCS Same-Spin Scale       =       0.3333333333333333 [-]
	 SCS Opposite-Spin Scale   =       1.2000000000000000 [-]
	 SCS Same-Spin Energy      =      -0.1275515146192105 [Eh]
	 SCS Opposite-Spin Energy  =      -1.5043199147724040 [Eh]
	 SCS Correlation Energy    =      -1.6318714293916146 [Eh]
	 SCS Total Energy          =    -384.5364305488446348 [Eh]
	-----------------------------------------------------------

  Dipole Moment: [D]
     X:     0.2099      Y:    -1.2889      Z:     0.2219     Total:     1.3246

*** Psi4 exiting successfully. Buy a developer a beer!
