                               Psi4 1.4a2.dev612

  ==> Input File <==

--------------------------------------------------------------------------
#psi4
#
memory 32 gb

molecule  {
1 1
  O       -1.6624030     0.8291070    -0.2765410
  O       -1.1238540    -1.2691650     0.4354900
  N        1.4473370    -1.0090820    -0.1563980
  C        0.6156190     0.2401025    -0.3038547
  C        1.1187320     1.3933860     0.3994720
  C       -0.8221020    -0.1825100    -0.0303730
  H        0.6501100     0.4122580    -1.4678430
  H        1.1192750    -1.8168460    -0.6997980
  H        1.4281670    -1.2902280     0.8311830
  H        2.4275310    -0.8373030    -0.4139920
  H        1.0757850     1.1947520     1.4730540
  H        0.4939250     2.2572030     0.1746130
  H        2.1464930     1.6243000     0.1133420
  H       -2.5686030     0.5447890    -0.0239170
units angstrom
no_reorient  #important for SAPT in psi4, default
symmetry c1  #important for SAPT in psi4, default
}

set PROPERTIES_ORIGIN ["COM"]
properties('MP2/aug-cc-pvtz', properties = ['dipole'])
--------------------------------------------------------------------------

    Molecular point group: c1
  Charge       = 1
  Multiplicity = 1
  Basis Set: AUG-CC-PVTZ
    Blend: AUG-CC-PVTZ
  Basis Set: (AUG-CC-PVTZ AUX)
    Blend: AUG-CC-PVTZ-JKFIT

    Orbital Energies [Eh]
    ---------------------

    Doubly Occupied:

       1A    -20.787212     2A    -20.734997     3A    -15.899771
       4A    -11.577003     5A    -11.514371     6A    -11.412737
       7A     -1.639511     8A     -1.544326     9A     -1.514470
      10A     -1.269467    11A     -1.110062    12A     -1.005954
      13A     -0.979209    14A     -0.966530    15A     -0.884852
      16A     -0.861653    17A     -0.835637    18A     -0.818738
      19A     -0.774984    20A     -0.753823    21A     -0.736765
      22A     -0.698969    23A     -0.657116    24A     -0.634350

  @DF-RHF Final Energy:  -322.34655212488610

   => Energetics <=

    Nuclear Repulsion Energy =            260.7441549891453292
    One-Electron Energy =                -946.9564010660916438
    Two-Electron Energy =                 363.8656939520601554
    Total Energy =                       -322.3465521248861023
  Basis Set: (AUG-CC-PVTZ AUX)
    Blend: AUG-CC-PVTZ-RI
    Molecular point group: c1

    Geometry (in Angstrom), charge = 1, multiplicity = 1:

       Center              X                  Y                   Z               Mass
    ------------   -----------------  -----------------  -----------------  -----------------
         O           -1.589935377408     0.847450433666    -0.288997673333    15.994914619570
         O           -1.051386377408    -1.250821566334     0.423033326667    15.994914619570
         N            1.519804622592    -0.990738566334    -0.168854673333    14.003074004430
         C            0.688086622592     0.258445933666    -0.316311373333    12.000000000000
         C            1.191199622592     1.411729433666     0.387015326667    12.000000000000
         C           -0.749634377408    -0.164166566334    -0.042829673333    12.000000000000
         H            0.722577622592     0.430601433666    -1.480299673333     1.007825032230
         H            1.191742622592    -1.798502566334    -0.712254673333     1.007825032230
         H            1.500634622592    -1.271884566334     0.818726326667     1.007825032230
         H            2.499998622592    -0.818959566334    -0.426448673333     1.007825032230
         H            1.148252622592     1.213095433666     1.460597326667     1.007825032230
         H            0.566392622592     2.275546433666     0.162156326667     1.007825032230
         H            2.218960622592     1.642643433666     0.100885326667     1.007825032230
         H           -2.496135377408     0.563132433666    -0.036373673333     1.007825032230

  Basis Set: AUG-CC-PVTZ
    Blend: AUG-CC-PVTZ
  Basis Set: (AUG-CC-PVTZ AUX)
    Blend: AUG-CC-PVTZ-JKFIT
	 Reference Energy          =    -322.3465521248861023 [Eh]
	 Singles Energy            =      -0.0000000000000000 [Eh]
	 Same-Spin Energy          =      -0.3125655987337522 [Eh]
	 Opposite-Spin Energy      =      -0.9990328173578547 [Eh]
	 Correlation Energy        =      -1.3115984160916070 [Eh]
	 Total Energy              =    -323.6581505409777151 [Eh]

	 ================> DF-SCS-MP2 Energies <==================
	-----------------------------------------------------------
	 SCS Same-Spin Scale       =       0.3333333333333333 [-]
	 SCS Opposite-Spin Scale   =       1.2000000000000000 [-]
	 SCS Same-Spin Energy      =      -0.1041885329112507 [Eh]
	 SCS Opposite-Spin Energy  =      -1.1988393808294255 [Eh]
	 SCS Correlation Energy    =      -1.3030279137406762 [Eh]
	 SCS Total Energy          =    -323.6495800386267661 [Eh]
	-----------------------------------------------------------

  Dipole Moment: [D]
     X:     5.6697      Y:    -1.1659      Z:    -1.0501     Total:     5.8828

*** Psi4 exiting successfully. Buy a developer a beer!
