                               Psi4 1.4a2.dev612

  ==> Input File <==

--------------------------------------------------------------------------
#psi4
#
memory 32 gb

molecule  {
1 1
  O       -1.6624030     0.8291070    -0.2765410
  O       -1.1238540    -1.2691650     0.4354900
  N        1.4473370    -1.0090820    -0.1563980
  C        0.6447809     0.3103555    -0.1188842
  C        1.1187320     1.3933860     0.3994720
  C       -0.8221020    -0.1825100    -0.0303730
  H        0.6501100     0.4122580    -1.4678430
  H        1.1192750    -1.8168460    -0.6997980
  H        1.4281670    -1.2902280     0.8311830
  H        2.4275310    -0.8373030    -0.4139920
  H        1.0757850     1.1947520     1.4730540
  H        0.4939250     2.2572030     0.1746130
  H        2.1464930     1.6243000     0.1133420
  H       -2.5686030     0.5447890    -0.0239170
units angstrom
no_reorient  #important for SAPT in psi4, default
symmetry c1  #important for SAPT in psi4, default
}

set PROPERTIES_ORIGIN ["COM"]
properties('MP2/aug-cc-pvtz', properties = ['dipole'])
--------------------------------------------------------------------------

    Molecular point group: c1
  Charge       = 1
  Multiplicity = 1
  Basis Set: AUG-CC-PVTZ
    Blend: AUG-CC-PVTZ
  Basis Set: (AUG-CC-PVTZ AUX)
    Blend: AUG-CC-PVTZ-JKFIT

    Orbital Energies [Eh]
    ---------------------

    Doubly Occupied:

       1A    -20.787459     2A    -20.735989     3A    -15.897424
       4A    -11.582537     5A    -11.528899     6A    -11.408281
       7A     -1.639691     8A     -1.543797     9A     -1.509218
      10A     -1.310921    11A     -1.110565    12A     -0.997643
      13A     -0.972891    14A     -0.964317    15A     -0.884195
      16A     -0.865806    17A     -0.845280    18A     -0.825678
      19A     -0.790122    20A     -0.771446    21A     -0.736283
      22A     -0.664213    23A     -0.655249    24A     -0.612006

  @DF-RHF Final Energy:  -322.25737796582359

   => Energetics <=

    Nuclear Repulsion Energy =            261.4832241204468346
    One-Electron Energy =                -948.2013878373008993
    Two-Electron Energy =                 364.4607857510304711
    Total Energy =                       -322.2573779658235935
  Basis Set: (AUG-CC-PVTZ AUX)
    Blend: AUG-CC-PVTZ-RI
    Molecular point group: c1

    Geometry (in Angstrom), charge = 1, multiplicity = 1:

       Center              X                  Y                   Z               Mass
    ------------   -----------------  -----------------  -----------------  -----------------
         O           -1.593821234312     0.838089140161    -0.313645206395    15.994914619570
         O           -1.055272234312    -1.260182859839     0.398385793605    15.994914619570
         N            1.515918765688    -1.000099859839    -0.193502206395    14.003074004430
         C            0.713362665688     0.319337640161    -0.155988406395    12.000000000000
         C            1.187313765688     1.402368140161     0.362367793605    12.000000000000
         C           -0.753520234312    -0.173527859839    -0.067477206395    12.000000000000
         H            0.718691765688     0.421240140161    -1.504947206395     1.007825032230
         H            1.187856765688    -1.807863859839    -0.736902206395     1.007825032230
         H            1.496748765688    -1.281245859839     0.794078793605     1.007825032230
         H            2.496112765688    -0.828320859839    -0.451096206395     1.007825032230
         H            1.144366765688     1.203734140161     1.435949793605     1.007825032230
         H            0.562506765688     2.266185140161     0.137508793605     1.007825032230
         H            2.215074765688     1.633282140161     0.076237793605     1.007825032230
         H           -2.500021234312     0.553771140161    -0.061021206395     1.007825032230

  Basis Set: AUG-CC-PVTZ
    Blend: AUG-CC-PVTZ
  Basis Set: (AUG-CC-PVTZ AUX)
    Blend: AUG-CC-PVTZ-JKFIT
	 Reference Energy          =    -322.2573779658235935 [Eh]
	 Singles Energy            =      -0.0000000000000000 [Eh]
	 Same-Spin Energy          =      -0.3163435255842924 [Eh]
	 Opposite-Spin Energy      =      -1.0056944162397519 [Eh]
	 Correlation Energy        =      -1.3220379418240442 [Eh]
	 Total Energy              =    -323.5794159076476149 [Eh]

	 ================> DF-SCS-MP2 Energies <==================
	-----------------------------------------------------------
	 SCS Same-Spin Scale       =       0.3333333333333333 [-]
	 SCS Opposite-Spin Scale   =       1.2000000000000000 [-]
	 SCS Same-Spin Energy      =      -0.1054478418614308 [Eh]
	 SCS Opposite-Spin Energy  =      -1.2068332994877022 [Eh]
	 SCS Correlation Energy    =      -1.3122811413491331 [Eh]
	 SCS Total Energy          =    -323.5696591071727539 [Eh]
	-----------------------------------------------------------

  Dipole Moment: [D]
     X:     5.6734      Y:    -0.9425      Z:    -0.8242     Total:     5.8099

*** Psi4 exiting successfully. Buy a developer a beer!
