                               Psi4 1.4a2.dev612

  ==> Input File <==

--------------------------------------------------------------------------
#psi4
#
memory 32 gb

molecule  {
1 1
  O       -1.6624030     0.8291070    -0.2765410
  O       -1.1238540    -1.2691650     0.4354900
  N        1.4473370    -1.0090820    -0.1563980
  C        0.6302000     0.2752290    -0.2113695
  C        1.1187320     1.3933860     0.3994720
  C       -0.8221020    -0.1825100    -0.0303730
  H        0.6501100     0.4122580    -1.4678430
  H        1.1192750    -1.8168460    -0.6997980
  H        1.4281670    -1.2902280     0.8311830
  H        2.4275310    -0.8373030    -0.4139920
  H        1.0757850     1.1947520     1.4730540
  H        0.4939250     2.2572030     0.1746130
  H        2.1464930     1.6243000     0.1133420
  H       -2.5686030     0.5447890    -0.0239170
units angstrom
no_reorient  #important for SAPT in psi4, default
symmetry c1  #important for SAPT in psi4, default
}

set PROPERTIES_ORIGIN ["COM"]
properties('MP2/aug-cc-pvtz', properties = ['dipole'])
--------------------------------------------------------------------------

    Molecular point group: c1
  Charge       = 1
  Multiplicity = 1
  Basis Set: AUG-CC-PVTZ
    Blend: AUG-CC-PVTZ
  Basis Set: (AUG-CC-PVTZ AUX)
    Blend: AUG-CC-PVTZ-JKFIT

    Orbital Energies [Eh]
    ---------------------

    Doubly Occupied:

       1A    -20.787398     2A    -20.735526     3A    -15.898850
       4A    -11.579161     5A    -11.520963     6A    -11.409813
       7A     -1.639689     8A     -1.544140     9A     -1.512387
      10A     -1.287677    11A     -1.111290    12A     -1.000826
      13A     -0.977198    14A     -0.966106    15A     -0.884200
      16A     -0.863395    17A     -0.831803    18A     -0.826405
      19A     -0.781592    20A     -0.765467    21A     -0.737360
      22A     -0.678623    23A     -0.657283    24A     -0.627596

  @DF-RHF Final Energy:  -322.31273738414490

   => Energetics <=

    Nuclear Repulsion Energy =            261.1490636320745011
    One-Electron Energy =                -947.6741034964775281
    Two-Electron Energy =                 364.2123024802580744
    Total Energy =                       -322.3127373841448957
  Basis Set: (AUG-CC-PVTZ AUX)
    Blend: AUG-CC-PVTZ-RI
    Molecular point group: c1

    Geometry (in Angstrom), charge = 1, multiplicity = 1:

       Center              X                  Y                   Z               Mass
    ------------   -----------------  -----------------  -----------------  -----------------
         O           -1.591878312522     0.842769786914    -0.301321433201    15.994914619570
         O           -1.053329312522    -1.255502213086     0.410709566799    15.994914619570
         N            1.517861687478    -0.995419213086    -0.181178433201    14.003074004430
         C            0.700724687478     0.288891786914    -0.236149933201    12.000000000000
         C            1.189256687478     1.407048786914     0.374691566799    12.000000000000
         C           -0.751577312522    -0.168847213086    -0.055153433201    12.000000000000
         H            0.720634687478     0.425920786914    -1.492623433201     1.007825032230
         H            1.189799687478    -1.803183213086    -0.724578433201     1.007825032230
         H            1.498691687478    -1.276565213086     0.806402566799     1.007825032230
         H            2.498055687478    -0.823640213086    -0.438772433201     1.007825032230
         H            1.146309687478     1.208414786914     1.448273566799     1.007825032230
         H            0.564449687478     2.270865786914     0.149832566799     1.007825032230
         H            2.217017687478     1.637962786914     0.088561566799     1.007825032230
         H           -2.498078312522     0.558451786914    -0.048697433201     1.007825032230

  Basis Set: AUG-CC-PVTZ
    Blend: AUG-CC-PVTZ
  Basis Set: (AUG-CC-PVTZ AUX)
    Blend: AUG-CC-PVTZ-JKFIT
	 Reference Energy          =    -322.3127373841448957 [Eh]
	 Singles Energy            =      -0.0000000000000000 [Eh]
	 Same-Spin Energy          =      -0.3141388129131637 [Eh]
	 Opposite-Spin Energy      =      -1.0017392757650896 [Eh]
	 Correlation Energy        =      -1.3158780886782533 [Eh]
	 Total Energy              =    -323.6286154728231281 [Eh]

	 ================> DF-SCS-MP2 Energies <==================
	-----------------------------------------------------------
	 SCS Same-Spin Scale       =       0.3333333333333333 [-]
	 SCS Opposite-Spin Scale   =       1.2000000000000000 [-]
	 SCS Same-Spin Energy      =      -0.1047129376377212 [Eh]
	 SCS Opposite-Spin Energy  =      -1.2020871309181074 [Eh]
	 SCS Correlation Energy    =      -1.3068000685558285 [Eh]
	 SCS Total Energy          =    -323.6195374527007402 [Eh]
	-----------------------------------------------------------

  Dipole Moment: [D]
     X:     5.6651      Y:    -1.0783      Z:    -0.9671     Total:     5.8473

*** Psi4 exiting successfully. Buy a developer a beer!
