                               Psi4 1.4a2.dev612

  ==> Input File <==

--------------------------------------------------------------------------
#psi4
#
memory 32 gb

molecule  {
1 1
  O       -1.6624030     0.8291070    -0.2765410
  O       -1.1238540    -1.2691650     0.4354900
  N        1.4473370    -1.0090820    -0.1563980
  C        0.6229095     0.2576657    -0.2576121
  C        1.1187320     1.3933860     0.3994720
  C       -0.8221020    -0.1825100    -0.0303730
  H        0.6501100     0.4122580    -1.4678430
  H        1.1192750    -1.8168460    -0.6997980
  H        1.4281670    -1.2902280     0.8311830
  H        2.4275310    -0.8373030    -0.4139920
  H        1.0757850     1.1947520     1.4730540
  H        0.4939250     2.2572030     0.1746130
  H        2.1464930     1.6243000     0.1133420
  H       -2.5686030     0.5447890    -0.0239170
units angstrom
no_reorient  #important for SAPT in psi4, default
symmetry c1  #important for SAPT in psi4, default
}

set PROPERTIES_ORIGIN ["COM"]
properties('MP2/aug-cc-pvtz', properties = ['dipole'])
--------------------------------------------------------------------------

    Molecular point group: c1
  Charge       = 1
  Multiplicity = 1
  Basis Set: AUG-CC-PVTZ
    Blend: AUG-CC-PVTZ
  Basis Set: (AUG-CC-PVTZ AUX)
    Blend: AUG-CC-PVTZ-JKFIT

    Orbital Energies [Eh]
    ---------------------

    Doubly Occupied:

       1A    -20.787321     2A    -20.735267     3A    -15.899356
       4A    -11.577926     5A    -11.517490     6A    -11.411141
       7A     -1.639622     8A     -1.544258     9A     -1.513565
      10A     -1.277950    11A     -1.110881    12A     -1.003150
      13A     -0.978498    14A     -0.966478    15A     -0.884425
      16A     -0.862496    17A     -0.831625    18A     -0.823466
      19A     -0.777771    20A     -0.760657    21A     -0.737221
      22A     -0.688712    23A     -0.657285    24A     -0.631758

  @DF-RHF Final Energy:  -322.33231570563623

   => Energetics <=

    Nuclear Repulsion Energy =            260.9558915993691244
    One-Electron Energy =                -947.3397728040067705
    Two-Electron Energy =                 364.0515654990014127
    Total Energy =                       -322.3323157056362334
  Basis Set: (AUG-CC-PVTZ AUX)
    Blend: AUG-CC-PVTZ-RI
    Molecular point group: c1

    Geometry (in Angstrom), charge = 1, multiplicity = 1:

       Center              X                  Y                   Z               Mass
    ------------   -----------------  -----------------  -----------------  -----------------
         O           -1.590906844965     0.845110116952    -0.295159553267    15.994914619570
         O           -1.052357844965    -1.253161883048     0.416871446733    15.994914619570
         N            1.518833155035    -0.993078883048    -0.175016553267    14.003074004430
         C            0.694405655035     0.273668816952    -0.276230653267    12.000000000000
         C            1.190228155035     1.409389116952     0.380853446733    12.000000000000
         C           -0.750605844965    -0.166506883048    -0.048991553267    12.000000000000
         H            0.721606155035     0.428261116952    -1.486461553267     1.007825032230
         H            1.190771155035    -1.800842883048    -0.718416553267     1.007825032230
         H            1.499663155035    -1.274224883048     0.812564446733     1.007825032230
         H            2.499027155035    -0.821299883048    -0.432610553267     1.007825032230
         H            1.147281155035     1.210755116952     1.454435446733     1.007825032230
         H            0.565421155035     2.273206116952     0.155994446733     1.007825032230
         H            2.217989155035     1.640303116952     0.094723446733     1.007825032230
         H           -2.497106844965     0.560792116952    -0.042535553267     1.007825032230

  Basis Set: AUG-CC-PVTZ
    Blend: AUG-CC-PVTZ
  Basis Set: (AUG-CC-PVTZ AUX)
    Blend: AUG-CC-PVTZ-JKFIT
	 Reference Energy          =    -322.3323157056362334 [Eh]
	 Singles Energy            =      -0.0000000000000000 [Eh]
	 Same-Spin Energy          =      -0.3132745872050192 [Eh]
	 Opposite-Spin Energy      =      -1.0002264808769861 [Eh]
	 Correlation Energy        =      -1.3135010680820054 [Eh]
	 Total Energy              =    -323.6458167737182521 [Eh]

	 ================> DF-SCS-MP2 Energies <==================
	-----------------------------------------------------------
	 SCS Same-Spin Scale       =       0.3333333333333333 [-]
	 SCS Opposite-Spin Scale   =       1.2000000000000000 [-]
	 SCS Same-Spin Energy      =      -0.1044248624016731 [Eh]
	 SCS Opposite-Spin Energy  =      -1.2002717770523832 [Eh]
	 SCS Correlation Energy    =      -1.3046966394540562 [Eh]
	 SCS Total Energy          =    -323.6370123450902838 [Eh]
	-----------------------------------------------------------

  Dipole Moment: [D]
     X:     5.6661      Y:    -1.1272      Z:    -1.0151     Total:     5.8656

*** Psi4 exiting successfully. Buy a developer a beer!
