                               Psi4 1.4a2.dev612

  ==> Input File <==

--------------------------------------------------------------------------
#psi4
#
memory 32 gb

molecule  {
1 1
  O       -1.6624030     0.8291070    -0.2765410
  O       -1.1238540    -1.2691650     0.4354900
  N        1.4473370    -1.0090820    -0.1563980
  C        0.6083285     0.2225392    -0.3500974
  C        1.1187320     1.3933860     0.3994720
  C       -0.8221020    -0.1825100    -0.0303730
  H        0.6501100     0.4122580    -1.4678430
  H        1.1192750    -1.8168460    -0.6997980
  H        1.4281670    -1.2902280     0.8311830
  H        2.4275310    -0.8373030    -0.4139920
  H        1.0757850     1.1947520     1.4730540
  H        0.4939250     2.2572030     0.1746130
  H        2.1464930     1.6243000     0.1133420
  H       -2.5686030     0.5447890    -0.0239170
units angstrom
no_reorient  #important for SAPT in psi4, default
symmetry c1  #important for SAPT in psi4, default
}

set PROPERTIES_ORIGIN ["COM"]
properties('MP2/aug-cc-pvtz', properties = ['dipole'])
--------------------------------------------------------------------------

    Molecular point group: c1
  Charge       = 1
  Multiplicity = 1
  Basis Set: AUG-CC-PVTZ
    Blend: AUG-CC-PVTZ
  Basis Set: (AUG-CC-PVTZ AUX)
    Blend: AUG-CC-PVTZ-JKFIT

    Orbital Energies [Eh]
    ---------------------

    Doubly Occupied:

       1A    -20.787070     2A    -20.734719     3A    -15.900126
       4A    -11.576397     5A    -11.511621     6A    -11.414537
       7A     -1.639355     8A     -1.544332     9A     -1.515104
      10A     -1.262171    11A     -1.108935    12A     -1.009144
      13A     -0.979446    14A     -0.966257    15A     -0.885594
      16A     -0.860805    17A     -0.841265    18A     -0.814723
      19A     -0.773107    20A     -0.745219    21A     -0.736052
      22A     -0.708510    23A     -0.656858    24A     -0.635876

  @DF-RHF Final Energy:  -322.35544613050968

   => Energetics <=

    Nuclear Repulsion Energy =            260.5131104767034458
    One-Electron Energy =                -946.5226660777411780
    Two-Electron Energy =                 363.6541094705280557
    Total Energy =                       -322.3554461305096765
  Basis Set: (AUG-CC-PVTZ AUX)
    Blend: AUG-CC-PVTZ-RI
    Molecular point group: c1

    Geometry (in Angstrom), charge = 1, multiplicity = 1:

       Center              X                  Y                   Z               Mass
    ------------   -----------------  -----------------  -----------------  -----------------
         O           -1.588963909851     0.849790763705    -0.282835780073    15.994914619570
         O           -1.050414909851    -1.248481236295     0.429195219927    15.994914619570
         N            1.520776090149    -0.988398236295    -0.162692780073    14.003074004430
         C            0.681767590149     0.243222963705    -0.356392180073    12.000000000000
         C            1.192171090149     1.414069763705     0.393177219927    12.000000000000
         C           -0.748662909851    -0.161826236295    -0.036667780073    12.000000000000
         H            0.723549090149     0.432941763705    -1.474137780073     1.007825032230
         H            1.192714090149    -1.796162236295    -0.706092780073     1.007825032230
         H            1.501606090149    -1.269544236295     0.824888219927     1.007825032230
         H            2.500970090149    -0.816619236295    -0.420286780073     1.007825032230
         H            1.149224090149     1.215435763705     1.466759219927     1.007825032230
         H            0.567364090149     2.277886763705     0.168318219927     1.007825032230
         H            2.219932090149     1.644983763705     0.107047219927     1.007825032230
         H           -2.495163909851     0.565472763705    -0.030211780073     1.007825032230

  Basis Set: AUG-CC-PVTZ
    Blend: AUG-CC-PVTZ
  Basis Set: (AUG-CC-PVTZ AUX)
    Blend: AUG-CC-PVTZ-JKFIT
	 Reference Energy          =    -322.3554461305096765 [Eh]
	 Singles Energy            =      -0.0000000000000000 [Eh]
	 Same-Spin Energy          =      -0.3120076185439236 [Eh]
	 Opposite-Spin Energy      =      -0.9981649498420034 [Eh]
	 Correlation Energy        =      -1.3101725683859271 [Eh]
	 Total Energy              =    -323.6656186988956279 [Eh]

	 ================> DF-SCS-MP2 Energies <==================
	-----------------------------------------------------------
	 SCS Same-Spin Scale       =       0.3333333333333333 [-]
	 SCS Opposite-Spin Scale   =       1.2000000000000000 [-]
	 SCS Same-Spin Energy      =      -0.1040025395146412 [Eh]
	 SCS Opposite-Spin Energy  =      -1.1977979398104042 [Eh]
	 SCS Correlation Energy    =      -1.3018004793250453 [Eh]
	 SCS Total Energy          =    -323.6572466098347149 [Eh]
	-----------------------------------------------------------

  Dipole Moment: [D]
     X:     5.6753      Y:    -1.1958      Z:    -1.0739     Total:     5.8985

*** Psi4 exiting successfully. Buy a developer a beer!
