                               Psi4 1.4a2.dev612

  ==> Input File <==

--------------------------------------------------------------------------
#psi4
#
memory 32 gb

molecule  {
1 1
  O       -1.6624030     0.8291070    -0.2765410
  O       -1.1238540    -1.2691650     0.4354900
  N        1.4473370    -1.0090820    -0.1563980
  C        0.6374904     0.2927922    -0.1651268
  C        1.1187320     1.3933860     0.3994720
  C       -0.8221020    -0.1825100    -0.0303730
  H        0.6501100     0.4122580    -1.4678430
  H        1.1192750    -1.8168460    -0.6997980
  H        1.4281670    -1.2902280     0.8311830
  H        2.4275310    -0.8373030    -0.4139920
  H        1.0757850     1.1947520     1.4730540
  H        0.4939250     2.2572030     0.1746130
  H        2.1464930     1.6243000     0.1133420
  H       -2.5686030     0.5447890    -0.0239170
units angstrom
no_reorient  #important for SAPT in psi4, default
symmetry c1  #important for SAPT in psi4, default
}

set PROPERTIES_ORIGIN ["COM"]
properties('MP2/aug-cc-pvtz', properties = ['dipole'])
--------------------------------------------------------------------------

    Molecular point group: c1
  Charge       = 1
  Multiplicity = 1
  Basis Set: AUG-CC-PVTZ
    Blend: AUG-CC-PVTZ
  Basis Set: (AUG-CC-PVTZ AUX)
    Blend: AUG-CC-PVTZ-JKFIT

    Orbital Energies [Eh]
    ---------------------

    Doubly Occupied:

       1A    -20.787444     2A    -20.735768     3A    -15.898219
       4A    -11.580701     5A    -11.524772     6A    -11.408828
       7A     -1.639712     8A     -1.543983     9A     -1.510935
      10A     -1.298674    11A     -1.111204    12A     -0.999013
      13A     -0.975289    14A     -0.965401    15A     -0.884126
      16A     -0.864447    17A     -0.837882    18A     -0.825704
      19A     -0.785940    20A     -0.768797    21A     -0.737079
      22A     -0.669949    23A     -0.656852    24A     -0.621179

  @DF-RHF Final Energy:  -322.28777822588614

   => Energetics <=

    Nuclear Repulsion Energy =            261.3245362422288167
    One-Electron Energy =                -947.9608303966449512
    Two-Electron Energy =                 364.3485159285300483
    Total Energy =                       -322.2877782258861430
  Basis Set: (AUG-CC-PVTZ AUX)
    Blend: AUG-CC-PVTZ-RI
    Molecular point group: c1

    Geometry (in Angstrom), charge = 1, multiplicity = 1:

       Center              X                  Y                   Z               Mass
    ------------   -----------------  -----------------  -----------------  -----------------
         O           -1.592849766755     0.840429470200    -0.307483326461    15.994914619570
         O           -1.054300766755    -1.257842529800     0.404547673539    15.994914619570
         N            1.516890233245    -0.997759529800    -0.187340326461    14.003074004430
         C            0.707043633245     0.304114670200    -0.196069126461    12.000000000000
         C            1.188285233245     1.404708470200     0.368529673539    12.000000000000
         C           -0.752548766755    -0.171187529800    -0.061315326461    12.000000000000
         H            0.719663233245     0.423580470200    -1.498785326461     1.007825032230
         H            1.188828233245    -1.805523529800    -0.730740326461     1.007825032230
         H            1.497720233245    -1.278905529800     0.800240673539     1.007825032230
         H            2.497084233245    -0.825980529800    -0.444934326461     1.007825032230
         H            1.145338233245     1.206074470200     1.442111673539     1.007825032230
         H            0.563478233245     2.268525470200     0.143670673539     1.007825032230
         H            2.216046233245     1.635622470200     0.082399673539     1.007825032230
         H           -2.499049766755     0.556111470200    -0.054859326461     1.007825032230

  Basis Set: AUG-CC-PVTZ
    Blend: AUG-CC-PVTZ
  Basis Set: (AUG-CC-PVTZ AUX)
    Blend: AUG-CC-PVTZ-JKFIT
	 Reference Energy          =    -322.2877782258861430 [Eh]
	 Singles Energy            =      -0.0000000000000000 [Eh]
	 Same-Spin Energy          =      -0.3151615271282887 [Eh]
	 Opposite-Spin Energy      =      -1.0035646066644550 [Eh]
	 Correlation Energy        =      -1.3187261337927438 [Eh]
	 Total Energy              =    -323.6065043596788655 [Eh]

	 ================> DF-SCS-MP2 Energies <==================
	-----------------------------------------------------------
	 SCS Same-Spin Scale       =       0.3333333333333333 [-]
	 SCS Opposite-Spin Scale   =       1.2000000000000000 [-]
	 SCS Same-Spin Energy      =      -0.1050538423760962 [Eh]
	 SCS Opposite-Spin Energy  =      -1.2042775279973459 [Eh]
	 SCS Correlation Energy    =      -1.3093313703734422 [Eh]
	 SCS Total Energy          =    -323.5971095962595996 [Eh]
	-----------------------------------------------------------

  Dipole Moment: [D]
     X:     5.6673      Y:    -1.0173      Z:    -0.9042     Total:     5.8284

*** Psi4 exiting successfully. Buy a developer a beer!
