                               Psi4 1.3.2 release

  ==> Input File <==

--------------------------------------------------------------------------
#psi4
#
memory 32 gb

molecule  {
0 1
  N       -1.0175820    -0.3767630     0.0000260
  N        0.0381600    -1.2151070    -0.0000250
  C       -0.6759380     0.9397300     0.0000060
  C        0.7089440     0.9680670    -0.0000050
  C        1.0983770    -0.3824860    -0.0000080
  H       -1.4207424     1.7232842     0.2500220
  H        1.3402470     1.8449540    -0.0000100
  H       -1.9477390    -0.7754960     0.0000400
  H        2.0958970    -0.8015150    -0.0000160
units angstrom
no_reorient  #important for SAPT in psi4, default
symmetry c1  #important for SAPT in psi4, default
}

set PROPERTIES_ORIGIN ["COM"]
properties('MP2/aug-cc-pvtz', properties = ['dipole'])
--------------------------------------------------------------------------

    Molecular point group: c1
  Charge       = 0
  Multiplicity = 1
  Basis Set: AUG-CC-PVTZ
    Blend: AUG-CC-PVTZ
  Basis Set: (AUG-CC-PVTZ AUX)
    Blend: AUG-CC-PVTZ-JKFIT

    Orbital Energies [Eh]
    ---------------------

    Doubly Occupied:

       1A    -15.643744     2A    -15.591629     3A    -11.283958
       4A    -11.256092     5A    -11.226159     6A     -1.372079
       7A     -1.092434     8A     -1.052775     9A     -0.824135
      10A     -0.798922    11A     -0.737357    12A     -0.610585
      13A     -0.605135    14A     -0.589953    15A     -0.560653
      16A     -0.463299    17A     -0.365133    18A     -0.346364

  @DF-RHF Final Energy:  -224.86966164229949

   => Energetics <=

    Nuclear Repulsion Energy =            162.5066414075385808
    One-Electron Energy =                -625.9117956072320794
    Two-Electron Energy =                 238.5354925573939795
    Total Energy =                       -224.8696616422994907
  Basis Set: (AUG-CC-PVTZ AUX)
    Blend: AUG-CC-PVTZ-RI
    Molecular point group: c1

    Geometry (in Angstrom), charge = 0, multiplicity = 1:

       Center              X                  Y                   Z               Mass
    ------------   -----------------  -----------------  -----------------  -----------------
         N           -1.016551234040    -0.347653548476    -0.003676704168    14.003074004430
         N            0.039190765960    -1.185997548476    -0.003727704168    14.003074004430
         C           -0.674907234040     0.968839451524    -0.003696704168    12.000000000000
         C            0.709974765960     0.997176451524    -0.003707704168    12.000000000000
         C            1.099407765960    -0.353376548476    -0.003710704168    12.000000000000
         H           -1.419711634040     1.752393651524     0.246319295832     1.007825032230
         H            1.341277765960     1.874063451524    -0.003712704168     1.007825032230
         H           -1.946708234040    -0.746386548476    -0.003662704168     1.007825032230
         H            2.096927765960    -0.772405548476    -0.003718704168     1.007825032230

  Basis Set: AUG-CC-PVTZ
    Blend: AUG-CC-PVTZ
  Basis Set: (AUG-CC-PVTZ AUX)
    Blend: AUG-CC-PVTZ-JKFIT
	 Reference Energy          =    -224.8696616422994907 [Eh]
	 Singles Energy            =      -0.0000000000000000 [Eh]
	 Same-Spin Energy          =      -0.2461273689343001 [Eh]
	 Opposite-Spin Energy      =      -0.7468028719818485 [Eh]
	 Correlation Energy        =      -0.9929302409161486 [Eh]
	 Total Energy              =    -225.8625918832156287 [Eh]

	 ================> DF-SCS-MP2 Energies <==================
	-----------------------------------------------------------
	 SCS Same-Spin Scale       =       0.3333333333333333 [-]
	 SCS Opposite-Spin Scale   =       1.2000000000000000 [-]
	 SCS Same-Spin Energy      =      -0.0820424563114334 [Eh]
	 SCS Opposite-Spin Energy  =      -0.8961634463782181 [Eh]
	 SCS Correlation Energy    =      -0.9782059026896515 [Eh]
	 SCS Total Energy          =    -225.8478675449891284 [Eh]
	-----------------------------------------------------------

  Dipole Moment: [D]
     X:    -1.4787      Y:     1.6986      Z:     0.2336     Total:     2.2642

*** Psi4 exiting successfully. Buy a developer a beer!
