                               Psi4 1.3.2 release

  ==> Input File <==

--------------------------------------------------------------------------
#psi4
#
memory 32 gb

molecule  {
0 1
  N       -1.0175820    -0.3767630     0.0000260
  N        0.0381600    -1.2151070    -0.0000250
  C       -0.6759380     0.9397300     0.0000060
  C        0.7089440     0.9680670    -0.0000050
  C        1.0983770    -0.3824860    -0.0000080
  H       -1.4207460     1.7232830     0.0000220
  H        1.3402470     1.8449540    -0.0000100
  H       -1.9477390    -0.7754960     0.0000400
  H        2.0958978    -0.8015125    -0.3000160
units angstrom
no_reorient  #important for SAPT in psi4, default
symmetry c1  #important for SAPT in psi4, default
}

set PROPERTIES_ORIGIN ["COM"]
properties('MP2/aug-cc-pvtz', properties = ['dipole'])
--------------------------------------------------------------------------

    Molecular point group: c1
  Charge       = 0
  Multiplicity = 1
  Basis Set: AUG-CC-PVTZ
    Blend: AUG-CC-PVTZ
  Basis Set: (AUG-CC-PVTZ AUX)
    Blend: AUG-CC-PVTZ-JKFIT

    Orbital Energies [Eh]
    ---------------------

    Doubly Occupied:

       1A    -15.644509     2A    -15.591754     3A    -11.282449
       4A    -11.259182     5A    -11.225948     6A     -1.372507
       7A     -1.092484     8A     -1.053263     9A     -0.824119
      10A     -0.794691    11A     -0.742999    12A     -0.611154
      13A     -0.601518    14A     -0.592696    15A     -0.556242
      16A     -0.463318    17A     -0.364246    18A     -0.346633

  @DF-RHF Final Energy:  -224.86723712071199

   => Energetics <=

    Nuclear Repulsion Energy =            162.4623991819685500
    One-Electron Energy =                -625.8198496768674204
    Two-Electron Energy =                 238.4902133741869079
    Total Energy =                       -224.8672371207119909
  Basis Set: (AUG-CC-PVTZ AUX)
    Blend: AUG-CC-PVTZ-RI
    Molecular point group: c1

    Geometry (in Angstrom), charge = 0, multiplicity = 1:

       Center              X                  Y                   Z               Mass
    ------------   -----------------  -----------------  -----------------  -----------------
         N           -1.016551192564    -0.347653567732     0.004470335188    14.003074004430
         N            0.039190807436    -1.185997567732     0.004419335188    14.003074004430
         C           -0.674907192564     0.968839432268     0.004450335188    12.000000000000
         C            0.709974807436     0.997176432268     0.004439335188    12.000000000000
         C            1.099407807436    -0.353376567732     0.004436335188    12.000000000000
         H           -1.419715192564     1.752392432268     0.004466335188     1.007825032230
         H            1.341277807436     1.874063432268     0.004434335188     1.007825032230
         H           -1.946708192564    -0.746386567732     0.004484335188     1.007825032230
         H            2.096928607436    -0.772403067732    -0.295571664812     1.007825032230

  Basis Set: AUG-CC-PVTZ
    Blend: AUG-CC-PVTZ
  Basis Set: (AUG-CC-PVTZ AUX)
    Blend: AUG-CC-PVTZ-JKFIT
	 Reference Energy          =    -224.8672371207119909 [Eh]
	 Singles Energy            =      -0.0000000000000000 [Eh]
	 Same-Spin Energy          =      -0.2461952093379808 [Eh]
	 Opposite-Spin Energy      =      -0.7470006160074353 [Eh]
	 Correlation Energy        =      -0.9931958253454161 [Eh]
	 Total Energy              =    -225.8604329460574149 [Eh]

	 ================> DF-SCS-MP2 Energies <==================
	-----------------------------------------------------------
	 SCS Same-Spin Scale       =       0.3333333333333333 [-]
	 SCS Opposite-Spin Scale   =       1.2000000000000000 [-]
	 SCS Same-Spin Energy      =      -0.0820650697793269 [Eh]
	 SCS Opposite-Spin Energy  =      -0.8964007392089223 [Eh]
	 SCS Correlation Energy    =      -0.9784658089882492 [Eh]
	 SCS Total Energy          =    -225.8457029297002521 [Eh]
	-----------------------------------------------------------

  Dipole Moment: [D]
     X:    -1.5917      Y:     1.7651      Z:    -0.2236     Total:     2.3873

*** Psi4 exiting successfully. Buy a developer a beer!
