                               Psi4 1.3.2 release

  ==> Input File <==

--------------------------------------------------------------------------
#psi4
#
memory 32 gb

molecule  {
0 1
  N       -1.0175820    -0.3767630     0.0000260
  N        0.0381600    -1.2151070    -0.0000250
  C       -0.6759380     0.9397300     0.0000060
  C        0.7089440     0.9680670    -0.0000050
  C        1.0983770    -0.3824860    -0.0000080
  H       -1.4207460     1.7232830     0.0000220
  H        1.3402486     1.8449540     0.1999900
  H       -1.9477390    -0.7754960     0.0000400
  H        2.0958970    -0.8015150    -0.0000160
units angstrom
no_reorient  #important for SAPT in psi4, default
symmetry c1  #important for SAPT in psi4, default
}

set PROPERTIES_ORIGIN ["COM"]
properties('MP2/aug-cc-pvtz', properties = ['dipole'])
--------------------------------------------------------------------------

    Molecular point group: c1
  Charge       = 0
  Multiplicity = 1
  Basis Set: AUG-CC-PVTZ
    Blend: AUG-CC-PVTZ
  Basis Set: (AUG-CC-PVTZ AUX)
    Blend: AUG-CC-PVTZ-JKFIT

    Orbital Energies [Eh]
    ---------------------

    Doubly Occupied:

       1A    -15.643895     2A    -15.590799     3A    -11.282599
       4A    -11.256020     5A    -11.226839     6A     -1.371978
       7A     -1.092776     8A     -1.052601     9A     -0.824334
      10A     -0.798499    11A     -0.742238    12A     -0.608782
      13A     -0.606122    14A     -0.587250    15A     -0.564040
      16A     -0.462783    17A     -0.364926    18A     -0.346331

  @DF-RHF Final Energy:  -224.87116733489253

   => Energetics <=

    Nuclear Repulsion Energy =            162.5445580091846978
    One-Electron Energy =                -625.9858235612429098
    Two-Electron Energy =                 238.5700982171656790
    Total Energy =                       -224.8711673348925331
  Basis Set: (AUG-CC-PVTZ AUX)
    Blend: AUG-CC-PVTZ-RI
    Molecular point group: c1

    Geometry (in Angstrom), charge = 0, multiplicity = 1:

       Center              X                  Y                   Z               Mass
    ------------   -----------------  -----------------  -----------------  -----------------
         N           -1.016551204414    -0.347653530700    -0.002936064227    14.003074004430
         N            0.039190795586    -1.185997530700    -0.002987064227    14.003074004430
         C           -0.674907204414     0.968839469300    -0.002956064227    12.000000000000
         C            0.709974795586     0.997176469300    -0.002967064227    12.000000000000
         C            1.099407795586    -0.353376530700    -0.002970064227    12.000000000000
         H           -1.419715204414     1.752392469300    -0.002940064227     1.007825032230
         H            1.341279395586     1.874063469300     0.197027935773     1.007825032230
         H           -1.946708204414    -0.746386530700    -0.002922064227     1.007825032230
         H            2.096927795586    -0.772405530700    -0.002978064227     1.007825032230

  Basis Set: AUG-CC-PVTZ
    Blend: AUG-CC-PVTZ
  Basis Set: (AUG-CC-PVTZ AUX)
    Blend: AUG-CC-PVTZ-JKFIT
	 Reference Energy          =    -224.8711673348925331 [Eh]
	 Singles Energy            =      -0.0000000000000000 [Eh]
	 Same-Spin Energy          =      -0.2459282978156248 [Eh]
	 Opposite-Spin Energy      =      -0.7463986276755165 [Eh]
	 Correlation Energy        =      -0.9923269254911413 [Eh]
	 Total Energy              =    -225.8634942603836748 [Eh]

	 ================> DF-SCS-MP2 Energies <==================
	-----------------------------------------------------------
	 SCS Same-Spin Scale       =       0.3333333333333333 [-]
	 SCS Opposite-Spin Scale   =       1.2000000000000000 [-]
	 SCS Same-Spin Energy      =      -0.0819760992718749 [Eh]
	 SCS Opposite-Spin Energy  =      -0.8956783532106197 [Eh]
	 SCS Correlation Energy    =      -0.9776544524824946 [Eh]
	 SCS Total Energy          =    -225.8488217873750159 [Eh]
	-----------------------------------------------------------

  Dipole Moment: [D]
     X:    -1.5423      Y:     1.7114      Z:     0.1660     Total:     2.3098

*** Psi4 exiting successfully. Buy a developer a beer!
