                               Psi4 1.3.2 release

  ==> Input File <==

--------------------------------------------------------------------------
#psi4
#
memory 32 gb

molecule  {
0 1
  N       -1.0175820    -0.3767630     0.0000260
  N        0.0381600    -1.2151070    -0.0000250
  C       -0.6759380     0.9397300     0.0000060
  C        0.7089440     0.9680670    -0.0000050
  C        1.0983770    -0.3824860    -0.0000080
  H       -1.4207439     1.7232837     0.1500220
  H        1.3402470     1.8449540    -0.0000100
  H       -1.9477390    -0.7754960     0.0000400
  H        2.0958970    -0.8015150    -0.0000160
units angstrom
no_reorient  #important for SAPT in psi4, default
symmetry c1  #important for SAPT in psi4, default
}

set PROPERTIES_ORIGIN ["COM"]
properties('MP2/aug-cc-pvtz', properties = ['dipole'])
--------------------------------------------------------------------------

    Molecular point group: c1
  Charge       = 0
  Multiplicity = 1
  Basis Set: AUG-CC-PVTZ
    Blend: AUG-CC-PVTZ
  Basis Set: (AUG-CC-PVTZ AUX)
    Blend: AUG-CC-PVTZ-JKFIT

    Orbital Energies [Eh]
    ---------------------

    Doubly Occupied:

       1A    -15.643579     2A    -15.590954     3A    -11.282750
       4A    -11.255851     5A    -11.225682     6A     -1.371784
       7A     -1.092440     8A     -1.052782     9A     -0.824619
      10A     -0.799045    11A     -0.740754    12A     -0.609187
      13A     -0.605256    14A     -0.591483    15A     -0.562914
      16A     -0.462918    17A     -0.364980    18A     -0.346286

  @DF-RHF Final Energy:  -224.87219928513480

   => Energetics <=

    Nuclear Repulsion Energy =            162.5723246948102485
    One-Electron Energy =                -626.0425235017418117
    Two-Electron Energy =                 238.5979995217967371
    Total Energy =                       -224.8721992851347977
  Basis Set: (AUG-CC-PVTZ AUX)
    Blend: AUG-CC-PVTZ-RI
    Molecular point group: c1

    Geometry (in Angstrom), charge = 0, multiplicity = 1:

       Center              X                  Y                   Z               Mass
    ------------   -----------------  -----------------  -----------------  -----------------
         N           -1.016551211821    -0.347653541069    -0.002195424285    14.003074004430
         N            0.039190788179    -1.185997541069    -0.002246424285    14.003074004430
         C           -0.674907211821     0.968839458931    -0.002215424285    12.000000000000
         C            0.709974788179     0.997176458931    -0.002226424285    12.000000000000
         C            1.099407788179    -0.353376541069    -0.002229424285    12.000000000000
         H           -1.419713111821     1.752393158931     0.147800575715     1.007825032230
         H            1.341277788179     1.874063458931    -0.002231424285     1.007825032230
         H           -1.946708211821    -0.746386541069    -0.002181424285     1.007825032230
         H            2.096927788179    -0.772405541069    -0.002237424285     1.007825032230

  Basis Set: AUG-CC-PVTZ
    Blend: AUG-CC-PVTZ
  Basis Set: (AUG-CC-PVTZ AUX)
    Blend: AUG-CC-PVTZ-JKFIT
	 Reference Energy          =    -224.8721992851347977 [Eh]
	 Singles Energy            =      -0.0000000000000000 [Eh]
	 Same-Spin Energy          =      -0.2459471412396406 [Eh]
	 Opposite-Spin Energy      =      -0.7464076642879383 [Eh]
	 Correlation Energy        =      -0.9923548055275788 [Eh]
	 Total Energy              =    -225.8645540906623808 [Eh]

	 ================> DF-SCS-MP2 Energies <==================
	-----------------------------------------------------------
	 SCS Same-Spin Scale       =       0.3333333333333333 [-]
	 SCS Opposite-Spin Scale   =       1.2000000000000000 [-]
	 SCS Same-Spin Energy      =      -0.0819823804132135 [Eh]
	 SCS Opposite-Spin Energy  =      -0.8956891971455259 [Eh]
	 SCS Correlation Energy    =      -0.9776715775587395 [Eh]
	 SCS Total Energy          =    -225.8498708626935354 [Eh]
	-----------------------------------------------------------

  Dipole Moment: [D]
     X:    -1.5065      Y:     1.7248      Z:     0.1418     Total:     2.2945

*** Psi4 exiting successfully. Buy a developer a beer!
