                               Psi4 1.3.2 release

  ==> Input File <==

--------------------------------------------------------------------------
#psi4
#
memory 32 gb

molecule  {
0 1
  N       -1.0175820    -0.3767630     0.0000260
  N        0.0381600    -1.2151070    -0.0000250
  C       -0.6759380     0.9397300     0.0000060
  C        0.7089440     0.9680670    -0.0000050
  C        1.0983770    -0.3824860    -0.0000080
  H       -1.4207417     1.7232844     0.3000220
  H        1.3402470     1.8449540    -0.0000100
  H       -1.9477390    -0.7754960     0.0000400
  H        2.0958970    -0.8015150    -0.0000160
units angstrom
no_reorient  #important for SAPT in psi4, default
symmetry c1  #important for SAPT in psi4, default
}

set PROPERTIES_ORIGIN ["COM"]
properties('MP2/aug-cc-pvtz', properties = ['dipole'])
--------------------------------------------------------------------------

    Molecular point group: c1
  Charge       = 0
  Multiplicity = 1
  Basis Set: AUG-CC-PVTZ
    Blend: AUG-CC-PVTZ
  Basis Set: (AUG-CC-PVTZ AUX)
    Blend: AUG-CC-PVTZ-JKFIT

    Orbital Energies [Eh]
    ---------------------

    Doubly Occupied:

       1A    -15.643861     2A    -15.592083     3A    -11.284771
       4A    -11.256256     5A    -11.226483     6A     -1.372280
       7A     -1.092442     8A     -1.052776     9A     -0.823864
      10A     -0.798862    11A     -0.735131    12A     -0.611275
      13A     -0.605181    14A     -0.589133    15A     -0.558989
      16A     -0.463553    17A     -0.365240    18A     -0.346422

  @DF-RHF Final Energy:  -224.86776504193872

   => Energetics <=

    Nuclear Repulsion Energy =            162.4629212197344259
    One-Electron Energy =                -625.8241663380716773
    Two-Electron Energy =                 238.4934800763985265
    Total Energy =                       -224.8677650419387248
  Basis Set: (AUG-CC-PVTZ AUX)
    Blend: AUG-CC-PVTZ-RI
    Molecular point group: c1

    Geometry (in Angstrom), charge = 0, multiplicity = 1:

       Center              X                  Y                   Z               Mass
    ------------   -----------------  -----------------  -----------------  -----------------
         N           -1.016551244409    -0.347653551438    -0.004417344110    14.003074004430
         N            0.039190755591    -1.185997551438    -0.004468344110    14.003074004430
         C           -0.674907244409     0.968839448562    -0.004437344110    12.000000000000
         C            0.709974755591     0.997176448562    -0.004448344110    12.000000000000
         C            1.099407755591    -0.353376551438    -0.004451344110    12.000000000000
         H           -1.419710944409     1.752393848562     0.295578655890     1.007825032230
         H            1.341277755591     1.874063448562    -0.004453344110     1.007825032230
         H           -1.946708244409    -0.746386551438    -0.004403344110     1.007825032230
         H            2.096927755591    -0.772405551438    -0.004459344110     1.007825032230

  Basis Set: AUG-CC-PVTZ
    Blend: AUG-CC-PVTZ
  Basis Set: (AUG-CC-PVTZ AUX)
    Blend: AUG-CC-PVTZ-JKFIT
	 Reference Energy          =    -224.8677650419387248 [Eh]
	 Singles Energy            =      -0.0000000000000000 [Eh]
	 Same-Spin Energy          =      -0.2462478631868328 [Eh]
	 Opposite-Spin Energy      =      -0.7470815225767011 [Eh]
	 Correlation Energy        =      -0.9933293857635339 [Eh]
	 Total Energy              =    -225.8610944277022554 [Eh]

	 ================> DF-SCS-MP2 Energies <==================
	-----------------------------------------------------------
	 SCS Same-Spin Scale       =       0.3333333333333333 [-]
	 SCS Opposite-Spin Scale   =       1.2000000000000000 [-]
	 SCS Same-Spin Energy      =      -0.0820826210622776 [Eh]
	 SCS Opposite-Spin Energy  =      -0.8964978270920413 [Eh]
	 SCS Correlation Energy    =      -0.9785804481543189 [Eh]
	 SCS Total Energy          =    -225.8463454900930572 [Eh]
	-----------------------------------------------------------

  Dipole Moment: [D]
     X:    -1.4603      Y:     1.6810      Z:     0.2781     Total:     2.2440

*** Psi4 exiting successfully. Buy a developer a beer!
