                               Psi4 1.3.2 release

  ==> Input File <==

--------------------------------------------------------------------------
#psi4
#
memory 32 gb

molecule  {
0 1
  N       -1.0175820    -0.3767630     0.0000260
  N        0.0381600    -1.2151070    -0.0000250
  C       -0.6759380     0.9397300     0.0000060
  C        0.7089440     0.9680670    -0.0000050
  C        1.0983770    -0.3824860    -0.0000080
  H       -1.4207460     1.7232830     0.0000220
  H        1.3402470     1.8449540    -0.0000100
  H       -1.9477390    -0.7754960     0.0000400
  H        2.0958971    -0.8015146    -0.0500160
units angstrom
no_reorient  #important for SAPT in psi4, default
symmetry c1  #important for SAPT in psi4, default
}

set PROPERTIES_ORIGIN ["COM"]
properties('MP2/aug-cc-pvtz', properties = ['dipole'])
--------------------------------------------------------------------------

    Molecular point group: c1
  Charge       = 0
  Multiplicity = 1
  Basis Set: AUG-CC-PVTZ
    Blend: AUG-CC-PVTZ
  Basis Set: (AUG-CC-PVTZ AUX)
    Blend: AUG-CC-PVTZ-JKFIT

    Orbital Energies [Eh]
    ---------------------

    Doubly Occupied:

       1A    -15.643519     2A    -15.590599     3A    -11.282070
       4A    -11.255814     5A    -11.225424     6A     -1.371642
       7A     -1.092453     8A     -1.052805     9A     -0.824913
      10A     -0.799008    11A     -0.742751    12A     -0.608194
      13A     -0.605343    14A     -0.592576    15A     -0.563879
      16A     -0.462717    17A     -0.364875    18A     -0.346256

  @DF-RHF Final Energy:  -224.87334010959771

   => Energetics <=

    Nuclear Repulsion Energy =            162.6061364052040403
    One-Electron Energy =                -626.1092775878138355
    Two-Electron Energy =                 238.6298010730120893
    Total Energy =                       -224.8733401095977058
  Basis Set: (AUG-CC-PVTZ AUX)
    Blend: AUG-CC-PVTZ-RI
    Molecular point group: c1

    Geometry (in Angstrom), charge = 0, multiplicity = 1:

       Center              X                  Y                   Z               Mass
    ------------   -----------------  -----------------  -----------------  -----------------
         N           -1.016551182195    -0.347653536625     0.000767135481    14.003074004430
         N            0.039190817805    -1.185997536625     0.000716135481    14.003074004430
         C           -0.674907182195     0.968839463375     0.000747135481    12.000000000000
         C            0.709974817805     0.997176463375     0.000736135481    12.000000000000
         C            1.099407817805    -0.353376536625     0.000733135481    12.000000000000
         H           -1.419715182195     1.752392463375     0.000763135481     1.007825032230
         H            1.341277817805     1.874063463375     0.000731135481     1.007825032230
         H           -1.946708182195    -0.746386536625     0.000781135481     1.007825032230
         H            2.096927917805    -0.772405136625    -0.049274864519     1.007825032230

  Basis Set: AUG-CC-PVTZ
    Blend: AUG-CC-PVTZ
  Basis Set: (AUG-CC-PVTZ AUX)
    Blend: AUG-CC-PVTZ-JKFIT
	 Reference Energy          =    -224.8733401095977058 [Eh]
	 Singles Energy            =      -0.0000000000000000 [Eh]
	 Same-Spin Energy          =      -0.2458532289900293 [Eh]
	 Opposite-Spin Energy      =      -0.7462178881961525 [Eh]
	 Correlation Energy        =      -0.9920711171861818 [Eh]
	 Total Energy              =    -225.8654112267838912 [Eh]

	 ================> DF-SCS-MP2 Energies <==================
	-----------------------------------------------------------
	 SCS Same-Spin Scale       =       0.3333333333333333 [-]
	 SCS Opposite-Spin Scale   =       1.2000000000000000 [-]
	 SCS Same-Spin Energy      =      -0.0819510763300098 [Eh]
	 SCS Opposite-Spin Energy  =      -0.8954614658353830 [Eh]
	 SCS Correlation Energy    =      -0.9774125421653928 [Eh]
	 SCS Total Energy          =    -225.8507526517630879 [Eh]
	-----------------------------------------------------------

  Dipole Moment: [D]
     X:    -1.5245      Y:     1.7406      Z:    -0.0379     Total:     2.3142

*** Psi4 exiting successfully. Buy a developer a beer!
