                               Psi4 1.3.2 release

  ==> Input File <==

--------------------------------------------------------------------------
#psi4
#
memory 32 gb

molecule  {
0 1
  N       -1.0175820    -0.3767630     0.0000260
  N        0.0381600    -1.2151070    -0.0000250
  C       -0.6759380     0.9397300     0.0000060
  C        0.7089440     0.9680670    -0.0000050
  C        1.0983770    -0.3824860    -0.0000080
  H       -1.4207460     1.7232830     0.0000220
  H        1.3402494     1.8449540     0.2999900
  H       -1.9477390    -0.7754960     0.0000400
  H        2.0958970    -0.8015150    -0.0000160
units angstrom
no_reorient  #important for SAPT in psi4, default
symmetry c1  #important for SAPT in psi4, default
}

set PROPERTIES_ORIGIN ["COM"]
properties('MP2/aug-cc-pvtz', properties = ['dipole'])
--------------------------------------------------------------------------

    Molecular point group: c1
  Charge       = 0
  Multiplicity = 1
  Basis Set: AUG-CC-PVTZ
    Blend: AUG-CC-PVTZ
  Basis Set: (AUG-CC-PVTZ AUX)
    Blend: AUG-CC-PVTZ-JKFIT

    Orbital Energies [Eh]
    ---------------------

    Doubly Occupied:

       1A    -15.644390     2A    -15.591091     3A    -11.283264
       4A    -11.256403     5A    -11.228581     6A     -1.372423
       7A     -1.093175     8A     -1.052399     9A     -0.823749
      10A     -0.797764    11A     -0.741665    12A     -0.609487
      13A     -0.606527    14A     -0.581503    15A     -0.563741
      16A     -0.462877    17A     -0.364984    18A     -0.346444

  @DF-RHF Final Energy:  -224.86786236730285

   => Energetics <=

    Nuclear Repulsion Energy =            162.4657819266924719
    One-Electron Energy =                -625.8263576270333033
    Two-Electron Energy =                 238.4927133330380116
    Total Energy =                       -224.8678623673028483
  Basis Set: (AUG-CC-PVTZ AUX)
    Blend: AUG-CC-PVTZ-RI
    Molecular point group: c1

    Geometry (in Angstrom), charge = 0, multiplicity = 1:

       Center              X                  Y                   Z               Mass
    ------------   -----------------  -----------------  -----------------  -----------------
         N           -1.016551216265    -0.347653530700    -0.004417344110    14.003074004430
         N            0.039190783735    -1.185997530700    -0.004468344110    14.003074004430
         C           -0.674907216265     0.968839469300    -0.004437344110    12.000000000000
         C            0.709974783735     0.997176469300    -0.004448344110    12.000000000000
         C            1.099407783735    -0.353376530700    -0.004451344110    12.000000000000
         H           -1.419715216265     1.752392469300    -0.004421344110     1.007825032230
         H            1.341280183735     1.874063469300     0.295546655890     1.007825032230
         H           -1.946708216265    -0.746386530700    -0.004403344110     1.007825032230
         H            2.096927783735    -0.772405530700    -0.004459344110     1.007825032230

  Basis Set: AUG-CC-PVTZ
    Blend: AUG-CC-PVTZ
  Basis Set: (AUG-CC-PVTZ AUX)
    Blend: AUG-CC-PVTZ-JKFIT
	 Reference Energy          =    -224.8678623673028483 [Eh]
	 Singles Energy            =      -0.0000000000000000 [Eh]
	 Same-Spin Energy          =      -0.2460310206383140 [Eh]
	 Opposite-Spin Energy      =      -0.7466865441299585 [Eh]
	 Correlation Energy        =      -0.9927175647682724 [Eh]
	 Total Energy              =    -225.8605799320711185 [Eh]

	 ================> DF-SCS-MP2 Energies <==================
	-----------------------------------------------------------
	 SCS Same-Spin Scale       =       0.3333333333333333 [-]
	 SCS Opposite-Spin Scale   =       1.2000000000000000 [-]
	 SCS Same-Spin Energy      =      -0.0820103402127713 [Eh]
	 SCS Opposite-Spin Energy  =      -0.8960238529559502 [Eh]
	 SCS Correlation Energy    =      -0.9780341931687215 [Eh]
	 SCS Total Energy          =    -225.8458965604715729 [Eh]
	-----------------------------------------------------------

  Dipole Moment: [D]
     X:    -1.5661      Y:     1.6768      Z:     0.2461     Total:     2.3075

*** Psi4 exiting successfully. Buy a developer a beer!
