                               Psi4 1.3.2 release

  ==> Input File <==

--------------------------------------------------------------------------
#psi4
#
memory 32 gb

molecule  {
0 1
  N       -1.0175820    -0.3767630     0.0000260
  N        0.0381600    -1.2151070    -0.0000250
  C       -0.6759380     0.9397300     0.0000060
  C        0.7089440     0.9680670    -0.0000050
  C        1.0983770    -0.3824860    -0.0000080
  H       -1.4207460     1.7232830     0.0000220
  H        1.3402470     1.8449540    -0.0000100
  H       -1.9477390    -0.7754960     0.0000400
  H        2.0958977    -0.8015129    -0.2500160
units angstrom
no_reorient  #important for SAPT in psi4, default
symmetry c1  #important for SAPT in psi4, default
}

set PROPERTIES_ORIGIN ["COM"]
properties('MP2/aug-cc-pvtz', properties = ['dipole'])
--------------------------------------------------------------------------

    Molecular point group: c1
  Charge       = 0
  Multiplicity = 1
  Basis Set: AUG-CC-PVTZ
    Blend: AUG-CC-PVTZ
  Basis Set: (AUG-CC-PVTZ AUX)
    Blend: AUG-CC-PVTZ-JKFIT

    Orbital Energies [Eh]
    ---------------------

    Doubly Occupied:

       1A    -15.644202     2A    -15.591395     3A    -11.282329
       4A    -11.258145     5A    -11.225781     6A     -1.372239
       7A     -1.092465     8A     -1.053119     9A     -0.824298
      10A     -0.795998    11A     -0.742921    12A     -0.610639
      13A     -0.602221    14A     -0.592659    15A     -0.558682
      16A     -0.463140    17A     -0.364432    18A     -0.346514

  @DF-RHF Final Energy:  -224.86928803342175

   => Energetics <=

    Nuclear Repulsion Energy =            162.5062791523695296
    One-Electron Energy =                -625.9087774621276594
    Two-Electron Energy =                 238.5332102763363764
    Total Energy =                       -224.8692880334217534
  Basis Set: (AUG-CC-PVTZ AUX)
    Blend: AUG-CC-PVTZ-RI
    Molecular point group: c1

    Geometry (in Angstrom), charge = 0, multiplicity = 1:

       Center              X                  Y                   Z               Mass
    ------------   -----------------  -----------------  -----------------  -----------------
         N           -1.016551191083    -0.347653561807     0.003729695247    14.003074004430
         N            0.039190808917    -1.185997561807     0.003678695247    14.003074004430
         C           -0.674907191083     0.968839438193     0.003709695247    12.000000000000
         C            0.709974808917     0.997176438193     0.003698695247    12.000000000000
         C            1.099407808917    -0.353376561807     0.003695695247    12.000000000000
         H           -1.419715191083     1.752392438193     0.003725695247     1.007825032230
         H            1.341277808917     1.874063438193     0.003693695247     1.007825032230
         H           -1.946708191083    -0.746386561807     0.003743695247     1.007825032230
         H            2.096928508917    -0.772403461807    -0.246312304753     1.007825032230

  Basis Set: AUG-CC-PVTZ
    Blend: AUG-CC-PVTZ
  Basis Set: (AUG-CC-PVTZ AUX)
    Blend: AUG-CC-PVTZ-JKFIT
	 Reference Energy          =    -224.8692880334217534 [Eh]
	 Singles Energy            =      -0.0000000000000000 [Eh]
	 Same-Spin Energy          =      -0.2460901518524845 [Eh]
	 Opposite-Spin Energy      =      -0.7467457455160038 [Eh]
	 Correlation Energy        =      -0.9928358973684883 [Eh]
	 Total Energy              =    -225.8621239307902329 [Eh]

	 ================> DF-SCS-MP2 Energies <==================
	-----------------------------------------------------------
	 SCS Same-Spin Scale       =       0.3333333333333333 [-]
	 SCS Opposite-Spin Scale   =       1.2000000000000000 [-]
	 SCS Same-Spin Energy      =      -0.0820300506174948 [Eh]
	 SCS Opposite-Spin Energy  =      -0.8960948946192046 [Eh]
	 SCS Correlation Energy    =      -0.9781249452366994 [Eh]
	 SCS Total Energy          =    -225.8474129786584399 [Eh]
	-----------------------------------------------------------

  Dipole Moment: [D]
     X:    -1.5710      Y:     1.7575      Z:    -0.1875     Total:     2.3647

*** Psi4 exiting successfully. Buy a developer a beer!
