                               Psi4 1.3.2 release

  ==> Input File <==

--------------------------------------------------------------------------
#psi4
#
memory 32 gb

molecule  {
0 1
  N       -1.0175820    -0.3767630     0.0000260
  N        0.0381600    -1.2151070    -0.0000250
  C       -0.6759380     0.9397300     0.0000060
  C        0.7089440     0.9680670    -0.0000050
  C        1.0983770    -0.3824860    -0.0000080
  H       -1.4207460     1.7232830     0.0000220
  H        1.3402470     1.8449540    -0.0000100
  H       -1.9477390    -0.7754960     0.0000400
  H        2.0958974    -0.8015138    -0.1500160
units angstrom
no_reorient  #important for SAPT in psi4, default
symmetry c1  #important for SAPT in psi4, default
}

set PROPERTIES_ORIGIN ["COM"]
properties('MP2/aug-cc-pvtz', properties = ['dipole'])
--------------------------------------------------------------------------

    Molecular point group: c1
  Charge       = 0
  Multiplicity = 1
  Basis Set: AUG-CC-PVTZ
    Blend: AUG-CC-PVTZ
  Basis Set: (AUG-CC-PVTZ AUX)
    Blend: AUG-CC-PVTZ-JKFIT

    Orbital Energies [Eh]
    ---------------------

    Doubly Occupied:

       1A    -15.643749     2A    -15.590866     3A    -11.282156
       4A    -11.256601     5A    -11.225542     6A     -1.371842
       7A     -1.092453     8A     -1.052909     9A     -0.824667
      10A     -0.797983    11A     -0.742807    12A     -0.609440
      13A     -0.603823    14A     -0.592605    15A     -0.562173
      16A     -0.462863    17A     -0.364722    18A     -0.346342

  @DF-RHF Final Energy:  -224.87206099787898

   => Energetics <=

    Nuclear Repulsion Energy =            162.5721947309907023
    One-Electron Energy =                -626.0414257403830334
    Two-Electron Energy =                 238.5971700115133558
    Total Energy =                       -224.8720609978789753
  Basis Set: (AUG-CC-PVTZ AUX)
    Blend: AUG-CC-PVTZ-RI
    Molecular point group: c1

    Geometry (in Angstrom), charge = 0, multiplicity = 1:

       Center              X                  Y                   Z               Mass
    ------------   -----------------  -----------------  -----------------  -----------------
         N           -1.016551186639    -0.347653548476     0.002248415364    14.003074004430
         N            0.039190813361    -1.185997548476     0.002197415364    14.003074004430
         C           -0.674907186639     0.968839451524     0.002228415364    12.000000000000
         C            0.709974813361     0.997176451524     0.002217415364    12.000000000000
         C            1.099407813361    -0.353376548476     0.002214415364    12.000000000000
         H           -1.419715186639     1.752392451524     0.002244415364     1.007825032230
         H            1.341277813361     1.874063451524     0.002212415364     1.007825032230
         H           -1.946708186639    -0.746386548476     0.002262415364     1.007825032230
         H            2.096928213361    -0.772404348476    -0.147793584636     1.007825032230

  Basis Set: AUG-CC-PVTZ
    Blend: AUG-CC-PVTZ
  Basis Set: (AUG-CC-PVTZ AUX)
    Blend: AUG-CC-PVTZ-JKFIT
	 Reference Energy          =    -224.8720609978789753 [Eh]
	 Singles Energy            =      -0.0000000000000000 [Eh]
	 Same-Spin Energy          =      -0.2459333830775787 [Eh]
	 Opposite-Spin Energy      =      -0.7463875914497060 [Eh]
	 Correlation Energy        =      -0.9923209745272847 [Eh]
	 Total Energy              =    -225.8643819724062496 [Eh]

	 ================> DF-SCS-MP2 Energies <==================
	-----------------------------------------------------------
	 SCS Same-Spin Scale       =       0.3333333333333333 [-]
	 SCS Opposite-Spin Scale   =       1.2000000000000000 [-]
	 SCS Same-Spin Energy      =      -0.0819777943591929 [Eh]
	 SCS Opposite-Spin Energy  =      -0.8956651097396472 [Eh]
	 SCS Correlation Energy    =      -0.9776429040988401 [Eh]
	 SCS Total Energy          =    -225.8497039019778185 [Eh]
	-----------------------------------------------------------

  Dipole Moment: [D]
     X:    -1.5402      Y:     1.7463      Z:    -0.1135     Total:     2.3313

*** Psi4 exiting successfully. Buy a developer a beer!
