                               Psi4 1.3.2 release

  ==> Input File <==

--------------------------------------------------------------------------
#psi4
#
memory 32 gb

molecule  {
0 1
  N       -1.0175820    -0.3767630     0.0000260
  N        0.0381600    -1.2151070    -0.0000250
  C       -0.6759380     0.9397300     0.0000060
  C        0.7089440     0.9680670    -0.0000050
  C        1.0983770    -0.3824860    -0.0000080
  H       -1.4207460     1.7232830     0.0000220
  H        1.3402470     1.8449540    -0.0000100
  H       -1.9477390    -0.7754960     0.0000400
  H        2.0958973    -0.8015142    -0.1000160
units angstrom
no_reorient  #important for SAPT in psi4, default
symmetry c1  #important for SAPT in psi4, default
}

set PROPERTIES_ORIGIN ["COM"]
properties('MP2/aug-cc-pvtz', properties = ['dipole'])
--------------------------------------------------------------------------

    Molecular point group: c1
  Charge       = 0
  Multiplicity = 1
  Basis Set: AUG-CC-PVTZ
    Blend: AUG-CC-PVTZ
  Basis Set: (AUG-CC-PVTZ AUX)
    Blend: AUG-CC-PVTZ-JKFIT

    Orbital Energies [Eh]
    ---------------------

    Doubly Occupied:

       1A    -15.643606     2A    -15.590699     3A    -11.282102
       4A    -11.256110     5A    -11.225468     6A     -1.371717
       7A     -1.092452     8A     -1.052844     9A     -0.824815
      10A     -0.798622    11A     -0.742772    12A     -0.608789
      13A     -0.604638    14A     -0.592587    15A     -0.563243
      16A     -0.462772    17A     -0.364817    18A     -0.346288

  @DF-RHF Final Energy:  -224.87286954752824

   => Energetics <=

    Nuclear Repulsion Energy =            162.5933282907231501
    One-Electron Energy =                -626.0837102561519032
    Two-Electron Energy =                 238.6175124179005138
    Total Energy =                       -224.8728695475282393
  Basis Set: (AUG-CC-PVTZ AUX)
    Blend: AUG-CC-PVTZ-RI
    Molecular point group: c1

    Geometry (in Angstrom), charge = 0, multiplicity = 1:

       Center              X                  Y                   Z               Mass
    ------------   -----------------  -----------------  -----------------  -----------------
         N           -1.016551185158    -0.347653542550     0.001507775422    14.003074004430
         N            0.039190814842    -1.185997542550     0.001456775422    14.003074004430
         C           -0.674907185158     0.968839457450     0.001487775422    12.000000000000
         C            0.709974814842     0.997176457450     0.001476775422    12.000000000000
         C            1.099407814842    -0.353376542550     0.001473775422    12.000000000000
         H           -1.419715185158     1.752392457450     0.001503775422     1.007825032230
         H            1.341277814842     1.874063457450     0.001471775422     1.007825032230
         H           -1.946708185158    -0.746386542550     0.001521775422     1.007825032230
         H            2.096928114842    -0.772404742550    -0.098534224578     1.007825032230

  Basis Set: AUG-CC-PVTZ
    Blend: AUG-CC-PVTZ
  Basis Set: (AUG-CC-PVTZ AUX)
    Blend: AUG-CC-PVTZ-JKFIT
	 Reference Energy          =    -224.8728695475282393 [Eh]
	 Singles Energy            =      -0.0000000000000000 [Eh]
	 Same-Spin Energy          =      -0.2458834216603985 [Eh]
	 Opposite-Spin Energy      =      -0.7462805092396811 [Eh]
	 Correlation Energy        =      -0.9921639309000796 [Eh]
	 Total Energy              =    -225.8650334784283302 [Eh]

	 ================> DF-SCS-MP2 Energies <==================
	-----------------------------------------------------------
	 SCS Same-Spin Scale       =       0.3333333333333333 [-]
	 SCS Opposite-Spin Scale   =       1.2000000000000000 [-]
	 SCS Same-Spin Energy      =      -0.0819611405534662 [Eh]
	 SCS Opposite-Spin Energy  =      -0.8955366110876174 [Eh]
	 SCS Correlation Energy    =      -0.9774977516410835 [Eh]
	 SCS Total Energy          =    -225.8503672991693350 [Eh]
	-----------------------------------------------------------

  Dipole Moment: [D]
     X:    -1.5304      Y:     1.7428      Z:    -0.0758     Total:     2.3206

*** Psi4 exiting successfully. Buy a developer a beer!
