                               Psi4 1.3.2 release

  ==> Input File <==

--------------------------------------------------------------------------
#psi4
#
memory 32 gb

molecule  {
0 1
  N       -1.0175820    -0.3767630     0.0000260
  N        0.0381600    -1.2151070    -0.0000250
  C       -0.6759380     0.9397300     0.0000060
  C        0.7089440     0.9680670    -0.0000050
  C        1.0983770    -0.3824860    -0.0000080
  H       -1.4207446     1.7232835     0.1000220
  H        1.3402470     1.8449540    -0.0000100
  H       -1.9477390    -0.7754960     0.0000400
  H        2.0958970    -0.8015150    -0.0000160
units angstrom
no_reorient  #important for SAPT in psi4, default
symmetry c1  #important for SAPT in psi4, default
}

set PROPERTIES_ORIGIN ["COM"]
properties('MP2/aug-cc-pvtz', properties = ['dipole'])
--------------------------------------------------------------------------

    Molecular point group: c1
  Charge       = 0
  Multiplicity = 1
  Basis Set: AUG-CC-PVTZ
    Blend: AUG-CC-PVTZ
  Basis Set: (AUG-CC-PVTZ AUX)
    Blend: AUG-CC-PVTZ-JKFIT

    Orbital Energies [Eh]
    ---------------------

    Doubly Occupied:

       1A    -15.643529     2A    -15.590739     3A    -11.282367
       4A    -11.255776     5A    -11.225531     6A     -1.371691
       7A     -1.092447     8A     -1.052787     9A     -0.824796
      10A     -0.799094    11A     -0.741853    12A     -0.608562
      13A     -0.605414    14A     -0.592064    15A     -0.563576
      16A     -0.462796    17A     -0.364933    18A     -0.346263

  @DF-RHF Final Energy:  -224.87293151831048

   => Energetics <=

    Nuclear Repulsion Energy =            162.5933859556957941
    One-Electron Energy =                -626.0841998443887633
    Two-Electron Energy =                 238.6178823703824889
    Total Energy =                       -224.8729315183104802
  Basis Set: (AUG-CC-PVTZ AUX)
    Blend: AUG-CC-PVTZ-RI
    Molecular point group: c1

    Geometry (in Angstrom), charge = 0, multiplicity = 1:

       Center              X                  Y                   Z               Mass
    ------------   -----------------  -----------------  -----------------  -----------------
         N           -1.016551201452    -0.347653538107    -0.001454784344    14.003074004430
         N            0.039190798548    -1.185997538107    -0.001505784344    14.003074004430
         C           -0.674907201452     0.968839461893    -0.001474784344    12.000000000000
         C            0.709974798548     0.997176461893    -0.001485784344    12.000000000000
         C            1.099407798548    -0.353376538107    -0.001488784344    12.000000000000
         H           -1.419713801452     1.752392961893     0.098541215656     1.007825032230
         H            1.341277798548     1.874063461893    -0.001490784344     1.007825032230
         H           -1.946708201452    -0.746386538107    -0.001440784344     1.007825032230
         H            2.096927798548    -0.772405538107    -0.001496784344     1.007825032230

  Basis Set: AUG-CC-PVTZ
    Blend: AUG-CC-PVTZ
  Basis Set: (AUG-CC-PVTZ AUX)
    Blend: AUG-CC-PVTZ-JKFIT
	 Reference Energy          =    -224.8729315183104802 [Eh]
	 Singles Energy            =      -0.0000000000000000 [Eh]
	 Same-Spin Energy          =      -0.2458895914331294 [Eh]
	 Opposite-Spin Energy      =      -0.7462890915021889 [Eh]
	 Correlation Energy        =      -0.9921786829353183 [Eh]
	 Total Energy              =    -225.8651102012458125 [Eh]

	 ================> DF-SCS-MP2 Energies <==================
	-----------------------------------------------------------
	 SCS Same-Spin Scale       =       0.3333333333333333 [-]
	 SCS Opposite-Spin Scale   =       1.2000000000000000 [-]
	 SCS Same-Spin Energy      =      -0.0819631971443765 [Eh]
	 SCS Opposite-Spin Energy  =      -0.8955469098026266 [Eh]
	 SCS Correlation Energy    =      -0.9775101069470031 [Eh]
	 SCS Total Energy          =    -225.8504416252574742 [Eh]
	-----------------------------------------------------------

  Dipole Moment: [D]
     X:    -1.5154      Y:     1.7332      Z:     0.0949     Total:     2.3042

*** Psi4 exiting successfully. Buy a developer a beer!
