                               Psi4 1.3.2 release

  ==> Input File <==

--------------------------------------------------------------------------
#psi4
#
memory 32 gb

molecule  {
0 1
  N       -1.0175820    -0.3767630     0.0000260
  N        0.0381600    -1.2151070    -0.0000250
  C       -0.6759380     0.9397300     0.0000060
  C        0.7089440     0.9680670    -0.0000050
  C        1.0983770    -0.3824860    -0.0000080
  H       -1.4207460     1.7232830     0.0000220
  H        1.3402470     1.8449540    -0.0000100
  H       -1.9477390    -0.7754960     0.0000400
  H        2.0958970    -0.8015150    -0.0000160
units angstrom
no_reorient  #important for SAPT in psi4, default
symmetry c1  #important for SAPT in psi4, default
}

set PROPERTIES_ORIGIN ["COM"]
properties('MP2/aug-cc-pvtz', properties = ['dipole'])
--------------------------------------------------------------------------

    Molecular point group: c1
  Charge       = 0
  Multiplicity = 1
  Basis Set: AUG-CC-PVTZ
    Blend: AUG-CC-PVTZ
  Basis Set: (AUG-CC-PVTZ AUX)
    Blend: AUG-CC-PVTZ-JKFIT

    Orbital Energies [Eh]
    ---------------------

    Doubly Occupied:

       1A    -15.643490     2A    -15.590565     3A    -11.282059
       4A    -11.255715     5A    -11.225410     6A     -1.371617
       7A     -1.092454     8A     -1.052792     9A     -0.824947
      10A     -0.799138    11A     -0.742744    12A     -0.607905
      13A     -0.605669    14A     -0.592573    15A     -0.564090
      16A     -0.462698    17A     -0.364895    18A     -0.346245

  @DF-RHF Final Energy:  -224.87349441013146

   => Energetics <=

    Nuclear Repulsion Energy =            162.6104278930840223
    One-Electron Energy =                -626.1178339929354024
    Two-Electron Energy =                 238.6339116897199233
    Total Energy =                       -224.8734944101314568
  Basis Set: (AUG-CC-PVTZ AUX)
    Blend: AUG-CC-PVTZ-RI
    Molecular point group: c1

    Geometry (in Angstrom), charge = 0, multiplicity = 1:

       Center              X                  Y                   Z               Mass
    ------------   -----------------  -----------------  -----------------  -----------------
         N           -1.016551180714    -0.347653530700     0.000026495539    14.003074004430
         N            0.039190819286    -1.185997530700    -0.000024504461    14.003074004430
         C           -0.674907180714     0.968839469300     0.000006495539    12.000000000000
         C            0.709974819286     0.997176469300    -0.000004504461    12.000000000000
         C            1.099407819286    -0.353376530700    -0.000007504461    12.000000000000
         H           -1.419715180714     1.752392469300     0.000022495539     1.007825032230
         H            1.341277819286     1.874063469300    -0.000009504461     1.007825032230
         H           -1.946708180714    -0.746386530700     0.000040495539     1.007825032230
         H            2.096927819286    -0.772405530700    -0.000015504461     1.007825032230

  Basis Set: AUG-CC-PVTZ
    Blend: AUG-CC-PVTZ
  Basis Set: (AUG-CC-PVTZ AUX)
    Blend: AUG-CC-PVTZ-JKFIT
	 Reference Energy          =    -224.8734944101314568 [Eh]
	 Singles Energy            =      -0.0000000000000000 [Eh]
	 Same-Spin Energy          =      -0.2458431308472008 [Eh]
	 Opposite-Spin Energy      =      -0.7461973398429631 [Eh]
	 Correlation Energy        =      -0.9920404706901640 [Eh]
	 Total Energy              =    -225.8655348808216274 [Eh]

	 ================> DF-SCS-MP2 Energies <==================
	-----------------------------------------------------------
	 SCS Same-Spin Scale       =       0.3333333333333333 [-]
	 SCS Opposite-Spin Scale   =       1.2000000000000000 [-]
	 SCS Same-Spin Energy      =      -0.0819477102824003 [Eh]
	 SCS Opposite-Spin Energy  =      -0.8954368078115557 [Eh]
	 SCS Correlation Energy    =      -0.9773845180939560 [Eh]
	 SCS Total Energy          =    -225.8508789282254270 [Eh]
	-----------------------------------------------------------

  Dipole Moment: [D]
     X:    -1.5226      Y:     1.7399      Z:     0.0001     Total:     2.3120

*** Psi4 exiting successfully. Buy a developer a beer!
