                               Psi4 1.3.2 release

  ==> Input File <==

--------------------------------------------------------------------------
#psi4
#
memory 32 gb

molecule  {
0 1
  N       -1.0175820    -0.3767630     0.0000260
  N        0.0381600    -1.2151070    -0.0000250
  C       -0.6759380     0.9397300     0.0000060
  C        0.7089440     0.9680670    -0.0000050
  C        1.0983770    -0.3824860    -0.0000080
  H       -1.4207453     1.7232832     0.0500220
  H        1.3402470     1.8449540    -0.0000100
  H       -1.9477390    -0.7754960     0.0000400
  H        2.0958970    -0.8015150    -0.0000160
units angstrom
no_reorient  #important for SAPT in psi4, default
symmetry c1  #important for SAPT in psi4, default
}

set PROPERTIES_ORIGIN ["COM"]
properties('MP2/aug-cc-pvtz', properties = ['dipole'])
--------------------------------------------------------------------------

    Molecular point group: c1
  Charge       = 0
  Multiplicity = 1
  Basis Set: AUG-CC-PVTZ
    Blend: AUG-CC-PVTZ
  Basis Set: (AUG-CC-PVTZ AUX)
    Blend: AUG-CC-PVTZ-JKFIT

    Orbital Energies [Eh]
    ---------------------

    Doubly Occupied:

       1A    -15.643500     2A    -15.590609     3A    -11.282136
       4A    -11.255730     5A    -11.225440     6A     -1.371636
       7A     -1.092452     8A     -1.052791     9A     -0.824908
      10A     -0.799126    11A     -0.742520    12A     -0.608091
      13A     -0.605587    14A     -0.592442    15A     -0.563963
      16A     -0.462723    17A     -0.364904    18A     -0.346249

  @DF-RHF Final Energy:  -224.87335565161442

   => Energetics <=

    Nuclear Repulsion Energy =            162.6061507228681080
    One-Electron Energy =                -626.1094000641605817
    Two-Electron Energy =                 238.6298936896780560
    Total Energy =                       -224.8733556516144176
  Basis Set: (AUG-CC-PVTZ AUX)
    Blend: AUG-CC-PVTZ-RI
    Molecular point group: c1

    Geometry (in Angstrom), charge = 0, multiplicity = 1:

       Center              X                  Y                   Z               Mass
    ------------   -----------------  -----------------  -----------------  -----------------
         N           -1.016551191083    -0.347653533663    -0.000714144402    14.003074004430
         N            0.039190808917    -1.185997533663    -0.000765144402    14.003074004430
         C           -0.674907191083     0.968839466337    -0.000734144402    12.000000000000
         C            0.709974808917     0.997176466337    -0.000745144402    12.000000000000
         C            1.099407808917    -0.353376533663    -0.000748144402    12.000000000000
         H           -1.419714491083     1.752392666337     0.049281855598     1.007825032230
         H            1.341277808917     1.874063466337    -0.000750144402     1.007825032230
         H           -1.946708191083    -0.746386533663    -0.000700144402     1.007825032230
         H            2.096927808917    -0.772405533663    -0.000756144402     1.007825032230

  Basis Set: AUG-CC-PVTZ
    Blend: AUG-CC-PVTZ
  Basis Set: (AUG-CC-PVTZ AUX)
    Blend: AUG-CC-PVTZ-JKFIT
	 Reference Energy          =    -224.8733556516144176 [Eh]
	 Singles Energy            =      -0.0000000000000000 [Eh]
	 Same-Spin Energy          =      -0.2458547824622753 [Eh]
	 Opposite-Spin Energy      =      -0.7462199527710731 [Eh]
	 Correlation Energy        =      -0.9920747352333483 [Eh]
	 Total Energy              =    -225.8654303868477768 [Eh]

	 ================> DF-SCS-MP2 Energies <==================
	-----------------------------------------------------------
	 SCS Same-Spin Scale       =       0.3333333333333333 [-]
	 SCS Opposite-Spin Scale   =       1.2000000000000000 [-]
	 SCS Same-Spin Energy      =      -0.0819515941540918 [Eh]
	 SCS Opposite-Spin Energy  =      -0.8954639433252877 [Eh]
	 SCS Correlation Energy    =      -0.9774155374793794 [Eh]
	 SCS Total Energy          =    -225.8507711890937912 [Eh]
	-----------------------------------------------------------

  Dipole Moment: [D]
     X:    -1.5208      Y:     1.7382      Z:     0.0476     Total:     2.3101

*** Psi4 exiting successfully. Buy a developer a beer!
