                               Psi4 1.3.2 release

  ==> Input File <==

--------------------------------------------------------------------------
#psi4
#
memory 32 gb

molecule  {
0 1
  N       -1.0175820    -0.3767630     0.0000260
  N        0.0381600    -1.2151070    -0.0000250
  C       -0.6759380     0.9397300     0.0000060
  C        0.7089440     0.9680670    -0.0000050
  C        1.0983770    -0.3824860    -0.0000080
  H       -1.4207460     1.7232830     0.0000220
  H        1.3402474     1.8449540     0.0499900
  H       -1.9477390    -0.7754960     0.0000400
  H        2.0958970    -0.8015150    -0.0000160
units angstrom
no_reorient  #important for SAPT in psi4, default
symmetry c1  #important for SAPT in psi4, default
}

set PROPERTIES_ORIGIN ["COM"]
properties('MP2/aug-cc-pvtz', properties = ['dipole'])
--------------------------------------------------------------------------

    Molecular point group: c1
  Charge       = 0
  Multiplicity = 1
  Basis Set: AUG-CC-PVTZ
    Blend: AUG-CC-PVTZ
  Basis Set: (AUG-CC-PVTZ AUX)
    Blend: AUG-CC-PVTZ-JKFIT

    Orbital Energies [Eh]
    ---------------------

    Doubly Occupied:

       1A    -15.643516     2A    -15.590580     3A    -11.282093
       4A    -11.255734     5A    -11.225500     6A     -1.371640
       7A     -1.092474     8A     -1.052779     9A     -0.824904
      10A     -0.799096    11A     -0.742711    12A     -0.607973
      13A     -0.605707    14A     -0.592212    15A     -0.564090
      16A     -0.462704    17A     -0.364896    18A     -0.346250

  @DF-RHF Final Energy:  -224.87335837418300

   => Energetics <=

    Nuclear Repulsion Energy =            162.6062324534059940
    One-Electron Energy =                -626.1094628763678429
    Two-Electron Energy =                 238.6298720487788501
    Total Energy =                       -224.8733583741829989
  Basis Set: (AUG-CC-PVTZ AUX)
    Blend: AUG-CC-PVTZ-RI
    Molecular point group: c1

    Geometry (in Angstrom), charge = 0, multiplicity = 1:

       Center              X                  Y                   Z               Mass
    ------------   -----------------  -----------------  -----------------  -----------------
         N           -1.016551186639    -0.347653530700    -0.000714144402    14.003074004430
         N            0.039190813361    -1.185997530700    -0.000765144402    14.003074004430
         C           -0.674907186639     0.968839469300    -0.000734144402    12.000000000000
         C            0.709974813361     0.997176469300    -0.000745144402    12.000000000000
         C            1.099407813361    -0.353376530700    -0.000748144402    12.000000000000
         H           -1.419715186639     1.752392469300    -0.000718144402     1.007825032230
         H            1.341278213361     1.874063469300     0.049249855598     1.007825032230
         H           -1.946708186639    -0.746386530700    -0.000700144402     1.007825032230
         H            2.096927813361    -0.772405530700    -0.000756144402     1.007825032230

  Basis Set: AUG-CC-PVTZ
    Blend: AUG-CC-PVTZ
  Basis Set: (AUG-CC-PVTZ AUX)
    Blend: AUG-CC-PVTZ-JKFIT
	 Reference Energy          =    -224.8733583741829989 [Eh]
	 Singles Energy            =      -0.0000000000000000 [Eh]
	 Same-Spin Energy          =      -0.2458485354211181 [Eh]
	 Opposite-Spin Energy      =      -0.7462086435715923 [Eh]
	 Correlation Energy        =      -0.9920571789927104 [Eh]
	 Total Energy              =    -225.8654155531757226 [Eh]

	 ================> DF-SCS-MP2 Energies <==================
	-----------------------------------------------------------
	 SCS Same-Spin Scale       =       0.3333333333333333 [-]
	 SCS Opposite-Spin Scale   =       1.2000000000000000 [-]
	 SCS Same-Spin Energy      =      -0.0819495118070394 [Eh]
	 SCS Opposite-Spin Energy  =      -0.8954503722859107 [Eh]
	 SCS Correlation Energy    =      -0.9773998840929501 [Eh]
	 SCS Total Energy          =    -225.8507582582759596 [Eh]
	-----------------------------------------------------------

  Dipole Moment: [D]
     X:    -1.5238      Y:     1.7381      Z:     0.0419     Total:     2.3119

*** Psi4 exiting successfully. Buy a developer a beer!
