                               Psi4 1.3.2 release

  ==> Input File <==

--------------------------------------------------------------------------
#psi4
#
memory 32 gb

molecule  {
0 1
  N       -1.0175820    -0.3767630     0.0000260
  N        0.0381600    -1.2151070    -0.0000250
  C       -0.6759380     0.9397300     0.0000060
  C        0.7089440     0.9680670    -0.0000050
  C        1.0983770    -0.3824860    -0.0000080
  H       -1.4207460     1.7232830     0.0000220
  H        1.3402482     1.8449540     0.1499900
  H       -1.9477390    -0.7754960     0.0000400
  H        2.0958970    -0.8015150    -0.0000160
units angstrom
no_reorient  #important for SAPT in psi4, default
symmetry c1  #important for SAPT in psi4, default
}

set PROPERTIES_ORIGIN ["COM"]
properties('MP2/aug-cc-pvtz', properties = ['dipole'])
--------------------------------------------------------------------------

    Molecular point group: c1
  Charge       = 0
  Multiplicity = 1
  Basis Set: AUG-CC-PVTZ
    Blend: AUG-CC-PVTZ
  Basis Set: (AUG-CC-PVTZ AUX)
    Blend: AUG-CC-PVTZ-JKFIT

    Orbital Energies [Eh]
    ---------------------

    Doubly Occupied:

       1A    -15.643719     2A    -15.590697     3A    -11.282364
       4A    -11.255886     5A    -11.226218     6A     -1.371821
       7A     -1.092636     8A     -1.052681     9A     -0.824584
      10A     -0.798773    11A     -0.742454    12A     -0.608447
      13A     -0.605952    14A     -0.589477    15A     -0.564077
      16A     -0.462747    17A     -0.364911    18A     -0.346293

  @DF-RHF Final Energy:  -224.87222374724530

   => Energetics <=

    Nuclear Repulsion Energy =            162.5730505269271760
    One-Electron Energy =                -626.0430769719706632
    Two-Electron Energy =                 238.5978026977981585
    Total Energy =                       -224.8722237472453003
  Basis Set: (AUG-CC-PVTZ AUX)
    Blend: AUG-CC-PVTZ-RI
    Molecular point group: c1

    Geometry (in Angstrom), charge = 0, multiplicity = 1:

       Center              X                  Y                   Z               Mass
    ------------   -----------------  -----------------  -----------------  -----------------
         N           -1.016551198489    -0.347653530700    -0.002195424285    14.003074004430
         N            0.039190801511    -1.185997530700    -0.002246424285    14.003074004430
         C           -0.674907198489     0.968839469300    -0.002215424285    12.000000000000
         C            0.709974801511     0.997176469300    -0.002226424285    12.000000000000
         C            1.099407801511    -0.353376530700    -0.002229424285    12.000000000000
         H           -1.419715198489     1.752392469300    -0.002199424285     1.007825032230
         H            1.341279001511     1.874063469300     0.147768575715     1.007825032230
         H           -1.946708198489    -0.746386530700    -0.002181424285     1.007825032230
         H            2.096927801511    -0.772405530700    -0.002237424285     1.007825032230

  Basis Set: AUG-CC-PVTZ
    Blend: AUG-CC-PVTZ
  Basis Set: (AUG-CC-PVTZ AUX)
    Blend: AUG-CC-PVTZ-JKFIT
	 Reference Energy          =    -224.8722237472453003 [Eh]
	 Singles Energy            =      -0.0000000000000000 [Eh]
	 Same-Spin Energy          =      -0.2458913733694453 [Eh]
	 Opposite-Spin Energy      =      -0.7463059628586084 [Eh]
	 Correlation Energy        =      -0.9921973362280537 [Eh]
	 Total Energy              =    -225.8644210834733599 [Eh]

	 ================> DF-SCS-MP2 Energies <==================
	-----------------------------------------------------------
	 SCS Same-Spin Scale       =       0.3333333333333333 [-]
	 SCS Opposite-Spin Scale   =       1.2000000000000000 [-]
	 SCS Same-Spin Energy      =      -0.0819637911231484 [Eh]
	 SCS Opposite-Spin Energy  =      -0.8955671554303301 [Eh]
	 SCS Correlation Energy    =      -0.9775309465534785 [Eh]
	 SCS Total Energy          =    -225.8497546937987863 [Eh]
	-----------------------------------------------------------

  Dipole Moment: [D]
     X:    -1.5337      Y:     1.7238      Z:     0.1250     Total:     2.3107

*** Psi4 exiting successfully. Buy a developer a beer!
