                               Psi4 1.3.2 release

  ==> Input File <==

--------------------------------------------------------------------------
#psi4
#
memory 32 gb

molecule  {
0 1
  N       -1.0175820    -0.3767630     0.0000260
  N        0.0381600    -1.2151070    -0.0000250
  C       -0.6759380     0.9397300     0.0000060
  C        0.7089440     0.9680670    -0.0000050
  C        1.0983770    -0.3824860    -0.0000080
  H       -1.4207460     1.7232830     0.0000220
  H        1.3402490     1.8449540     0.2499900
  H       -1.9477390    -0.7754960     0.0000400
  H        2.0958970    -0.8015150    -0.0000160
units angstrom
no_reorient  #important for SAPT in psi4, default
symmetry c1  #important for SAPT in psi4, default
}

set PROPERTIES_ORIGIN ["COM"]
properties('MP2/aug-cc-pvtz', properties = ['dipole'])
--------------------------------------------------------------------------

    Molecular point group: c1
  Charge       = 0
  Multiplicity = 1
  Basis Set: AUG-CC-PVTZ
    Blend: AUG-CC-PVTZ
  Basis Set: (AUG-CC-PVTZ AUX)
    Blend: AUG-CC-PVTZ-JKFIT

    Orbital Energies [Eh]
    ---------------------

    Doubly Occupied:

       1A    -15.644119     2A    -15.590931     3A    -11.282900
       4A    -11.256192     5A    -11.227630     6A     -1.372179
       7A     -1.092957     8A     -1.052505     9A     -0.824048
      10A     -0.798159    11A     -0.741972    12A     -0.609136
      13A     -0.606313    14A     -0.584558    15A     -0.563948
      16A     -0.462827    17A     -0.364950    18A     -0.346381

  @DF-RHF Final Energy:  -224.86972944610835

   => Energetics <=

    Nuclear Repulsion Energy =            162.5086388078753146
    One-Electron Energy =                -625.9133240228810564
    Two-Electron Energy =                 238.5349557688974187
    Total Energy =                       -224.8697294461083516
  Basis Set: (AUG-CC-PVTZ AUX)
    Blend: AUG-CC-PVTZ-RI
    Molecular point group: c1

    Geometry (in Angstrom), charge = 0, multiplicity = 1:

       Center              X                  Y                   Z               Mass
    ------------   -----------------  -----------------  -----------------  -----------------
         N           -1.016551210340    -0.347653530700    -0.003676704168    14.003074004430
         N            0.039190789660    -1.185997530700    -0.003727704168    14.003074004430
         C           -0.674907210340     0.968839469300    -0.003696704168    12.000000000000
         C            0.709974789660     0.997176469300    -0.003707704168    12.000000000000
         C            1.099407789660    -0.353376530700    -0.003710704168    12.000000000000
         H           -1.419715210340     1.752392469300    -0.003680704168     1.007825032230
         H            1.341279789660     1.874063469300     0.246287295832     1.007825032230
         H           -1.946708210340    -0.746386530700    -0.003662704168     1.007825032230
         H            2.096927789660    -0.772405530700    -0.003718704168     1.007825032230

  Basis Set: AUG-CC-PVTZ
    Blend: AUG-CC-PVTZ
  Basis Set: (AUG-CC-PVTZ AUX)
    Blend: AUG-CC-PVTZ-JKFIT
	 Reference Energy          =    -224.8697294461083516 [Eh]
	 Singles Energy            =      -0.0000000000000000 [Eh]
	 Same-Spin Energy          =      -0.2459750254411791 [Eh]
	 Opposite-Spin Energy      =      -0.7465248005005187 [Eh]
	 Correlation Energy        =      -0.9924998259416978 [Eh]
	 Total Energy              =    -225.8622292720500582 [Eh]

	 ================> DF-SCS-MP2 Energies <==================
	-----------------------------------------------------------
	 SCS Same-Spin Scale       =       0.3333333333333333 [-]
	 SCS Opposite-Spin Scale   =       1.2000000000000000 [-]
	 SCS Same-Spin Energy      =      -0.0819916751470597 [Eh]
	 SCS Opposite-Spin Energy  =      -0.8958297606006225 [Eh]
	 SCS Correlation Energy    =      -0.9778214357476822 [Eh]
	 SCS Total Energy          =    -225.8475508818560229 [Eh]
	-----------------------------------------------------------

  Dipole Moment: [D]
     X:    -1.5531      Y:     1.6957      Z:     0.2064     Total:     2.3087

*** Psi4 exiting successfully. Buy a developer a beer!
