                               Psi4 1.3.2 release

  ==> Input File <==

--------------------------------------------------------------------------
#psi4
#
memory 32 gb

molecule  {
0 1
  N       -1.0175820    -0.3767630     0.0000260
  N        0.0381600    -1.2151070    -0.0000250
  C       -0.6759380     0.9397300     0.0000060
  C        0.7089440     0.9680670    -0.0000050
  C        1.0983770    -0.3824860    -0.0000080
  H       -1.4207460     1.7232830     0.0000220
  H        1.3402478     1.8449540     0.0999900
  H       -1.9477390    -0.7754960     0.0000400
  H        2.0958970    -0.8015150    -0.0000160
units angstrom
no_reorient  #important for SAPT in psi4, default
symmetry c1  #important for SAPT in psi4, default
}

set PROPERTIES_ORIGIN ["COM"]
properties('MP2/aug-cc-pvtz', properties = ['dipole'])
--------------------------------------------------------------------------

    Molecular point group: c1
  Charge       = 0
  Multiplicity = 1
  Basis Set: AUG-CC-PVTZ
    Blend: AUG-CC-PVTZ
  Basis Set: (AUG-CC-PVTZ AUX)
    Blend: AUG-CC-PVTZ-JKFIT

    Orbital Energies [Eh]
    ---------------------

    Doubly Occupied:

       1A    -15.643592     2A    -15.590624     3A    -11.282195
       4A    -11.255791     5A    -11.225770     6A     -1.371708
       7A     -1.092535     8A     -1.052742     9A     -0.824780
      10A     -0.798974    11A     -0.742613    12A     -0.608164
      13A     -0.605808    14A     -0.591158    15A     -0.564088
      16A     -0.462720    17A     -0.364901    18A     -0.346266

  @DF-RHF Final Energy:  -224.87294239352033

   => Energetics <=

    Nuclear Repulsion Energy =            162.5937102886907724
    One-Electron Energy =                -626.0844473195269302
    Two-Electron Energy =                 238.6177946373158250
    Total Energy =                       -224.8729423935203329
  Basis Set: (AUG-CC-PVTZ AUX)
    Blend: AUG-CC-PVTZ-RI
    Molecular point group: c1

    Geometry (in Angstrom), charge = 0, multiplicity = 1:

       Center              X                  Y                   Z               Mass
    ------------   -----------------  -----------------  -----------------  -----------------
         N           -1.016551192564    -0.347653530700    -0.001454784344    14.003074004430
         N            0.039190807436    -1.185997530700    -0.001505784344    14.003074004430
         C           -0.674907192564     0.968839469300    -0.001474784344    12.000000000000
         C            0.709974807436     0.997176469300    -0.001485784344    12.000000000000
         C            1.099407807436    -0.353376530700    -0.001488784344    12.000000000000
         H           -1.419715192564     1.752392469300    -0.001458784344     1.007825032230
         H            1.341278607436     1.874063469300     0.098509215656     1.007825032230
         H           -1.946708192564    -0.746386530700    -0.001440784344     1.007825032230
         H            2.096927807436    -0.772405530700    -0.001496784344     1.007825032230

  Basis Set: AUG-CC-PVTZ
    Blend: AUG-CC-PVTZ
  Basis Set: (AUG-CC-PVTZ AUX)
    Blend: AUG-CC-PVTZ-JKFIT
	 Reference Energy          =    -224.8729423935203329 [Eh]
	 Singles Energy            =      -0.0000000000000000 [Eh]
	 Same-Spin Energy          =      -0.2458646807403651 [Eh]
	 Opposite-Spin Energy      =      -0.7462438180931223 [Eh]
	 Correlation Energy        =      -0.9921084988334874 [Eh]
	 Total Energy              =    -225.8650508923538212 [Eh]

	 ================> DF-SCS-MP2 Energies <==================
	-----------------------------------------------------------
	 SCS Same-Spin Scale       =       0.3333333333333333 [-]
	 SCS Opposite-Spin Scale   =       1.2000000000000000 [-]
	 SCS Same-Spin Energy      =      -0.0819548935801217 [Eh]
	 SCS Opposite-Spin Energy  =      -0.8954925817117468 [Eh]
	 SCS Correlation Energy    =      -0.9774474752918685 [Eh]
	 SCS Total Energy          =    -225.8503898688122149 [Eh]
	-----------------------------------------------------------

  Dipole Moment: [D]
     X:    -1.5275      Y:     1.7327      Z:     0.0836     Total:     2.3114

*** Psi4 exiting successfully. Buy a developer a beer!
