                               Psi4 1.3.2 release

  ==> Input File <==

--------------------------------------------------------------------------
#psi4
#
memory 32 gb

molecule  {
0 1
  N       -1.0175820    -0.3767630     0.0000260
  N        0.0381600    -1.2151070    -0.0000250
  C       -0.6759380     0.9397300     0.0000060
  C        0.7089440     0.9680670    -0.0000050
  C        1.0983770    -0.3824860    -0.0000080
  H       -1.4207460     1.7232830     0.0000220
  H        1.3402470     1.8449540    -0.0000100
  H       -1.9477390    -0.7754960     0.0000400
  H        2.0958975    -0.8015133    -0.2000160
units angstrom
no_reorient  #important for SAPT in psi4, default
symmetry c1  #important for SAPT in psi4, default
}

set PROPERTIES_ORIGIN ["COM"]
properties('MP2/aug-cc-pvtz', properties = ['dipole'])
--------------------------------------------------------------------------

    Molecular point group: c1
  Charge       = 0
  Multiplicity = 1
  Basis Set: AUG-CC-PVTZ
    Blend: AUG-CC-PVTZ
  Basis Set: (AUG-CC-PVTZ AUX)
    Blend: AUG-CC-PVTZ-JKFIT

    Orbital Energies [Eh]
    ---------------------

    Doubly Occupied:

       1A    -15.643948     2A    -15.591098     3A    -11.282231
       4A    -11.257281     5A    -11.225646     6A     -1.372017
       7A     -1.092456     8A     -1.053001     9A     -0.824488
      10A     -0.797103    11A     -0.742857    12A     -0.610065
      13A     -0.603000    14A     -0.592629    15A     -0.560657
      16A     -0.462987    17A     -0.364593    18A     -0.346417

  @DF-RHF Final Energy:  -224.87088098807430

   => Energetics <=

    Nuclear Repulsion Energy =            162.5430422831830697
    One-Electron Energy =                -625.9829002745256048
    Two-Electron Energy =                 238.5689770032682304
    Total Energy =                       -224.8708809880743047
  Basis Set: (AUG-CC-PVTZ AUX)
    Blend: AUG-CC-PVTZ-RI
    Molecular point group: c1

    Geometry (in Angstrom), charge = 0, multiplicity = 1:

       Center              X                  Y                   Z               Mass
    ------------   -----------------  -----------------  -----------------  -----------------
         N           -1.016551188120    -0.347653555882     0.002989055305    14.003074004430
         N            0.039190811880    -1.185997555882     0.002938055305    14.003074004430
         C           -0.674907188120     0.968839444118     0.002969055305    12.000000000000
         C            0.709974811880     0.997176444118     0.002958055305    12.000000000000
         C            1.099407811880    -0.353376555882     0.002955055305    12.000000000000
         H           -1.419715188120     1.752392444118     0.002985055305     1.007825032230
         H            1.341277811880     1.874063444118     0.002953055305     1.007825032230
         H           -1.946708188120    -0.746386555882     0.003003055305     1.007825032230
         H            2.096928311880    -0.772403855882    -0.197052944695     1.007825032230

  Basis Set: AUG-CC-PVTZ
    Blend: AUG-CC-PVTZ
  Basis Set: (AUG-CC-PVTZ AUX)
    Blend: AUG-CC-PVTZ-JKFIT
	 Reference Energy          =    -224.8708809880743047 [Eh]
	 Singles Energy            =      -0.0000000000000000 [Eh]
	 Same-Spin Energy          =      -0.2460025530505275 [Eh]
	 Opposite-Spin Energy      =      -0.7465418981717167 [Eh]
	 Correlation Energy        =      -0.9925444512222442 [Eh]
	 Total Energy              =    -225.8634254392965488 [Eh]

	 ================> DF-SCS-MP2 Energies <==================
	-----------------------------------------------------------
	 SCS Same-Spin Scale       =       0.3333333333333333 [-]
	 SCS Opposite-Spin Scale   =       1.2000000000000000 [-]
	 SCS Same-Spin Energy      =      -0.0820008510168425 [Eh]
	 SCS Opposite-Spin Energy  =      -0.8958502778060600 [Eh]
	 SCS Correlation Energy    =      -0.9778511288229025 [Eh]
	 SCS Total Energy          =    -225.8487321168971960 [Eh]
	-----------------------------------------------------------

  Dipole Moment: [D]
     X:    -1.5538      Y:     1.7512      Z:    -0.1507     Total:     2.3460

*** Psi4 exiting successfully. Buy a developer a beer!
