                               Psi4 1.3.2 release

  ==> Input File <==

--------------------------------------------------------------------------
#psi4
#
memory 32 gb

molecule  {
0 1
  N       -1.0175820    -0.3767630     0.0000260
  N        0.0381600    -1.2151070    -0.0000250
  C       -0.6759380     0.9397300     0.0000060
  C        0.7089440     0.9680670    -0.0000050
  C        1.0983770    -0.3824860    -0.0000080
  H       -1.4207431     1.7232839     0.2000220
  H        1.3402470     1.8449540    -0.0000100
  H       -1.9477390    -0.7754960     0.0000400
  H        2.0958970    -0.8015150    -0.0000160
units angstrom
no_reorient  #important for SAPT in psi4, default
symmetry c1  #important for SAPT in psi4, default
}

set PROPERTIES_ORIGIN ["COM"]
properties('MP2/aug-cc-pvtz', properties = ['dipole'])
--------------------------------------------------------------------------

    Molecular point group: c1
  Charge       = 0
  Multiplicity = 1
  Basis Set: AUG-CC-PVTZ
    Blend: AUG-CC-PVTZ
  Basis Set: (AUG-CC-PVTZ AUX)
    Blend: AUG-CC-PVTZ-JKFIT

    Orbital Energies [Eh]
    ---------------------

    Doubly Occupied:

       1A    -15.643650     2A    -15.591251     3A    -11.283282
       4A    -11.255956     5A    -11.225892     6A     -1.371913
       7A     -1.092435     8A     -1.052777     9A     -0.824393
      10A     -0.798985    11A     -0.739245    12A     -0.609878
      13A     -0.605159    14A     -0.590757    15A     -0.561950
      16A     -0.463086    17A     -0.365047    18A     -0.346319

  @DF-RHF Final Energy:  -224.87112387028165

   => Energetics <=

    Nuclear Repulsion Energy =            162.5432738209812271
    One-Electron Energy =                -625.9848429610515268
    Two-Electron Energy =                 238.5704452697886779
    Total Energy =                       -224.8711238702816502
  Basis Set: (AUG-CC-PVTZ AUX)
    Blend: AUG-CC-PVTZ-RI
    Molecular point group: c1

    Geometry (in Angstrom), charge = 0, multiplicity = 1:

       Center              X                  Y                   Z               Mass
    ------------   -----------------  -----------------  -----------------  -----------------
         N           -1.016551223671    -0.347653544032    -0.002936064227    14.003074004430
         N            0.039190776329    -1.185997544032    -0.002987064227    14.003074004430
         C           -0.674907223671     0.968839455968    -0.002956064227    12.000000000000
         C            0.709974776329     0.997176455968    -0.002967064227    12.000000000000
         C            1.099407776329    -0.353376544032    -0.002970064227    12.000000000000
         H           -1.419712323671     1.752393355968     0.197059935773     1.007825032230
         H            1.341277776329     1.874063455968    -0.002972064227     1.007825032230
         H           -1.946708223671    -0.746386544032    -0.002922064227     1.007825032230
         H            2.096927776329    -0.772405544032    -0.002978064227     1.007825032230

  Basis Set: AUG-CC-PVTZ
    Blend: AUG-CC-PVTZ
  Basis Set: (AUG-CC-PVTZ AUX)
    Blend: AUG-CC-PVTZ-JKFIT
	 Reference Energy          =    -224.8711238702816502 [Eh]
	 Singles Energy            =      -0.0000000000000000 [Eh]
	 Same-Spin Energy          =      -0.2460267256427026 [Eh]
	 Opposite-Spin Energy      =      -0.7465783904041343 [Eh]
	 Correlation Energy        =      -0.9926051160468370 [Eh]
	 Total Energy              =    -225.8637289863284821 [Eh]

	 ================> DF-SCS-MP2 Energies <==================
	-----------------------------------------------------------
	 SCS Same-Spin Scale       =       0.3333333333333333 [-]
	 SCS Opposite-Spin Scale   =       1.2000000000000000 [-]
	 SCS Same-Spin Energy      =      -0.0820089085475675 [Eh]
	 SCS Opposite-Spin Energy  =      -0.8958940684849611 [Eh]
	 SCS Correlation Energy    =      -0.9779029770325287 [Eh]
	 SCS Total Energy          =    -225.8490268473141782 [Eh]
	-----------------------------------------------------------

  Dipole Moment: [D]
     X:    -1.4942      Y:     1.7133      Z:     0.1881     Total:     2.2811

*** Psi4 exiting successfully. Buy a developer a beer!
