                               Psi4 1.4a3.dev225

  ==> Input File <==

--------------------------------------------------------------------------
#psi4
#
memory 32 gb

molecule  {
0 1
  S       -1.4659490    -0.0144420    -0.1375240
  O       -1.8344192    -0.1342775     1.4399433
  O       -1.9437900     1.2976660    -0.5724050
  O       -1.8964760    -1.2508500    -0.7695120
  C        0.3016350    -0.0022080    -0.0778240
  C        0.9828550    -1.2195450    -0.0166360
  C        0.9713380     1.2224880    -0.0767040
  C        2.3757070    -1.2011200     0.0524330
  C        2.3651070     1.2208170    -0.0119400
  C        3.0655130     0.0142220     0.0587080
  H        0.4312050    -2.1548360    -0.0414070
  H        0.4101370     2.1494950    -0.1500750
  H        2.9234940    -2.1386920     0.0978740
  H        2.9044060     2.1644160    -0.0189600
  H        4.1513480     0.0204100     0.1091410
  H       -2.3045580     0.6938590     1.6959880
units angstrom
no_reorient  #important for SAPT in psi4, default
symmetry c1  #important for SAPT in psi4, default
}

set PROPERTIES_ORIGIN ["COM"]
properties('MP2/aug-cc-pvtz', properties = ['dipole'])
--------------------------------------------------------------------------

    Molecular point group: c1
  Charge       = 0
  Multiplicity = 1
  Basis Set: AUG-CC-PVTZ
    Blend: AUG-CC-PVTZ
  Basis Set: (AUG-CC-PVTZ AUX)
    Blend: AUG-CC-PVTZ-JKFIT

    Orbital Energies [Eh]
    ---------------------

    Doubly Occupied:

       1A    -92.232276     2A    -20.634461     3A    -20.567680
       4A    -20.563636     5A    -11.290591     6A    -11.276444
       7A    -11.275855     8A    -11.271915     9A    -11.265086
      10A    -11.264770    11A     -9.195243    12A     -6.880940
      13A     -6.879611    14A     -6.879351    15A     -1.501045
      16A     -1.385327    17A     -1.355043    18A     -1.188442
      19A     -1.067057    20A     -1.048413    21A     -0.929278
      22A     -0.861011    23A     -0.834033    24A     -0.761025
      25A     -0.736399    26A     -0.698193    27A     -0.685228
      28A     -0.660548    29A     -0.646677    30A     -0.628164
      31A     -0.620659    32A     -0.582969    33A     -0.552481
      34A     -0.538618    35A     -0.528315    36A     -0.521074
      37A     -0.508310    38A     -0.488008    39A     -0.480979
      40A     -0.375846    41A     -0.366395

  @DF-RHF Final Energy:  -852.95826386764395

   => Energetics <=

    Nuclear Repulsion Energy =            634.8861502194239392
    One-Electron Energy =               -2431.6340361687630320
    Two-Electron Energy =                 943.7896220816950290
    Total Energy =                       -852.9582638676439501
  Basis Set: (AUG-CC-PVTZ AUX)
    Blend: AUG-CC-PVTZ-RI
    Molecular point group: c1

    Geometry (in Angstrom), charge = 0, multiplicity = 1:

       Center              X                  Y                   Z               Mass
    ------------   -----------------  -----------------  -----------------  -----------------
         S           -1.413374298402    -0.009983680919    -0.124949897921    31.972071174400
         O           -1.781844498402    -0.129819180919     1.452517402079    15.994914619570
         O           -1.891215298402     1.302124319081    -0.559830897921    15.994914619570
         O           -1.843901298402    -1.246391680919    -0.756937897921    15.994914619570
         C            0.354209701598     0.002250319081    -0.065249897921    12.000000000000
         C            1.035429701598    -1.215086680919    -0.004061897921    12.000000000000
         C            1.023912701598     1.226946319081    -0.064129897921    12.000000000000
         C            2.428281701598    -1.196661680919     0.065007102079    12.000000000000
         C            2.417681701598     1.225275319081     0.000634102079    12.000000000000
         C            3.118087701598     0.018680319081     0.071282102079    12.000000000000
         H            0.483779701598    -2.150377680919    -0.028832897921     1.007825032230
         H            0.462711701598     2.153953319081    -0.137500897921     1.007825032230
         H            2.976068701598    -2.134233680919     0.110448102079     1.007825032230
         H            2.956980701598     2.168874319081    -0.006385897921     1.007825032230
         H            4.203922701598     0.024868319081     0.121715102079     1.007825032230
         H           -2.251983298402     0.698317319081     1.708562102079     1.007825032230

  Basis Set: AUG-CC-PVTZ
    Blend: AUG-CC-PVTZ
  Basis Set: (AUG-CC-PVTZ AUX)
    Blend: AUG-CC-PVTZ-JKFIT
	 Reference Energy          =    -852.9582638676439501 [Eh]
	 Singles Energy            =      -0.0000000000000000 [Eh]
	 Same-Spin Energy          =      -0.5325132482230035 [Eh]
	 Opposite-Spin Energy      =      -1.5531454101916389 [Eh]
	 Correlation Energy        =      -2.0856586584146424 [Eh]
	 Total Energy              =    -855.0439225260586227 [Eh]

	 ================> DF-SCS-MP2 Energies <==================
	-----------------------------------------------------------
	 SCS Same-Spin Scale       =       0.3333333333333333 [-]
	 SCS Opposite-Spin Scale   =       1.2000000000000000 [-]
	 SCS Same-Spin Energy      =      -0.1775044160743345 [Eh]
	 SCS Opposite-Spin Energy  =      -1.8637744922299666 [Eh]
	 SCS Correlation Energy    =      -2.0412789083043013 [Eh]
	 SCS Total Energy          =    -854.9995427759482709 [Eh]
	-----------------------------------------------------------

  Dipole Moment: [D]
     X:     3.7053      Y:     1.0497      Z:     2.0884     Total:     4.3809

*** Psi4 exiting successfully. Buy a developer a beer!
