                               Psi4 1.3.2 release

  ==> Input File <==

--------------------------------------------------------------------------
#psi4
#
memory 32 gb

molecule  {
0 1
  S       -1.4609419    -0.1376342    -0.1335417
  O       -1.8394920    -0.1365420     1.4591290
  O       -1.9435910     1.2980210    -0.5718830
  O       -1.8964450    -1.2505210    -0.7700040
  C        0.3016450    -0.0021640    -0.0777860
  C        0.9828110    -1.2195380    -0.0166250
  C        0.9713990     1.2224970    -0.0766470
  C        2.3756580    -1.2011840     0.0524460
  C        2.3651700     1.2207630    -0.0118790
  C        3.0655170     0.0141320     0.0587200
  H        0.4311260    -2.1548100    -0.0413950
  H        0.4102460     2.1495350    -0.1499850
  H        2.9234210    -2.1387710     0.0978390
  H        2.9045270     2.1643280    -0.0189110
  H        4.1513520     0.0202670     0.1091490
  H       -2.3021640     0.6943620     1.6969290
units angstrom
no_reorient  #important for SAPT in psi4, default
symmetry c1  #important for SAPT in psi4, default
}

set PROPERTIES_ORIGIN ["COM"]
properties('MP2/aug-cc-pvtz', properties = ['dipole'])
--------------------------------------------------------------------------

    Molecular point group: c1
  Charge       = 0
  Multiplicity = 1
  Basis Set: AUG-CC-PVTZ
    Blend: AUG-CC-PVTZ
  Basis Set: (AUG-CC-PVTZ AUX)
    Blend: AUG-CC-PVTZ-JKFIT

    Orbital Energies [Eh]
    ---------------------

    Doubly Occupied:

       1A    -92.228376     2A    -20.629903     3A    -20.590068
       4A    -20.540359     5A    -11.292238     6A    -11.277248
       7A    -11.276984     8A    -11.272758     9A    -11.265759
      10A    -11.265545    11A     -9.193992    12A     -6.879518
      13A     -6.878438    14A     -6.877582    15A     -1.526240
      16A     -1.410992    17A     -1.299169    18A     -1.189235
      19A     -1.068561    20A     -1.048989    21A     -0.930992
      22A     -0.861723    23A     -0.836619    24A     -0.766023
      25A     -0.740223    26A     -0.698606    27A     -0.691427
      28A     -0.659149    29A     -0.648265    30A     -0.632840
      31A     -0.620896    32A     -0.584448    33A     -0.563969
      34A     -0.541996    35A     -0.531371    36A     -0.528763
      37A     -0.499749    38A     -0.466669    39A     -0.460782
      40A     -0.376902    41A     -0.367070

  @DF-RHF Final Energy:  -852.93010051656177

   => Energetics <=

    Nuclear Repulsion Energy =            634.3299331175526277
    One-Electron Energy =               -2430.4791929952530154
    Two-Electron Energy =                 943.2191593611386224
    Total Energy =                       -852.9301005165617653
  Basis Set: (AUG-CC-PVTZ AUX)
    Blend: AUG-CC-PVTZ-RI
    Molecular point group: c1

    Geometry (in Angstrom), charge = 0, multiplicity = 1:

       Center              X                  Y                   Z               Mass
    ------------   -----------------  -----------------  -----------------  -----------------
         S           -1.408909353583    -0.108078347853    -0.123740020419    31.972071174400
         O           -1.787459453583    -0.106986147853     1.468930679581    15.994914619570
         O           -1.891558453583     1.327576852147    -0.562081320419    15.994914619570
         O           -1.844412453583    -1.220965147853    -0.760202320419    15.994914619570
         C            0.353677546417     0.027391852147    -0.067984320419    12.000000000000
         C            1.034843546417    -1.189982147853    -0.006823320419    12.000000000000
         C            1.023431546417     1.252052852147    -0.066845320419    12.000000000000
         C            2.427690546417    -1.171628147853     0.062247679581    12.000000000000
         C            2.417202546417     1.250318852147    -0.002077320419    12.000000000000
         C            3.117549546417     0.043687852147     0.068521679581    12.000000000000
         H            0.483158546417    -2.125254147853    -0.031593320419     1.007825032230
         H            0.462278546417     2.179090852147    -0.140183320419     1.007825032230
         H            2.975453546417    -2.109215147853     0.107640679581     1.007825032230
         H            2.956559546417     2.193883852147    -0.009109320419     1.007825032230
         H            4.203384546417     0.049822852147     0.118950679581     1.007825032230
         H           -2.250131453583     0.723917852147     1.706730679581     1.007825032230

  Basis Set: AUG-CC-PVTZ
    Blend: AUG-CC-PVTZ
  Basis Set: (AUG-CC-PVTZ AUX)
    Blend: AUG-CC-PVTZ-JKFIT
	 Reference Energy          =    -852.9301005165617653 [Eh]
	 Singles Energy            =      -0.0000000000000000 [Eh]
	 Same-Spin Energy          =      -0.5318169781289290 [Eh]
	 Opposite-Spin Energy      =      -1.5527130768446054 [Eh]
	 Correlation Energy        =      -2.0845300549735342 [Eh]
	 Total Energy              =    -855.0146305715353492 [Eh]

	 ================> DF-SCS-MP2 Energies <==================
	-----------------------------------------------------------
	 SCS Same-Spin Scale       =       0.3333333333333333 [-]
	 SCS Opposite-Spin Scale   =       1.2000000000000000 [-]
	 SCS Same-Spin Energy      =      -0.1772723260429763 [Eh]
	 SCS Opposite-Spin Energy  =      -1.8632556922135264 [Eh]
	 SCS Correlation Energy    =      -2.0405280182565027 [Eh]
	 SCS Total Energy          =    -854.9706285348182746 [Eh]
	-----------------------------------------------------------

  Dipole Moment: [D]
     X:     3.8964      Y:    -0.0535      Z:     1.9850     Total:     4.3732

*** Psi4 exiting successfully. Buy a developer a beer!
