                               Psi4 1.3.2 release

  ==> Input File <==

--------------------------------------------------------------------------
#psi4
#
memory 32 gb

molecule  {
0 1
  S       -1.4659670    -0.0143510    -0.1375590
  O       -1.9073557     0.0210882     1.4460395
  O       -1.9435910     1.2980210    -0.5718830
  O       -1.8964450    -1.2505210    -0.7700040
  C        0.3016450    -0.0021640    -0.0777860
  C        0.9828110    -1.2195380    -0.0166250
  C        0.9713990     1.2224970    -0.0766470
  C        2.3756580    -1.2011840     0.0524460
  C        2.3651700     1.2207630    -0.0118790
  C        3.0655170     0.0141320     0.0587200
  H        0.4311260    -2.1548100    -0.0413950
  H        0.4102460     2.1495350    -0.1499850
  H        2.9234210    -2.1387710     0.0978390
  H        2.9045270     2.1643280    -0.0189110
  H        4.1513520     0.0202670     0.1091490
  H       -2.3021640     0.6943620     1.6969290
units angstrom
no_reorient  #important for SAPT in psi4, default
symmetry c1  #important for SAPT in psi4, default
}

set PROPERTIES_ORIGIN ["COM"]
properties('MP2/aug-cc-pvtz', properties = ['dipole'])
--------------------------------------------------------------------------

    Molecular point group: c1
  Charge       = 0
  Multiplicity = 1
  Basis Set: AUG-CC-PVTZ
    Blend: AUG-CC-PVTZ
  Basis Set: (AUG-CC-PVTZ AUX)
    Blend: AUG-CC-PVTZ-JKFIT

    Orbital Energies [Eh]
    ---------------------

    Doubly Occupied:

       1A    -92.237658     2A    -20.608589     3A    -20.574302
       4A    -20.558637     5A    -11.295268     6A    -11.279874
       7A    -11.279731     8A    -11.275280     9A    -11.267535
      10A    -11.267259    11A     -9.199754    12A     -6.885555
      13A     -6.884083    14A     -6.883796    15A     -1.508268
      16A     -1.409190    17A     -1.353612    18A     -1.191754
      19A     -1.071504    20A     -1.051343    21A     -0.947173
      22A     -0.863957    23A     -0.853937    24A     -0.776980
      25A     -0.738725    26A     -0.696783    27A     -0.685772
      28A     -0.661902    29A     -0.648949    30A     -0.628942
      31A     -0.623364    32A     -0.581040    33A     -0.554443
      34A     -0.541783    35A     -0.531131    36A     -0.521744
      37A     -0.509297    38A     -0.489747    39A     -0.480197
      40A     -0.379761    41A     -0.368992

  @DF-RHF Final Energy:  -852.93050480115085

   => Energetics <=

    Nuclear Repulsion Energy =            634.5423643740065245
    One-Electron Energy =               -2430.6105141014209039
    Two-Electron Energy =                 943.1376449262636470
    Total Energy =                       -852.9305048011508461
  Basis Set: (AUG-CC-PVTZ AUX)
    Blend: AUG-CC-PVTZ-RI
    Molecular point group: c1

    Geometry (in Angstrom), charge = 0, multiplicity = 1:

       Center              X                  Y                   Z               Mass
    ------------   -----------------  -----------------  -----------------  -----------------
         S           -1.406047698857    -0.025698608769    -0.125619353416    31.972071174400
         O           -1.847436398857     0.009740591231     1.457979146584    15.994914619570
         O           -1.883671698857     1.286673391231    -0.559943353416    15.994914619570
         O           -1.836525698857    -1.261868608769    -0.758064353416    15.994914619570
         C            0.361564301143    -0.013511608769    -0.065846353416    12.000000000000
         C            1.042730301143    -1.230885608769    -0.004685353416    12.000000000000
         C            1.031318301143     1.211149391231    -0.064707353416    12.000000000000
         C            2.435577301143    -1.212531608769     0.064385646584    12.000000000000
         C            2.425089301143     1.209415391231     0.000060646584    12.000000000000
         C            3.125436301143     0.002784391231     0.070659646584    12.000000000000
         H            0.491045301143    -2.166157608769    -0.029455353416     1.007825032230
         H            0.470165301143     2.138187391231    -0.138045353416     1.007825032230
         H            2.983340301143    -2.150118608769     0.109778646584     1.007825032230
         H            2.964446301143     2.152980391231    -0.006971353416     1.007825032230
         H            4.211271301143     0.008919391231     0.121088646584     1.007825032230
         H           -2.242244698857     0.683014391231     1.708868646584     1.007825032230

  Basis Set: AUG-CC-PVTZ
    Blend: AUG-CC-PVTZ
  Basis Set: (AUG-CC-PVTZ AUX)
    Blend: AUG-CC-PVTZ-JKFIT
	 Reference Energy          =    -852.9305048011508461 [Eh]
	 Singles Energy            =      -0.0000000000000000 [Eh]
	 Same-Spin Energy          =      -0.5303094788290362 [Eh]
	 Opposite-Spin Energy      =      -1.5488768666643096 [Eh]
	 Correlation Energy        =      -2.0791863454933459 [Eh]
	 Total Energy              =    -855.0096911466441725 [Eh]

	 ================> DF-SCS-MP2 Energies <==================
	-----------------------------------------------------------
	 SCS Same-Spin Scale       =       0.3333333333333333 [-]
	 SCS Opposite-Spin Scale   =       1.2000000000000000 [-]
	 SCS Same-Spin Energy      =      -0.1767698262763454 [Eh]
	 SCS Opposite-Spin Energy  =      -1.8586522399971714 [Eh]
	 SCS Correlation Energy    =      -2.0354220662735170 [Eh]
	 SCS Total Energy          =    -854.9659268674244004 [Eh]
	-----------------------------------------------------------

  Dipole Moment: [D]
     X:     4.0921      Y:     0.7203      Z:     1.8150     Total:     4.5342

*** Psi4 exiting successfully. Buy a developer a beer!
