                               Psi4 1.3.2 release

  ==> Input File <==

--------------------------------------------------------------------------
#psi4
#
memory 32 gb

molecule  {
0 1
  S       -1.5156716     0.0891006    -0.1371448
  O       -1.8394920    -0.1365420     1.4591290
  O       -1.9435910     1.2980210    -0.5718830
  O       -1.8964450    -1.2505210    -0.7700040
  C        0.3016450    -0.0021640    -0.0777860
  C        0.9828110    -1.2195380    -0.0166250
  C        0.9713990     1.2224970    -0.0766470
  C        2.3756580    -1.2011840     0.0524460
  C        2.3651700     1.2207630    -0.0118790
  C        3.0655170     0.0141320     0.0587200
  H        0.4311260    -2.1548100    -0.0413950
  H        0.4102460     2.1495350    -0.1499850
  H        2.9234210    -2.1387710     0.0978390
  H        2.9045270     2.1643280    -0.0189110
  H        4.1513520     0.0202670     0.1091490
  H       -2.3021640     0.6943620     1.6969290
units angstrom
no_reorient  #important for SAPT in psi4, default
symmetry c1  #important for SAPT in psi4, default
}

set PROPERTIES_ORIGIN ["COM"]
properties('MP2/aug-cc-pvtz', properties = ['dipole'])
--------------------------------------------------------------------------

    Molecular point group: c1
  Charge       = 0
  Multiplicity = 1
  Basis Set: AUG-CC-PVTZ
    Blend: AUG-CC-PVTZ
  Basis Set: (AUG-CC-PVTZ AUX)
    Blend: AUG-CC-PVTZ-JKFIT

    Orbital Energies [Eh]
    ---------------------

    Doubly Occupied:

       1A    -92.229931     2A    -20.639342     3A    -20.597629
       4A    -20.547085     5A    -11.289155     6A    -11.271552
       7A    -11.270195     8A    -11.266854     9A    -11.261805
      10A    -11.261335    11A     -9.195133    12A     -6.880904
      13A     -6.879724    14A     -6.878530    15A     -1.537512
      16A     -1.415297    17A     -1.326801    18A     -1.182534
      19A     -1.057425    20A     -1.043939    21A     -0.919586
      22A     -0.856440    23A     -0.829634    24A     -0.756329
      25A     -0.747332    26A     -0.708598    27A     -0.692813
      28A     -0.662102    29A     -0.647474    30A     -0.638211
      31A     -0.616674    32A     -0.587023    33A     -0.560189
      34A     -0.546719    35A     -0.532176    36A     -0.524505
      37A     -0.504214    38A     -0.478462    39A     -0.462812
      40A     -0.370276    41A     -0.362476

  @DF-RHF Final Energy:  -852.93349725781661

   => Energetics <=

    Nuclear Repulsion Energy =            633.6158227665393952
    One-Electron Energy =               -2429.0251843713822382
    Two-Electron Energy =                 942.4758643470262314
    Total Energy =                       -852.9334972578166116
  Basis Set: (AUG-CC-PVTZ AUX)
    Blend: AUG-CC-PVTZ-RI
    Molecular point group: c1

    Geometry (in Angstrom), charge = 0, multiplicity = 1:

       Center              X                  Y                   Z               Mass
    ------------   -----------------  -----------------  -----------------  -----------------
         S           -1.452564495573     0.072776652049    -0.126614032923    31.972071174400
         O           -1.776384895573    -0.152865947951     1.469659767077    15.994914619570
         O           -1.880483895573     1.281697052049    -0.561352232923    15.994914619570
         O           -1.833337895573    -1.266844947951    -0.759473232923    15.994914619570
         C            0.364752104427    -0.018487947951    -0.067255232923    12.000000000000
         C            1.045918104427    -1.235861947951    -0.006094232923    12.000000000000
         C            1.034506104427     1.206173052049    -0.066116232923    12.000000000000
         C            2.438765104427    -1.217507947951     0.062976767077    12.000000000000
         C            2.428277104427     1.204439052049    -0.001348232923    12.000000000000
         C            3.128624104427    -0.002191947951     0.069250767077    12.000000000000
         H            0.494233104427    -2.171133947951    -0.030864232923     1.007825032230
         H            0.473353104427     2.133211052049    -0.139454232923     1.007825032230
         H            2.986528104427    -2.155094947951     0.108369767077     1.007825032230
         H            2.967634104427     2.148004052049    -0.008380232923     1.007825032230
         H            4.214459104427     0.003943052049     0.119679767077     1.007825032230
         H           -2.239056895573     0.678038052049     1.707459767077     1.007825032230

  Basis Set: AUG-CC-PVTZ
    Blend: AUG-CC-PVTZ
  Basis Set: (AUG-CC-PVTZ AUX)
    Blend: AUG-CC-PVTZ-JKFIT
	 Reference Energy          =    -852.9334972578166116 [Eh]
	 Singles Energy            =      -0.0000000000000000 [Eh]
	 Same-Spin Energy          =      -0.5320317292750860 [Eh]
	 Opposite-Spin Energy      =      -1.5533192359320138 [Eh]
	 Correlation Energy        =      -2.0853509652071001 [Eh]
	 Total Energy              =    -855.0188482230237241 [Eh]

	 ================> DF-SCS-MP2 Energies <==================
	-----------------------------------------------------------
	 SCS Same-Spin Scale       =       0.3333333333333333 [-]
	 SCS Opposite-Spin Scale   =       1.2000000000000000 [-]
	 SCS Same-Spin Energy      =      -0.1773439097583620 [Eh]
	 SCS Opposite-Spin Energy  =      -1.8639830831184165 [Eh]
	 SCS Correlation Energy    =      -2.0413269928767788 [Eh]
	 SCS Total Energy          =    -854.9748242506933593 [Eh]
	-----------------------------------------------------------

  Dipole Moment: [D]
     X:     3.1636      Y:     1.9666      Z:     2.0184     Total:     4.2367

*** Psi4 exiting successfully. Buy a developer a beer!
