                               Psi4 1.3.2 release

  ==> Input File <==

--------------------------------------------------------------------------
#psi4
#
memory 32 gb

molecule  {
0 1
  S       -1.4659670    -0.0143510    -0.1375590
  O       -1.8394920    -0.1365420     1.4591290
  O       -1.9435910     1.2980210    -0.5718830
  O       -1.8964450    -1.2505210    -0.7700040
  C        0.2017045    -0.0028531    -0.0811656
  C        0.9828110    -1.2195380    -0.0166250
  C        0.9713990     1.2224970    -0.0766470
  C        2.3756580    -1.2011840     0.0524460
  C        2.3651700     1.2207630    -0.0118790
  C        3.0655170     0.0141320     0.0587200
  H        0.4311260    -2.1548100    -0.0413950
  H        0.4102460     2.1495350    -0.1499850
  H        2.9234210    -2.1387710     0.0978390
  H        2.9045270     2.1643280    -0.0189110
  H        4.1513520     0.0202670     0.1091490
  H       -2.3021640     0.6943620     1.6969290
units angstrom
no_reorient  #important for SAPT in psi4, default
symmetry c1  #important for SAPT in psi4, default
}

set PROPERTIES_ORIGIN ["COM"]
properties('MP2/aug-cc-pvtz', properties = ['dipole'])
--------------------------------------------------------------------------

    Molecular point group: c1
  Charge       = 0
  Multiplicity = 1
  Basis Set: AUG-CC-PVTZ
    Blend: AUG-CC-PVTZ
  Basis Set: (AUG-CC-PVTZ AUX)
    Blend: AUG-CC-PVTZ-JKFIT

    Orbital Energies [Eh]
    ---------------------

    Doubly Occupied:

       1A    -92.231826     2A    -20.630137     3A    -20.567038
       4A    -20.562714     5A    -11.290164     6A    -11.287557
       7A    -11.286893     8A    -11.279264     9A    -11.266562
      10A    -11.266254    11A     -9.195691    12A     -6.881294
      13A     -6.880357    14A     -6.879791    15A     -1.498499
      16A     -1.382310    17A     -1.355004    18A     -1.181654
      19A     -1.076221    20A     -1.045731    21A     -0.941148
      22A     -0.856447    23A     -0.831724    24A     -0.760991
      25A     -0.734601    26A     -0.703525    27A     -0.685949
      28A     -0.659535    29A     -0.645454    30A     -0.628215
      31A     -0.615118    32A     -0.580863    33A     -0.554327
      34A     -0.533952    35A     -0.521496    36A     -0.520002
      37A     -0.505990    38A     -0.495402    39A     -0.485427
      40A     -0.374310    41A     -0.367013

  @DF-RHF Final Energy:  -852.94444774723286

   => Energetics <=

    Nuclear Repulsion Energy =            634.9183253127079070
    One-Electron Energy =               -2431.6326474250590763
    Two-Electron Energy =                 943.7698743651181985
    Total Energy =                       -852.9444477472328572
  Basis Set: (AUG-CC-PVTZ AUX)
    Blend: AUG-CC-PVTZ-RI
    Molecular point group: c1

    Geometry (in Angstrom), charge = 0, multiplicity = 1:

       Center              X                  Y                   Z               Mass
    ------------   -----------------  -----------------  -----------------  -----------------
         S           -1.405327387460    -0.009689175153    -0.126687747164    31.972071174400
         O           -1.778852387460    -0.131880175153     1.470000252836    15.994914619570
         O           -1.882951387460     1.302682824847    -0.561011747164    15.994914619570
         O           -1.835805387460    -1.245859175153    -0.759132747164    15.994914619570
         C            0.262344112540     0.001808724847    -0.070294347164    12.000000000000
         C            1.043450612540    -1.214876175153    -0.005753747164    12.000000000000
         C            1.032038612540     1.227158824847    -0.065775747164    12.000000000000
         C            2.436297612540    -1.196522175153     0.063317252836    12.000000000000
         C            2.425809612540     1.225424824847    -0.001007747164    12.000000000000
         C            3.126156612540     0.018793824847     0.069591252836    12.000000000000
         H            0.491765612540    -2.150148175153    -0.030523747164     1.007825032230
         H            0.470885612540     2.154196824847    -0.139113747164     1.007825032230
         H            2.984060612540    -2.134109175153     0.108710252836     1.007825032230
         H            2.965166612540     2.168989824847    -0.008039747164     1.007825032230
         H            4.211991612540     0.024928824847     0.120020252836     1.007825032230
         H           -2.241524387460     0.699023824847     1.707800252836     1.007825032230

  Basis Set: AUG-CC-PVTZ
    Blend: AUG-CC-PVTZ
  Basis Set: (AUG-CC-PVTZ AUX)
    Blend: AUG-CC-PVTZ-JKFIT
	 Reference Energy          =    -852.9444477472328572 [Eh]
	 Singles Energy            =      -0.0000000000000000 [Eh]
	 Same-Spin Energy          =      -0.5332317492329020 [Eh]
	 Opposite-Spin Energy      =      -1.5550840971584883 [Eh]
	 Correlation Energy        =      -2.0883158463913905 [Eh]
	 Total Energy              =    -855.0327635936242814 [Eh]

	 ================> DF-SCS-MP2 Energies <==================
	-----------------------------------------------------------
	 SCS Same-Spin Scale       =       0.3333333333333333 [-]
	 SCS Opposite-Spin Scale   =       1.2000000000000000 [-]
	 SCS Same-Spin Energy      =      -0.1777439164109673 [Eh]
	 SCS Opposite-Spin Energy  =      -1.8661009165901858 [Eh]
	 SCS Correlation Energy    =      -2.0438448330011534 [Eh]
	 SCS Total Energy          =    -854.9882925802339741 [Eh]
	-----------------------------------------------------------

  Dipole Moment: [D]
     X:     4.0194      Y:     1.0493      Z:     1.9856     Total:     4.6042

*** Psi4 exiting successfully. Buy a developer a beer!
