                               Psi4 1.3.2 release

  ==> Input File <==

--------------------------------------------------------------------------
#psi4
#
memory 32 gb

molecule  {
0 1
  S       -1.4180822    -0.1183979    -0.1301943
  O       -1.8394920    -0.1365420     1.4591290
  O       -1.9435910     1.2980210    -0.5718830
  O       -1.8964450    -1.2505210    -0.7700040
  C        0.3016450    -0.0021640    -0.0777860
  C        0.9828110    -1.2195380    -0.0166250
  C        0.9713990     1.2224970    -0.0766470
  C        2.3756580    -1.2011840     0.0524460
  C        2.3651700     1.2207630    -0.0118790
  C        3.0655170     0.0141320     0.0587200
  H        0.4311260    -2.1548100    -0.0413950
  H        0.4102460     2.1495350    -0.1499850
  H        2.9234210    -2.1387710     0.0978390
  H        2.9045270     2.1643280    -0.0189110
  H        4.1513520     0.0202670     0.1091490
  H       -2.3021640     0.6943620     1.6969290
units angstrom
no_reorient  #important for SAPT in psi4, default
symmetry c1  #important for SAPT in psi4, default
}

set PROPERTIES_ORIGIN ["COM"]
properties('MP2/aug-cc-pvtz', properties = ['dipole'])
--------------------------------------------------------------------------

    Molecular point group: c1
  Charge       = 0
  Multiplicity = 1
  Basis Set: AUG-CC-PVTZ
    Blend: AUG-CC-PVTZ
  Basis Set: (AUG-CC-PVTZ AUX)
    Blend: AUG-CC-PVTZ-JKFIT

    Orbital Energies [Eh]
    ---------------------

    Doubly Occupied:

       1A    -92.229164     2A    -20.626660     3A    -20.582100
       4A    -20.540245     5A    -11.293667     6A    -11.282526
       7A    -11.282352     8A    -11.277859     9A    -11.269152
      10A    -11.268927    11A     -9.194050    12A     -6.879420
      13A     -6.878463    14A     -6.877788    15A     -1.506122
      16A     -1.399258    17A     -1.298874    18A     -1.195135
      19A     -1.078164    20A     -1.053339    21A     -0.937839
      22A     -0.866562    23A     -0.836636    24A     -0.766784
      25A     -0.735151    26A     -0.698236    27A     -0.686817
      28A     -0.660760    29A     -0.650116    30A     -0.626158
      31A     -0.621575    32A     -0.582579    33A     -0.560227
      34A     -0.539726    35A     -0.533996    36A     -0.526098
      37A     -0.501215    38A     -0.466370    39A     -0.461693
      40A     -0.382269    41A     -0.370775

  @DF-RHF Final Energy:  -852.93458148013656

   => Energetics <=

    Nuclear Repulsion Energy =            634.8095865066154602
    One-Electron Energy =               -2431.4386379910015421
    Two-Electron Energy =                 943.6944700042495242
    Total Energy =                       -852.9345814801365577
  Basis Set: (AUG-CC-PVTZ AUX)
    Blend: AUG-CC-PVTZ-RI
    Molecular point group: c1

    Geometry (in Angstrom), charge = 0, multiplicity = 1:

       Center              X                  Y                   Z               Mass
    ------------   -----------------  -----------------  -----------------  -----------------
         S           -1.374722316395    -0.092734514288    -0.121069967006    31.972071174400
         O           -1.796132116395    -0.110878614288     1.468253332994    15.994914619570
         O           -1.900231116395     1.323684385712    -0.562758667006    15.994914619570
         O           -1.853085116395    -1.224857614288    -0.760879667006    15.994914619570
         C            0.345004883605     0.023499385712    -0.068661667006    12.000000000000
         C            1.026170883605    -1.193874614288    -0.007500667006    12.000000000000
         C            1.014758883605     1.248160385712    -0.067522667006    12.000000000000
         C            2.419017883605    -1.175520614288     0.061570332994    12.000000000000
         C            2.408529883605     1.246426385712    -0.002754667006    12.000000000000
         C            3.108876883605     0.039795385712     0.067844332994    12.000000000000
         H            0.474485883605    -2.129146614288    -0.032270667006     1.007825032230
         H            0.453605883605     2.175198385712    -0.140860667006     1.007825032230
         H            2.966780883605    -2.113107614288     0.106963332994     1.007825032230
         H            2.947886883605     2.189991385712    -0.009786667006     1.007825032230
         H            4.194711883605     0.045930385712     0.118273332994     1.007825032230
         H           -2.258804116395     0.720025385712     1.706053332994     1.007825032230

  Basis Set: AUG-CC-PVTZ
    Blend: AUG-CC-PVTZ
  Basis Set: (AUG-CC-PVTZ AUX)
    Blend: AUG-CC-PVTZ-JKFIT
	 Reference Energy          =    -852.9345814801365577 [Eh]
	 Singles Energy            =      -0.0000000000000000 [Eh]
	 Same-Spin Energy          =      -0.5327352672266331 [Eh]
	 Opposite-Spin Energy      =      -1.5542061299288514 [Eh]
	 Correlation Energy        =      -2.0869413971554844 [Eh]
	 Total Energy              =    -855.0215228772920000 [Eh]

	 ================> DF-SCS-MP2 Energies <==================
	-----------------------------------------------------------
	 SCS Same-Spin Scale       =       0.3333333333333333 [-]
	 SCS Opposite-Spin Scale   =       1.2000000000000000 [-]
	 SCS Same-Spin Energy      =      -0.1775784224088777 [Eh]
	 SCS Opposite-Spin Energy  =      -1.8650473559146217 [Eh]
	 SCS Correlation Energy    =      -2.0426257783234996 [Eh]
	 SCS Total Energy          =    -854.9772072584601119 [Eh]
	-----------------------------------------------------------

  Dipole Moment: [D]
     X:     4.4252      Y:     0.1096      Z:     2.0104     Total:     4.8617

*** Psi4 exiting successfully. Buy a developer a beer!
