                               Psi4 1.3.2 release

  ==> Input File <==

--------------------------------------------------------------------------
#psi4
#
memory 32 gb

molecule  {
0 1
  S       -1.4659670    -0.0143510    -0.1375590
  O       -1.6700662    -0.1372007     1.4894369
  O       -1.9435910     1.2980210    -0.5718830
  O       -1.8964450    -1.2505210    -0.7700040
  C        0.3016450    -0.0021640    -0.0777860
  C        0.9828110    -1.2195380    -0.0166250
  C        0.9713990     1.2224970    -0.0766470
  C        2.3756580    -1.2011840     0.0524460
  C        2.3651700     1.2207630    -0.0118790
  C        3.0655170     0.0141320     0.0587200
  H        0.4311260    -2.1548100    -0.0413950
  H        0.4102460     2.1495350    -0.1499850
  H        2.9234210    -2.1387710     0.0978390
  H        2.9045270     2.1643280    -0.0189110
  H        4.1513520     0.0202670     0.1091490
  H       -2.3021640     0.6943620     1.6969290
units angstrom
no_reorient  #important for SAPT in psi4, default
symmetry c1  #important for SAPT in psi4, default
}

set PROPERTIES_ORIGIN ["COM"]
properties('MP2/aug-cc-pvtz', properties = ['dipole'])
--------------------------------------------------------------------------

    Molecular point group: c1
  Charge       = 0
  Multiplicity = 1
  Basis Set: AUG-CC-PVTZ
    Blend: AUG-CC-PVTZ
  Basis Set: (AUG-CC-PVTZ AUX)
    Blend: AUG-CC-PVTZ-JKFIT

    Orbital Energies [Eh]
    ---------------------

    Doubly Occupied:

       1A    -92.233484     2A    -20.643387     3A    -20.575333
       4A    -20.568672     5A    -11.286462     6A    -11.272390
       7A    -11.271887     8A    -11.267960     9A    -11.262365
      10A    -11.262071    11A     -9.196692    12A     -6.882318
      13A     -6.880999    14A     -6.880749    15A     -1.496409
      16A     -1.378155    17A     -1.359579    18A     -1.184943
      19A     -1.063527    20A     -1.045200    21A     -0.923747
      22A     -0.857967    23A     -0.824333    24A     -0.749009
      25A     -0.730822    26A     -0.697626    27A     -0.685566
      28A     -0.656973    29A     -0.643954    30A     -0.631521
      31A     -0.617691    32A     -0.583113    33A     -0.552051
      34A     -0.536819    35A     -0.525500    36A     -0.523362
      37A     -0.511182    38A     -0.491209    39A     -0.480063
      40A     -0.371301    41A     -0.363512

  @DF-RHF Final Energy:  -852.94259503212299

   => Energetics <=

    Nuclear Repulsion Energy =            634.9676750090757196
    One-Electron Energy =               -2431.8807319050283695
    Two-Electron Energy =                 943.9704618638296552
    Total Energy =                       -852.9425950321229948
  Basis Set: (AUG-CC-PVTZ AUX)
    Blend: AUG-CC-PVTZ-RI
    Molecular point group: c1

    Geometry (in Angstrom), charge = 0, multiplicity = 1:

       Center              X                  Y                   Z               Mass
    ------------   -----------------  -----------------  -----------------  -----------------
         S           -1.430068805488    -0.009674829607    -0.130012525355    31.972071174400
         O           -1.634168005488    -0.132524529607     1.496983374645    15.994914619570
         O           -1.907692805488     1.302697170393    -0.564336525355    15.994914619570
         O           -1.860546805488    -1.245844829607    -0.762457525355    15.994914619570
         C            0.337543194512     0.002512170393    -0.070239525355    12.000000000000
         C            1.018709194512    -1.214861829607    -0.009078525355    12.000000000000
         C            1.007297194512     1.227173170393    -0.069100525355    12.000000000000
         C            2.411556194512    -1.196507829607     0.059992474645    12.000000000000
         C            2.401068194512     1.225439170393    -0.004332525355    12.000000000000
         C            3.101415194512     0.018808170393     0.066266474645    12.000000000000
         H            0.467024194512    -2.150133829607    -0.033848525355     1.007825032230
         H            0.446144194512     2.154211170393    -0.142438525355     1.007825032230
         H            2.959319194512    -2.134094829607     0.105385474645     1.007825032230
         H            2.940425194512     2.169004170393    -0.011364525355     1.007825032230
         H            4.187250194512     0.024943170393     0.116695474645     1.007825032230
         H           -2.266265805488     0.699038170393     1.704475474645     1.007825032230

  Basis Set: AUG-CC-PVTZ
    Blend: AUG-CC-PVTZ
  Basis Set: (AUG-CC-PVTZ AUX)
    Blend: AUG-CC-PVTZ-JKFIT
	 Reference Energy          =    -852.9425950321229948 [Eh]
	 Singles Energy            =      -0.0000000000000000 [Eh]
	 Same-Spin Energy          =      -0.5346353973634957 [Eh]
	 Opposite-Spin Energy      =      -1.5581450133478854 [Eh]
	 Correlation Energy        =      -2.0927804107113812 [Eh]
	 Total Energy              =    -855.0353754428343791 [Eh]

	 ================> DF-SCS-MP2 Energies <==================
	-----------------------------------------------------------
	 SCS Same-Spin Scale       =       0.3333333333333333 [-]
	 SCS Opposite-Spin Scale   =       1.2000000000000000 [-]
	 SCS Same-Spin Energy      =      -0.1782117991211652 [Eh]
	 SCS Opposite-Spin Energy  =      -1.8697740160174623 [Eh]
	 SCS Correlation Energy    =      -2.0479858151386274 [Eh]
	 SCS Total Energy          =    -854.9905808472616400 [Eh]
	-----------------------------------------------------------

  Dipole Moment: [D]
     X:     3.2193      Y:     1.0390      Z:     1.9721     Total:     3.9157

*** Psi4 exiting successfully. Buy a developer a beer!
