                               Psi4 1.3.2 release

  ==> Input File <==

--------------------------------------------------------------------------
#psi4
#
memory 32 gb

molecule  {
0 1
  S       -1.4659670    -0.0143510    -0.1375590
  O       -1.8394920    -0.1365420     1.4591290
  O       -2.0089044     1.4774833    -0.6312753
  O       -1.8964450    -1.2505210    -0.7700040
  C        0.3016450    -0.0021640    -0.0777860
  C        0.9828110    -1.2195380    -0.0166250
  C        0.9713990     1.2224970    -0.0766470
  C        2.3756580    -1.2011840     0.0524460
  C        2.3651700     1.2207630    -0.0118790
  C        3.0655170     0.0141320     0.0587200
  H        0.4311260    -2.1548100    -0.0413950
  H        0.4102460     2.1495350    -0.1499850
  H        2.9234210    -2.1387710     0.0978390
  H        2.9045270     2.1643280    -0.0189110
  H        4.1513520     0.0202670     0.1091490
  H       -2.3021640     0.6943620     1.6969290
units angstrom
no_reorient  #important for SAPT in psi4, default
symmetry c1  #important for SAPT in psi4, default
}

set PROPERTIES_ORIGIN ["COM"]
properties('MP2/aug-cc-pvtz', properties = ['dipole'])
--------------------------------------------------------------------------

    Molecular point group: c1
  Charge       = 0
  Multiplicity = 1
  Basis Set: AUG-CC-PVTZ
    Blend: AUG-CC-PVTZ
  Basis Set: (AUG-CC-PVTZ AUX)
    Blend: AUG-CC-PVTZ-JKFIT

    Orbital Energies [Eh]
    ---------------------

    Doubly Occupied:

       1A    -92.239482     2A    -20.645093     3A    -20.577439
       4A    -20.567859     5A    -11.299043     6A    -11.282185
       7A    -11.280475     8A    -11.276446     9A    -11.268991
      10A    -11.268280    11A     -9.202872    12A     -6.887960
      13A     -6.886763    14A     -6.885967    15A     -1.481231
      16A     -1.387642    17A     -1.281572    18A     -1.193095
      19A     -1.073301    20A     -1.052675    21A     -0.940797
      22A     -0.865465    23A     -0.837955    24A     -0.762209
      25A     -0.737858    26A     -0.696469    27A     -0.679890
      28A     -0.661015    29A     -0.648424    30A     -0.624654
      31A     -0.609642    32A     -0.585300    33A     -0.553377
      34A     -0.537439    35A     -0.532277    36A     -0.513548
      37A     -0.490769    38A     -0.473537    39A     -0.469299
      40A     -0.381040    41A     -0.370216

  @DF-RHF Final Energy:  -852.91020211017963

   => Energetics <=

    Nuclear Repulsion Energy =            625.2412026593523251
    One-Electron Energy =               -2412.2837039279756937
    Two-Electron Energy =                 934.1322991584436295
    Total Energy =                       -852.9102021101796254
  Basis Set: (AUG-CC-PVTZ AUX)
    Blend: AUG-CC-PVTZ-RI
    Molecular point group: c1

    Geometry (in Angstrom), charge = 0, multiplicity = 1:

       Center              X                  Y                   Z               Mass
    ------------   -----------------  -----------------  -----------------  -----------------
         S           -1.406305868848    -0.027908698984    -0.120932064277    31.972071174400
         O           -1.779830868848    -0.150099698984     1.475755935723    15.994914619570
         O           -1.949243268848     1.463925601016    -0.614648364277    15.994914619570
         O           -1.836783868848    -1.264078698984    -0.753377064277    15.994914619570
         C            0.361306131152    -0.015721698984    -0.061159064277    12.000000000000
         C            1.042472131152    -1.233095698984     0.000001935723    12.000000000000
         C            1.031060131152     1.208939301016    -0.060020064277    12.000000000000
         C            2.435319131152    -1.214741698984     0.069072935723    12.000000000000
         C            2.424831131152     1.207205301016     0.004747935723    12.000000000000
         C            3.125178131152     0.000574301016     0.075346935723    12.000000000000
         H            0.490787131152    -2.168367698984    -0.024768064277     1.007825032230
         H            0.469907131152     2.135977301016    -0.133358064277     1.007825032230
         H            2.983082131152    -2.152328698984     0.114465935723     1.007825032230
         H            2.964188131152     2.150770301016    -0.002284064277     1.007825032230
         H            4.211013131152     0.006709301016     0.125775935723     1.007825032230
         H           -2.242502868848     0.680804301016     1.713555935723     1.007825032230

  Basis Set: AUG-CC-PVTZ
    Blend: AUG-CC-PVTZ
  Basis Set: (AUG-CC-PVTZ AUX)
    Blend: AUG-CC-PVTZ-JKFIT
	 Reference Energy          =    -852.9102021101796254 [Eh]
	 Singles Energy            =      -0.0000000000000000 [Eh]
	 Same-Spin Energy          =      -0.5352327765278623 [Eh]
	 Opposite-Spin Energy      =      -1.5624346541898682 [Eh]
	 Correlation Energy        =      -2.0976674307177303 [Eh]
	 Total Energy              =    -855.0078695408973317 [Eh]

	 ================> DF-SCS-MP2 Energies <==================
	-----------------------------------------------------------
	 SCS Same-Spin Scale       =       0.3333333333333333 [-]
	 SCS Opposite-Spin Scale   =       1.2000000000000000 [-]
	 SCS Same-Spin Energy      =      -0.1784109255092874 [Eh]
	 SCS Opposite-Spin Energy  =      -1.8749215850278418 [Eh]
	 SCS Correlation Energy    =      -2.0533325105371292 [Eh]
	 SCS Total Energy          =    -854.9635346207167004 [Eh]
	-----------------------------------------------------------

  Dipole Moment: [D]
     X:     4.3380      Y:     0.1537      Z:     2.3339     Total:     4.9283

*** Psi4 exiting successfully. Buy a developer a beer!
