                               Psi4 1.3.2 release

  ==> Input File <==

--------------------------------------------------------------------------
#psi4
#
memory 32 gb

molecule  {
0 1
  S       -1.4659670    -0.0143510    -0.1375590
  O       -1.8673813    -0.1363016     1.4523651
  O       -1.9435910     1.2980210    -0.5718830
  O       -1.8964450    -1.2505210    -0.7700040
  C        0.3016450    -0.0021640    -0.0777860
  C        0.9828110    -1.2195380    -0.0166250
  C        0.9713990     1.2224970    -0.0766470
  C        2.3756580    -1.2011840     0.0524460
  C        2.3651700     1.2207630    -0.0118790
  C        3.0655170     0.0141320     0.0587200
  H        0.4311260    -2.1548100    -0.0413950
  H        0.4102460     2.1495350    -0.1499850
  H        2.9234210    -2.1387710     0.0978390
  H        2.9045270     2.1643280    -0.0189110
  H        4.1513520     0.0202670     0.1091490
  H       -2.3021640     0.6943620     1.6969290
units angstrom
no_reorient  #important for SAPT in psi4, default
symmetry c1  #important for SAPT in psi4, default
}

set PROPERTIES_ORIGIN ["COM"]
properties('MP2/aug-cc-pvtz', properties = ['dipole'])
--------------------------------------------------------------------------

    Molecular point group: c1
  Charge       = 0
  Multiplicity = 1
  Basis Set: AUG-CC-PVTZ
    Blend: AUG-CC-PVTZ
  Basis Set: (AUG-CC-PVTZ AUX)
    Blend: AUG-CC-PVTZ-JKFIT

    Orbital Energies [Eh]
    ---------------------

    Doubly Occupied:

       1A    -92.233254     2A    -20.631094     3A    -20.568448
       4A    -20.564633     5A    -11.292347     6A    -11.277859
       7A    -11.277253     8A    -11.273210     9A    -11.266064
      10A    -11.265747    11A     -9.196088    12A     -6.881718
      13A     -6.880437    14A     -6.880186    15A     -1.497610
      16A     -1.384357    17A     -1.355539    18A     -1.189677
      19A     -1.068253    20A     -1.049559    21A     -0.929580
      22A     -0.862134    23A     -0.834082    24A     -0.761562
      25A     -0.735660    26A     -0.697431    27A     -0.684115
      28A     -0.661637    29A     -0.647456    30A     -0.628918
      31A     -0.621747    32A     -0.580724    33A     -0.553174
      34A     -0.538722    35A     -0.529404    36A     -0.520511
      37A     -0.509128    38A     -0.488940    39A     -0.481800
      40A     -0.377304    41A     -0.367418

  @DF-RHF Final Energy:  -852.95791076243063

   => Energetics <=

    Nuclear Repulsion Energy =            633.9357451802326295
    One-Electron Energy =               -2429.6977575329187857
    Two-Electron Energy =                 942.8041015902556410
    Total Energy =                       -852.9579107624306289
  Basis Set: (AUG-CC-PVTZ AUX)
    Blend: AUG-CC-PVTZ-RI
    Molecular point group: c1

    Geometry (in Angstrom), charge = 0, multiplicity = 1:

       Center              X                  Y                   Z               Mass
    ------------   -----------------  -----------------  -----------------  -----------------
         S           -1.410094356315    -0.009765846601    -0.126259701649    31.972071174400
         O           -1.811508656315    -0.131716446601     1.463664398351    15.994914619570
         O           -1.887718356315     1.302606153399    -0.560583701649    15.994914619570
         O           -1.840572356315    -1.245935846601    -0.758704701649    15.994914619570
         C            0.357517643685     0.002421153399    -0.066486701649    12.000000000000
         C            1.038683643685    -1.214952846601    -0.005325701649    12.000000000000
         C            1.027271643685     1.227082153399    -0.065347701649    12.000000000000
         C            2.431530643685    -1.196598846601     0.063745298351    12.000000000000
         C            2.421042643685     1.225348153399    -0.000579701649    12.000000000000
         C            3.121389643685     0.018717153399     0.070019298351    12.000000000000
         H            0.486998643685    -2.150224846601    -0.030095701649     1.007825032230
         H            0.466118643685     2.154120153399    -0.138685701649     1.007825032230
         H            2.979293643685    -2.134185846601     0.109138298351     1.007825032230
         H            2.960399643685     2.168913153399    -0.007611701649     1.007825032230
         H            4.207224643685     0.024852153399     0.120448298351     1.007825032230
         H           -2.246291356315     0.698947153399     1.708228298351     1.007825032230

  Basis Set: AUG-CC-PVTZ
    Blend: AUG-CC-PVTZ
  Basis Set: (AUG-CC-PVTZ AUX)
    Blend: AUG-CC-PVTZ-JKFIT
	 Reference Energy          =    -852.9579107624306289 [Eh]
	 Singles Energy            =      -0.0000000000000000 [Eh]
	 Same-Spin Energy          =      -0.5324693634505394 [Eh]
	 Opposite-Spin Energy      =      -1.5534016765395551 [Eh]
	 Correlation Energy        =      -2.0858710399900944 [Eh]
	 Total Energy              =    -855.0437818024207672 [Eh]

	 ================> DF-SCS-MP2 Energies <==================
	-----------------------------------------------------------
	 SCS Same-Spin Scale       =       0.3333333333333333 [-]
	 SCS Opposite-Spin Scale   =       1.2000000000000000 [-]
	 SCS Same-Spin Energy      =      -0.1774897878168465 [Eh]
	 SCS Opposite-Spin Energy  =      -1.8640820118474659 [Eh]
	 SCS Correlation Energy    =      -2.0415717996643123 [Eh]
	 SCS Total Energy          =    -854.9994825620949541 [Eh]
	-----------------------------------------------------------

  Dipole Moment: [D]
     X:     3.8661      Y:     1.0500      Z:     1.9719     Total:     4.4652

*** Psi4 exiting successfully. Buy a developer a beer!
