                               Psi4 1.4a3.dev225

  ==> Input File <==

--------------------------------------------------------------------------
#psi4
#
memory 32 gb

molecule  {
0 1
  S       -1.4659490    -0.0144420    -0.1375240
  O       -1.8389560    -0.1357530     1.4593660
  O       -1.9437900     1.2976660    -0.5724050
  O       -1.8964760    -1.2508500    -0.7695120
  C        0.3516053    -0.0018621    -0.0761363
  C        0.9828550    -1.2195450    -0.0166360
  C        0.9713380     1.2224880    -0.0767040
  C        2.3757070    -1.2011200     0.0524330
  C        2.3651070     1.2208170    -0.0119400
  C        3.0655130     0.0142220     0.0587080
  H        0.4312050    -2.1548360    -0.0414070
  H        0.4101370     2.1494950    -0.1500750
  H        2.9234940    -2.1386920     0.0978740
  H        2.9044060     2.1644160    -0.0189600
  H        4.1513480     0.0204100     0.1091410
  H       -2.3045580     0.6938590     1.6959880
units angstrom
no_reorient  #important for SAPT in psi4, default
symmetry c1  #important for SAPT in psi4, default
}

set PROPERTIES_ORIGIN ["COM"]
properties('MP2/aug-cc-pvtz', properties = ['dipole'])
--------------------------------------------------------------------------

    Molecular point group: c1
  Charge       = 0
  Multiplicity = 1
  Basis Set: AUG-CC-PVTZ
    Blend: AUG-CC-PVTZ
  Basis Set: (AUG-CC-PVTZ AUX)
    Blend: AUG-CC-PVTZ-JKFIT

    Orbital Energies [Eh]
    ---------------------

    Doubly Occupied:

       1A    -92.231788     2A    -20.632843     3A    -20.569470
       4A    -20.565252     5A    -11.292299     6A    -11.273017
       7A    -11.272460     8A    -11.270055     9A    -11.265712
      10A    -11.265376    11A     -9.194542    12A     -6.880127
      13A     -6.878761    14A     -6.878567    15A     -1.496037
      16A     -1.383216    17A     -1.355615    18A     -1.194064
      19A     -1.064708    20A     -1.051950    21A     -0.922637
      22A     -0.864603    23A     -0.832585    24A     -0.758671
      25A     -0.735669    26A     -0.694718    27A     -0.682779
      28A     -0.662881    29A     -0.647712    30A     -0.630166
      31A     -0.623866    32A     -0.580465    33A     -0.553363
      34A     -0.540926    35A     -0.533229    36A     -0.520858
      37A     -0.509335    38A     -0.488408    39A     -0.473552
      40A     -0.377925    41A     -0.367605

  @DF-RHF Final Energy:  -852.95519007441919

   => Energetics <=

    Nuclear Repulsion Energy =            633.7349999429665104
    One-Electron Energy =               -2429.3447623096394636
    Two-Electron Energy =                 942.6545722922536470
    Total Energy =                       -852.9551900744191926
  Basis Set: (AUG-CC-PVTZ AUX)
    Blend: AUG-CC-PVTZ-RI
    Molecular point group: c1

    Geometry (in Angstrom), charge = 0, multiplicity = 1:

       Center              X                  Y                   Z               Mass
    ------------   -----------------  -----------------  -----------------  -----------------
         S           -1.416710154802    -0.009860584508    -0.127044258316    31.972071174400
         O           -1.789717154802    -0.131171584508     1.469845741684    15.994914619570
         O           -1.894551154802     1.302247415492    -0.561925258316    15.994914619570
         O           -1.847237154802    -1.246268584508    -0.759032258316    15.994914619570
         C            0.400844145198     0.002719315492    -0.065656558316    12.000000000000
         C            1.032093845198    -1.214963584508    -0.006156258316    12.000000000000
         C            1.020576845198     1.227069415492    -0.066224258316    12.000000000000
         C            2.424945845198    -1.196538584508     0.062912741684    12.000000000000
         C            2.414345845198     1.225398415492    -0.001460258316    12.000000000000
         C            3.114751845198     0.018803415492     0.069187741684    12.000000000000
         H            0.480443845198    -2.150254584508    -0.030927258316     1.007825032230
         H            0.459375845198     2.154076415492    -0.139595258316     1.007825032230
         H            2.972732845198    -2.134110584508     0.108353741684     1.007825032230
         H            2.953644845198     2.168997415492    -0.008480258316     1.007825032230
         H            4.200586845198     0.024991415492     0.119620741684     1.007825032230
         H           -2.255319154802     0.698440415492     1.706467741684     1.007825032230

  Basis Set: AUG-CC-PVTZ
    Blend: AUG-CC-PVTZ
  Basis Set: (AUG-CC-PVTZ AUX)
    Blend: AUG-CC-PVTZ-JKFIT
	 Reference Energy          =    -852.9551900744191926 [Eh]
	 Singles Energy            =      -0.0000000000000000 [Eh]
	 Same-Spin Energy          =      -0.5327530289872657 [Eh]
	 Opposite-Spin Energy      =      -1.5539071690824879 [Eh]
	 Correlation Energy        =      -2.0866601980697537 [Eh]
	 Total Energy              =    -855.0418502724890004 [Eh]

	 ================> DF-SCS-MP2 Energies <==================
	-----------------------------------------------------------
	 SCS Same-Spin Scale       =       0.3333333333333333 [-]
	 SCS Opposite-Spin Scale   =       1.2000000000000000 [-]
	 SCS Same-Spin Energy      =      -0.1775843429957552 [Eh]
	 SCS Opposite-Spin Energy  =      -1.8646886028989855 [Eh]
	 SCS Correlation Energy    =      -2.0422729458947408 [Eh]
	 SCS Total Energy          =    -854.9974630203139441 [Eh]
	-----------------------------------------------------------

  Dipole Moment: [D]
     X:     3.7067      Y:     1.0477      Z:     1.9576     Total:     4.3208

*** Psi4 exiting successfully. Buy a developer a beer!
