                               Psi4 1.3.2 release

  ==> Input File <==

--------------------------------------------------------------------------
#psi4
#
memory 32 gb

molecule  {
0 1
  S       -1.4659670    -0.0143510    -0.1375590
  O       -1.8277627    -0.1627301     1.4596109
  O       -1.9435910     1.2980210    -0.5718830
  O       -1.8964450    -1.2505210    -0.7700040
  C        0.3016450    -0.0021640    -0.0777860
  C        0.9828110    -1.2195380    -0.0166250
  C        0.9713990     1.2224970    -0.0766470
  C        2.3756580    -1.2011840     0.0524460
  C        2.3651700     1.2207630    -0.0118790
  C        3.0655170     0.0141320     0.0587200
  H        0.4311260    -2.1548100    -0.0413950
  H        0.4102460     2.1495350    -0.1499850
  H        2.9234210    -2.1387710     0.0978390
  H        2.9045270     2.1643280    -0.0189110
  H        4.1513520     0.0202670     0.1091490
  H       -2.3021640     0.6943620     1.6969290
units angstrom
no_reorient  #important for SAPT in psi4, default
symmetry c1  #important for SAPT in psi4, default
}

set PROPERTIES_ORIGIN ["COM"]
properties('MP2/aug-cc-pvtz', properties = ['dipole'])
--------------------------------------------------------------------------

    Molecular point group: c1
  Charge       = 0
  Multiplicity = 1
  Basis Set: AUG-CC-PVTZ
    Blend: AUG-CC-PVTZ
  Basis Set: (AUG-CC-PVTZ AUX)
    Blend: AUG-CC-PVTZ-JKFIT

    Orbital Energies [Eh]
    ---------------------

    Doubly Occupied:

       1A    -92.232797     2A    -20.635887     3A    -20.571137
       4A    -20.563785     5A    -11.290970     6A    -11.276700
       7A    -11.276037     8A    -11.272072     9A    -11.265249
      10A    -11.264934    11A     -9.195774    12A     -6.881381
      13A     -6.880125    14A     -6.879864    15A     -1.496307
      16A     -1.380058    17A     -1.356389    18A     -1.188618
      19A     -1.067075    20A     -1.048598    21A     -0.926876
      22A     -0.861202    23A     -0.829997    24A     -0.756603
      25A     -0.734060    26A     -0.697510    27A     -0.684066
      28A     -0.660654    29A     -0.646669    30A     -0.629079
      31A     -0.620855    32A     -0.581003    33A     -0.552956
      34A     -0.537884    35A     -0.528522    36A     -0.521323
      37A     -0.509239    38A     -0.488871    39A     -0.481492
      40A     -0.376005    41A     -0.366553

  @DF-RHF Final Energy:  -852.95442454605472

   => Energetics <=

    Nuclear Repulsion Energy =            634.0311543197666424
    One-Electron Energy =               -2429.9408047018910111
    Two-Electron Energy =                 942.9552258360695305
    Total Energy =                       -852.9544245460547245
  Basis Set: (AUG-CC-PVTZ AUX)
    Blend: AUG-CC-PVTZ-RI
    Molecular point group: c1

    Geometry (in Angstrom), charge = 0, multiplicity = 1:

       Center              X                  Y                   Z               Mass
    ------------   -----------------  -----------------  -----------------  -----------------
         S           -1.414104995703    -0.007090457186    -0.126993202855    31.972071174400
         O           -1.775900695703    -0.155469557186     1.470176697145    15.994914619570
         O           -1.891728995703     1.305281542814    -0.561317202855    15.994914619570
         O           -1.844582995703    -1.243260457186    -0.759438202855    15.994914619570
         C            0.353507004297     0.005096542814    -0.067220202855    12.000000000000
         C            1.034673004297    -1.212277457186    -0.006059202855    12.000000000000
         C            1.023261004297     1.229757542814    -0.066081202855    12.000000000000
         C            2.427520004297    -1.193923457186     0.063011797145    12.000000000000
         C            2.417032004297     1.228023542814    -0.001313202855    12.000000000000
         C            3.117379004297     0.021392542814     0.069285797145    12.000000000000
         H            0.482988004297    -2.147549457186    -0.030829202855     1.007825032230
         H            0.462108004297     2.156795542814    -0.139419202855     1.007825032230
         H            2.975283004297    -2.131510457186     0.108404797145     1.007825032230
         H            2.956389004297     2.171588542814    -0.008345202855     1.007825032230
         H            4.203214004297     0.027527542814     0.119714797145     1.007825032230
         H           -2.250301995703     0.701622542814     1.707494797145     1.007825032230

  Basis Set: AUG-CC-PVTZ
    Blend: AUG-CC-PVTZ
  Basis Set: (AUG-CC-PVTZ AUX)
    Blend: AUG-CC-PVTZ-JKFIT
	 Reference Energy          =    -852.9544245460547245 [Eh]
	 Singles Energy            =      -0.0000000000000000 [Eh]
	 Same-Spin Energy          =      -0.5331915592971946 [Eh]
	 Opposite-Spin Energy      =      -1.5549850279921305 [Eh]
	 Correlation Energy        =      -2.0881765872893250 [Eh]
	 Total Energy              =    -855.0426011333440783 [Eh]

	 ================> DF-SCS-MP2 Energies <==================
	-----------------------------------------------------------
	 SCS Same-Spin Scale       =       0.3333333333333333 [-]
	 SCS Opposite-Spin Scale   =       1.2000000000000000 [-]
	 SCS Same-Spin Energy      =      -0.1777305197657315 [Eh]
	 SCS Opposite-Spin Energy  =      -1.8659820335905564 [Eh]
	 SCS Correlation Energy    =      -2.0437125533562881 [Eh]
	 SCS Total Energy          =    -854.9981370994109966 [Eh]
	-----------------------------------------------------------

  Dipole Moment: [D]
     X:     3.7256      Y:     1.0985      Z:     1.9902     Total:     4.3644

*** Psi4 exiting successfully. Buy a developer a beer!
