                               Psi4 1.3.2 release

  ==> Input File <==

--------------------------------------------------------------------------
#psi4
#
memory 32 gb

molecule  {
0 1
  S       -1.4659670    -0.0143510    -0.1375590
  O       -1.8394920    -0.1365420     1.4591290
  O       -1.9435910     1.2980210    -0.5718830
  O       -1.8964450    -1.2505210    -0.7700040
  C        0.3016450    -0.0021640    -0.0777860
  C        0.9828110    -1.2195380    -0.0166250
  C        0.9713990     1.2224970    -0.0766470
  C        2.3756580    -1.2011840     0.0524460
  C        2.3651700     1.2207630    -0.0118790
  C        3.0655170     0.0141320     0.0587200
  H        0.4311260    -2.1548100    -0.0413950
  H        0.4102460     2.1495350    -0.1499850
  H        2.9234210    -2.1387710     0.0978390
  H        2.9045270     2.1643280    -0.0189110
  H        4.1513520     0.0202670     0.1091490
  H       -2.2077714     0.5248441     1.6484139
units angstrom
no_reorient  #important for SAPT in psi4, default
symmetry c1  #important for SAPT in psi4, default
}

set PROPERTIES_ORIGIN ["COM"]
properties('MP2/aug-cc-pvtz', properties = ['dipole'])
--------------------------------------------------------------------------

    Molecular point group: c1
  Charge       = 0
  Multiplicity = 1
  Basis Set: AUG-CC-PVTZ
    Blend: AUG-CC-PVTZ
  Basis Set: (AUG-CC-PVTZ AUX)
    Blend: AUG-CC-PVTZ-JKFIT

    Orbital Energies [Eh]
    ---------------------

    Doubly Occupied:

       1A    -92.237183     2A    -20.615354     3A    -20.572934
       4A    -20.567744     5A    -11.293134     6A    -11.278577
       7A    -11.278066     8A    -11.273819     9A    -11.266717
      10A    -11.266462    11A     -9.200012    12A     -6.885694
      13A     -6.884332    14A     -6.884072    15A     -1.524784
      16A     -1.423739    17A     -1.358814    18A     -1.190659
      19A     -1.070852    20A     -1.050284    21A     -0.946861
      22A     -0.863154    23A     -0.851248    24A     -0.779443
      25A     -0.746172    26A     -0.701620    27A     -0.688383
      28A     -0.665551    29A     -0.648575    30A     -0.635795
      31A     -0.622479    32A     -0.588926    33A     -0.554919
      34A     -0.541251    35A     -0.530183    36A     -0.525415
      37A     -0.512935    38A     -0.492879    39A     -0.484755
      40A     -0.378262    41A     -0.368119

  @DF-RHF Final Energy:  -852.91322248624238

   => Energetics <=

    Nuclear Repulsion Energy =            635.6499336239387503
    One-Electron Energy =               -2432.6259962831436496
    Two-Electron Energy =                 944.0628401729625239
    Total Energy =                       -852.9132224862423755
  Basis Set: (AUG-CC-PVTZ AUX)
    Blend: AUG-CC-PVTZ-RI
    Molecular point group: c1

    Geometry (in Angstrom), charge = 0, multiplicity = 1:

       Center              X                  Y                   Z               Mass
    ------------   -----------------  -----------------  -----------------  -----------------
         S           -1.413519706316    -0.008660242818    -0.126634966572    31.972071174400
         O           -1.787044706316    -0.130851242818     1.470053033428    15.994914619570
         O           -1.891143706316     1.303711757182    -0.560958966572    15.994914619570
         O           -1.843997706316    -1.244830242818    -0.759079966572    15.994914619570
         C            0.354092293684     0.003526757182    -0.066861966572    12.000000000000
         C            1.035258293684    -1.213847242818    -0.005700966572    12.000000000000
         C            1.023846293684     1.228187757182    -0.065722966572    12.000000000000
         C            2.428105293684    -1.195493242818     0.063370033428    12.000000000000
         C            2.417617293684     1.226453757182    -0.000954966572    12.000000000000
         C            3.117964293684     0.019822757182     0.069644033428    12.000000000000
         H            0.483573293684    -2.149119242818    -0.030470966572     1.007825032230
         H            0.462693293684     2.155225757182    -0.139060966572     1.007825032230
         H            2.975868293684    -2.133080242818     0.108763033428     1.007825032230
         H            2.956974293684     2.170018757182    -0.007986966572     1.007825032230
         H            4.203799293684     0.025957757182     0.120073033428     1.007825032230
         H           -2.155324106316     0.530534857182     1.659337933428     1.007825032230

  Basis Set: AUG-CC-PVTZ
    Blend: AUG-CC-PVTZ
  Basis Set: (AUG-CC-PVTZ AUX)
    Blend: AUG-CC-PVTZ-JKFIT
	 Reference Energy          =    -852.9132224862423755 [Eh]
	 Singles Energy            =      -0.0000000000000000 [Eh]
	 Same-Spin Energy          =      -0.5302339528107358 [Eh]
	 Opposite-Spin Energy      =      -1.5487511834424432 [Eh]
	 Correlation Energy        =      -2.0789851362531788 [Eh]
	 Total Energy              =    -854.9922076224955845 [Eh]

	 ================> DF-SCS-MP2 Energies <==================
	-----------------------------------------------------------
	 SCS Same-Spin Scale       =       0.3333333333333333 [-]
	 SCS Opposite-Spin Scale   =       1.2000000000000000 [-]
	 SCS Same-Spin Energy      =      -0.1767446509369119 [Eh]
	 SCS Opposite-Spin Energy  =      -1.8585014201309318 [Eh]
	 SCS Correlation Energy    =      -2.0352460710678439 [Eh]
	 SCS Total Energy          =    -854.9484685573102070 [Eh]
	-----------------------------------------------------------

  Dipole Moment: [D]
     X:     3.9748      Y:     0.8634      Z:     1.7797     Total:     4.4398

*** Psi4 exiting successfully. Buy a developer a beer!
