                               Psi4 1.3.2 release

  ==> Input File <==

--------------------------------------------------------------------------
#psi4
#
memory 32 gb

molecule  {
0 1
  S       -1.4659670    -0.0143510    -0.1375590
  O       -1.8394920    -0.1365420     1.4591290
  O       -1.9435910     1.2980210    -0.5718830
  O       -1.8964450    -1.2505210    -0.7700040
  C        0.3016450    -0.0021640    -0.0777860
  C        0.9828110    -1.2195380    -0.0166250
  C        0.9713990     1.2224970    -0.0766470
  C        2.3756580    -1.2011840     0.0524460
  C        2.3651700     1.2207630    -0.0118790
  C        3.0655170     0.0141320     0.0587200
  H        0.4311260    -2.1548100    -0.0413950
  H        0.4102460     2.1495350    -0.1499850
  H        2.9234210    -2.1387710     0.0978390
  H        2.9045270     2.1643280    -0.0189110
  H        4.1513520     0.0202670     0.1091490
  H       -2.2549677     0.6096030     1.6726715
units angstrom
no_reorient  #important for SAPT in psi4, default
symmetry c1  #important for SAPT in psi4, default
}

set PROPERTIES_ORIGIN ["COM"]
properties('MP2/aug-cc-pvtz', properties = ['dipole'])
--------------------------------------------------------------------------

    Molecular point group: c1
  Charge       = 0
  Multiplicity = 1
  Basis Set: AUG-CC-PVTZ
    Blend: AUG-CC-PVTZ
  Basis Set: (AUG-CC-PVTZ AUX)
    Blend: AUG-CC-PVTZ-JKFIT

    Orbital Energies [Eh]
    ---------------------

    Doubly Occupied:

       1A    -92.235230     2A    -20.625246     3A    -20.571155
       4A    -20.566454     5A    -11.292321     6A    -11.277851
       7A    -11.277298     8A    -11.273161     9A    -11.266140
      10A    -11.265857    11A     -9.198089    12A     -6.883741
      13A     -6.882423    14A     -6.882167    15A     -1.507272
      16A     -1.402869    17A     -1.357476    18A     -1.189844
      19A     -1.069125    20A     -1.049627    21A     -0.936401
      22A     -0.862307    23A     -0.841034    24A     -0.769382
      25A     -0.742521    26A     -0.699659    27A     -0.686408
      28A     -0.663533    29A     -0.647761    30A     -0.633040
      31A     -0.621841    32A     -0.584789    33A     -0.554013
      34A     -0.539786    35A     -0.529522    36A     -0.523249
      37A     -0.511215    38A     -0.491125    39A     -0.483223
      40A     -0.377394    41A     -0.367504

  @DF-RHF Final Energy:  -852.95251917366511

   => Energetics <=

    Nuclear Repulsion Energy =            634.7954618250184922
    One-Electron Energy =               -2431.2178602281255735
    Two-Electron Energy =                 943.4698792294419718
    Total Energy =                       -852.9525191736651095
  Basis Set: (AUG-CC-PVTZ AUX)
    Blend: AUG-CC-PVTZ-RI
    Molecular point group: c1

    Geometry (in Angstrom), charge = 0, multiplicity = 1:

       Center              X                  Y                   Z               Mass
    ------------   -----------------  -----------------  -----------------  -----------------
         S           -1.413218665309    -0.009200876397    -0.126789693369    31.972071174400
         O           -1.786743665309    -0.131391876397     1.469898306631    15.994914619570
         O           -1.890842665309     1.303171123603    -0.561113693369    15.994914619570
         O           -1.843696665309    -1.245370876397    -0.759234693369    15.994914619570
         C            0.354393334691     0.002986123603    -0.067016693369    12.000000000000
         C            1.035559334691    -1.214387876397    -0.005855693369    12.000000000000
         C            1.024147334691     1.227647123603    -0.065877693369    12.000000000000
         C            2.428406334691    -1.196033876397     0.063215306631    12.000000000000
         C            2.417918334691     1.225913123603    -0.001109693369    12.000000000000
         C            3.118265334691     0.019282123603     0.069489306631    12.000000000000
         H            0.483874334691    -2.149659876397    -0.030625693369     1.007825032230
         H            0.462994334691     2.154685123603    -0.139215693369     1.007825032230
         H            2.976169334691    -2.133620876397     0.108608306631     1.007825032230
         H            2.957275334691     2.169478123603    -0.008141693369     1.007825032230
         H            4.204100334691     0.025417123603     0.119918306631     1.007825032230
         H           -2.202219365309     0.614753123603     1.683440806631     1.007825032230

  Basis Set: AUG-CC-PVTZ
    Blend: AUG-CC-PVTZ
  Basis Set: (AUG-CC-PVTZ AUX)
    Blend: AUG-CC-PVTZ-JKFIT
	 Reference Energy          =    -852.9525191736651095 [Eh]
	 Singles Energy            =      -0.0000000000000000 [Eh]
	 Same-Spin Energy          =      -0.5314297900131026 [Eh]
	 Opposite-Spin Energy      =      -1.5511588271900845 [Eh]
	 Correlation Energy        =      -2.0825886172031871 [Eh]
	 Total Energy              =    -855.0351077908683237 [Eh]

	 ================> DF-SCS-MP2 Energies <==================
	-----------------------------------------------------------
	 SCS Same-Spin Scale       =       0.3333333333333333 [-]
	 SCS Opposite-Spin Scale   =       1.2000000000000000 [-]
	 SCS Same-Spin Energy      =      -0.1771432633377009 [Eh]
	 SCS Opposite-Spin Energy  =      -1.8613905926281014 [Eh]
	 SCS Correlation Energy    =      -2.0385338559658024 [Eh]
	 SCS Total Energy          =    -854.9910530296309616 [Eh]
	-----------------------------------------------------------

  Dipole Moment: [D]
     X:     3.8755      Y:     0.9514      Z:     1.8772     Total:     4.4100

*** Psi4 exiting successfully. Buy a developer a beer!
