                               Psi4 1.4a3.dev225

  ==> Input File <==

--------------------------------------------------------------------------
#psi4
#
memory 32 gb

molecule  {
0 1
  S       -1.4659490    -0.0144420    -0.1375240
  O       -1.8389560    -0.1357530     1.4593660
  O       -1.9437900     1.2976660    -0.5724050
  O       -1.8964760    -1.2508500    -0.7695120
  C        0.3016350    -0.0022080    -0.0778240
  C        0.9828550    -1.2195450    -0.0166360
  C        0.9713380     1.2224880    -0.0767040
  C        2.3757070    -1.2011200     0.0524330
  C        2.3651070     1.2208170    -0.0119400
  C        3.0655130     0.0142220     0.0587080
  H        0.4312050    -2.1548360    -0.0414070
  H        0.4101370     2.1494950    -0.1500750
  H        2.9234940    -2.1386920     0.0978740
  H        2.9044060     2.1644160    -0.0189600
  H        4.1513480     0.0204100     0.1091410
  H       -2.3283054     0.7361722     1.7080566
units angstrom
no_reorient  #important for SAPT in psi4, default
symmetry c1  #important for SAPT in psi4, default
}

set PROPERTIES_ORIGIN ["COM"]
properties('MP2/aug-cc-pvtz', properties = ['dipole'])
--------------------------------------------------------------------------

    Molecular point group: c1
  Charge       = 0
  Multiplicity = 1
  Basis Set: AUG-CC-PVTZ
    Blend: AUG-CC-PVTZ
  Basis Set: (AUG-CC-PVTZ AUX)
    Blend: AUG-CC-PVTZ-JKFIT

    Orbital Energies [Eh]
    ---------------------

    Doubly Occupied:

       1A    -92.232331     2A    -20.635565     3A    -20.568584
       4A    -20.564561     5A    -11.291106     6A    -11.276745
       7A    -11.276131     8A    -11.272158     9A    -11.265248
      10A    -11.264918    11A     -9.195228    12A     -6.880838
      13A     -6.879581    14A     -6.879331    15A     -1.493992
      16A     -1.375205    17A     -1.355390    18A     -1.188623
      19A     -1.066952    20A     -1.048615    21A     -0.925948
      22A     -0.861186    23A     -0.829192    24A     -0.755705
      25A     -0.730627    26A     -0.696348    27A     -0.683296
      28A     -0.659627    29A     -0.646555    30A     -0.627241
      31A     -0.620857    32A     -0.579256    33A     -0.552632
      34A     -0.537629    35A     -0.528507    36A     -0.519971
      37A     -0.508501    38A     -0.488261    39A     -0.480916
      40A     -0.376073    41A     -0.366551

  @DF-RHF Final Energy:  -852.95206260897521

   => Energetics <=

    Nuclear Repulsion Energy =            633.7407153614442450
    One-Electron Energy =               -2429.4135925125556241
    Two-Electron Energy =                 942.7208145421361678
    Total Energy =                       -852.9520626089752113
  Basis Set: (AUG-CC-PVTZ AUX)
    Blend: AUG-CC-PVTZ-RI
    Molecular point group: c1

    Geometry (in Angstrom), charge = 0, multiplicity = 1:

       Center              X                  Y                   Z               Mass
    ------------   -----------------  -----------------  -----------------  -----------------
         S           -1.412763560091    -0.010104208463    -0.126993061037    31.972071174400
         O           -1.785770560091    -0.131415208463     1.469896938963    15.994914619570
         O           -1.890604560091     1.302003791537    -0.561874061037    15.994914619570
         O           -1.843290560091    -1.246512208463    -0.758981061037    15.994914619570
         C            0.354820439909     0.002129791537    -0.067293061037    12.000000000000
         C            1.036040439909    -1.215207208463    -0.006105061037    12.000000000000
         C            1.024523439909     1.226825791537    -0.066173061037    12.000000000000
         C            2.428892439909    -1.196782208463     0.062963938963    12.000000000000
         C            2.418292439909     1.225154791537    -0.001409061037    12.000000000000
         C            3.118698439909     0.018559791537     0.069238938963    12.000000000000
         H            0.484390439909    -2.150498208463    -0.030876061037     1.007825032230
         H            0.463322439909     2.153832791537    -0.139544061037     1.007825032230
         H            2.976679439909    -2.134354208463     0.108404938963     1.007825032230
         H            2.957591439909     2.168753791537    -0.008429061037     1.007825032230
         H            4.204533439909     0.024747791537     0.119671938963     1.007825032230
         H           -2.275119960091     0.740509991537     1.718587538963     1.007825032230

  Basis Set: AUG-CC-PVTZ
    Blend: AUG-CC-PVTZ
  Basis Set: (AUG-CC-PVTZ AUX)
    Blend: AUG-CC-PVTZ-JKFIT
	 Reference Energy          =    -852.9520626089752113 [Eh]
	 Singles Energy            =      -0.0000000000000000 [Eh]
	 Same-Spin Energy          =      -0.5333445518671813 [Eh]
	 Opposite-Spin Energy      =      -1.5553944638923152 [Eh]
	 Correlation Energy        =      -2.0887390157594963 [Eh]
	 Total Energy              =    -855.0408016247347405 [Eh]

	 ================> DF-SCS-MP2 Energies <==================
	-----------------------------------------------------------
	 SCS Same-Spin Scale       =       0.3333333333333333 [-]
	 SCS Opposite-Spin Scale   =       1.2000000000000000 [-]
	 SCS Same-Spin Energy      =      -0.1777815172890604 [Eh]
	 SCS Opposite-Spin Energy  =      -1.8664733566707781 [Eh]
	 SCS Correlation Energy    =      -2.0442548739598383 [Eh]
	 SCS Total Energy          =    -854.9963174829350692 [Eh]
	-----------------------------------------------------------

  Dipole Moment: [D]
     X:     3.7191      Y:     1.0998      Z:     2.0096     Total:     4.3680

*** Psi4 exiting successfully. Buy a developer a beer!
