                               Psi4 1.3.2 release

  ==> Input File <==

--------------------------------------------------------------------------
#psi4
#
memory 32 gb

molecule  {
0 1
  S       -1.4659670    -0.0143510    -0.1375590
  O       -1.8511075    -0.1103167     1.4581607
  O       -1.9435910     1.2980210    -0.5718830
  O       -1.8964450    -1.2505210    -0.7700040
  C        0.3016450    -0.0021640    -0.0777860
  C        0.9828110    -1.2195380    -0.0166250
  C        0.9713990     1.2224970    -0.0766470
  C        2.3756580    -1.2011840     0.0524460
  C        2.3651700     1.2207630    -0.0118790
  C        3.0655170     0.0141320     0.0587200
  H        0.4311260    -2.1548100    -0.0413950
  H        0.4102460     2.1495350    -0.1499850
  H        2.9234210    -2.1387710     0.0978390
  H        2.9045270     2.1643280    -0.0189110
  H        4.1513520     0.0202670     0.1091490
  H       -2.3021640     0.6943620     1.6969290
units angstrom
no_reorient  #important for SAPT in psi4, default
symmetry c1  #important for SAPT in psi4, default
}

set PROPERTIES_ORIGIN ["COM"]
properties('MP2/aug-cc-pvtz', properties = ['dipole'])
--------------------------------------------------------------------------

    Molecular point group: c1
  Charge       = 0
  Multiplicity = 1
  Basis Set: AUG-CC-PVTZ
    Blend: AUG-CC-PVTZ
  Basis Set: (AUG-CC-PVTZ AUX)
    Blend: AUG-CC-PVTZ-JKFIT

    Orbital Energies [Eh]
    ---------------------

    Doubly Occupied:

       1A    -92.233855     2A    -20.629326     3A    -20.567695
       4A    -20.566627     5A    -11.292080     6A    -11.277549
       7A    -11.277025     8A    -11.272933     9A    -11.265863
      10A    -11.265552    11A     -9.196635    12A     -6.882280
      13A     -6.880977    14A     -6.880732    15A     -1.498660
      16A     -1.387397    17A     -1.355749    18A     -1.189457
      19A     -1.068209    20A     -1.049331    21A     -0.931085
      22A     -0.861924    23A     -0.835486    24A     -0.762558
      25A     -0.736859    26A     -0.697467    27A     -0.684661
      28A     -0.661411    29A     -0.647261    30A     -0.629708
      31A     -0.621538    32A     -0.581028    33A     -0.553256
      34A     -0.538839    35A     -0.529197    36A     -0.520877
      37A     -0.509583    38A     -0.489569    39A     -0.481785
      40A     -0.377038    41A     -0.367209

  @DF-RHF Final Energy:  -852.95822682572395

   => Energetics <=

    Nuclear Repulsion Energy =            634.1158898907261801
    One-Electron Energy =               -2430.0356981413497124
    Two-Electron Energy =                 942.9615814248996912
    Total Energy =                       -852.9582268257239548
  Basis Set: (AUG-CC-PVTZ AUX)
    Blend: AUG-CC-PVTZ-RI
    Molecular point group: c1

    Geometry (in Angstrom), charge = 0, multiplicity = 1:

       Center              X                  Y                   Z               Mass
    ------------   -----------------  -----------------  -----------------  -----------------
         S           -1.411741773015    -0.012396329844    -0.126846397334    31.972071174400
         O           -1.796882273015    -0.108362029844     1.468873302666    15.994914619570
         O           -1.889365773015     1.299975670156    -0.561170397334    15.994914619570
         O           -1.842219773015    -1.248566329844    -0.759291397334    15.994914619570
         C            0.355870226985    -0.000209329844    -0.067073397334    12.000000000000
         C            1.037036226985    -1.217583329844    -0.005912397334    12.000000000000
         C            1.025624226985     1.224451670156    -0.065934397334    12.000000000000
         C            2.429883226985    -1.199229329844     0.063158602666    12.000000000000
         C            2.419395226985     1.222717670156    -0.001166397334    12.000000000000
         C            3.119742226985     0.016086670156     0.069432602666    12.000000000000
         H            0.485351226985    -2.152855329844    -0.030682397334     1.007825032230
         H            0.464471226985     2.151489670156    -0.139272397334     1.007825032230
         H            2.977646226985    -2.136816329844     0.108551602666     1.007825032230
         H            2.958752226985     2.166282670156    -0.008198397334     1.007825032230
         H            4.205577226985     0.022221670156     0.119861602666     1.007825032230
         H           -2.247938773015     0.696316670156     1.707641602666     1.007825032230

  Basis Set: AUG-CC-PVTZ
    Blend: AUG-CC-PVTZ
  Basis Set: (AUG-CC-PVTZ AUX)
    Blend: AUG-CC-PVTZ-JKFIT
	 Reference Energy          =    -852.9582268257239548 [Eh]
	 Singles Energy            =      -0.0000000000000000 [Eh]
	 Same-Spin Energy          =      -0.5322410052026441 [Eh]
	 Opposite-Spin Energy      =      -1.5529056403428425 [Eh]
	 Correlation Energy        =      -2.0851466455454863 [Eh]
	 Total Energy              =    -855.0433734712694331 [Eh]

	 ================> DF-SCS-MP2 Energies <==================
	-----------------------------------------------------------
	 SCS Same-Spin Scale       =       0.3333333333333333 [-]
	 SCS Opposite-Spin Scale   =       1.2000000000000000 [-]
	 SCS Same-Spin Energy      =      -0.1774136684008814 [Eh]
	 SCS Opposite-Spin Energy  =      -1.8634867684114109 [Eh]
	 SCS Correlation Energy    =      -2.0409004368122923 [Eh]
	 SCS Total Energy          =    -854.9991272625362626 [Eh]
	-----------------------------------------------------------

  Dipole Moment: [D]
     X:     3.8236      Y:     0.9980      Z:     1.9453     Total:     4.4045

*** Psi4 exiting successfully. Buy a developer a beer!
