                               Psi4 1.3.2 release

  ==> Input File <==

--------------------------------------------------------------------------
#psi4
#
memory 32 gb

molecule  {
0 1
  S       -1.4659670    -0.0143510    -0.1375590
  O       -1.8394920    -0.1365420     1.4591290
  O       -2.0264335     1.2240683    -0.6772602
  O       -1.8964450    -1.2505210    -0.7700040
  C        0.3016450    -0.0021640    -0.0777860
  C        0.9828110    -1.2195380    -0.0166250
  C        0.9713990     1.2224970    -0.0766470
  C        2.3756580    -1.2011840     0.0524460
  C        2.3651700     1.2207630    -0.0118790
  C        3.0655170     0.0141320     0.0587200
  H        0.4311260    -2.1548100    -0.0413950
  H        0.4102460     2.1495350    -0.1499850
  H        2.9234210    -2.1387710     0.0978390
  H        2.9045270     2.1643280    -0.0189110
  H        4.1513520     0.0202670     0.1091490
  H       -2.3021640     0.6943620     1.6969290
units angstrom
no_reorient  #important for SAPT in psi4, default
symmetry c1  #important for SAPT in psi4, default
}

set PROPERTIES_ORIGIN ["COM"]
properties('MP2/aug-cc-pvtz', properties = ['dipole'])
--------------------------------------------------------------------------

    Molecular point group: c1
  Charge       = 0
  Multiplicity = 1
  Basis Set: AUG-CC-PVTZ
    Blend: AUG-CC-PVTZ
  Basis Set: (AUG-CC-PVTZ AUX)
    Blend: AUG-CC-PVTZ-JKFIT

    Orbital Energies [Eh]
    ---------------------

    Doubly Occupied:

       1A    -92.231150     2A    -20.637717     3A    -20.568026
       4A    -20.554433     5A    -11.295061     6A    -11.280007
       7A    -11.278702     8A    -11.274362     9A    -11.267660
      10A    -11.267174    11A     -9.194329    12A     -6.879880
      13A     -6.878575    14A     -6.878461    15A     -1.495847
      16A     -1.387029    17A     -1.346240    18A     -1.191458
      19A     -1.070356    20A     -1.051127    21A     -0.931095
      22A     -0.863774    23A     -0.834101    24A     -0.761175
      25A     -0.735064    26A     -0.699038    27A     -0.682281
      28A     -0.662413    29A     -0.648571    30A     -0.625910
      31A     -0.622895    32A     -0.583543    33A     -0.555568
      34A     -0.539068    35A     -0.531024    36A     -0.521328
      37A     -0.502235    38A     -0.485119    39A     -0.478000
      40A     -0.378635    41A     -0.368894

  @DF-RHF Final Energy:  -852.95526255521668

   => Energetics <=

    Nuclear Repulsion Energy =            633.2606010573214235
    One-Electron Energy =               -2428.3570742479860201
    Two-Electron Energy =                 942.1412106354480329
    Total Energy =                       -852.9552625552166774
  Basis Set: (AUG-CC-PVTZ AUX)
    Blend: AUG-CC-PVTZ-RI
    Molecular point group: c1

    Geometry (in Angstrom), charge = 0, multiplicity = 1:

       Center              X                  Y                   Z               Mass
    ------------   -----------------  -----------------  -----------------  -----------------
         S           -1.404531376592    -0.002255188243    -0.116276956545    31.972071174400
         O           -1.778056376592    -0.124446188243     1.480411043455    15.994914619570
         O           -1.964997876592     1.236164111757    -0.655978156545    15.994914619570
         O           -1.835009376592    -1.238425188243    -0.748721956545    15.994914619570
         C            0.363080623408     0.009931811757    -0.056503956545    12.000000000000
         C            1.044246623408    -1.207442188243     0.004657043455    12.000000000000
         C            1.032834623408     1.234592811757    -0.055364956545    12.000000000000
         C            2.437093623408    -1.189088188243     0.073728043455    12.000000000000
         C            2.426605623408     1.232858811757     0.009403043455    12.000000000000
         C            3.126952623408     0.026227811757     0.080002043455    12.000000000000
         H            0.492561623408    -2.142714188243    -0.020112956545     1.007825032230
         H            0.471681623408     2.161630811757    -0.128702956545     1.007825032230
         H            2.984856623408    -2.126675188243     0.119121043455     1.007825032230
         H            2.965962623408     2.176423811757     0.002371043455     1.007825032230
         H            4.212787623408     0.032362811757     0.130431043455     1.007825032230
         H           -2.240728376592     0.706457811757     1.718211043455     1.007825032230

  Basis Set: AUG-CC-PVTZ
    Blend: AUG-CC-PVTZ
  Basis Set: (AUG-CC-PVTZ AUX)
    Blend: AUG-CC-PVTZ-JKFIT
	 Reference Energy          =    -852.9552625552166774 [Eh]
	 Singles Energy            =      -0.0000000000000000 [Eh]
	 Same-Spin Energy          =      -0.5324945658031849 [Eh]
	 Opposite-Spin Energy      =      -1.5536413456908569 [Eh]
	 Correlation Energy        =      -2.0861359114940417 [Eh]
	 Total Energy              =    -855.0413984667106888 [Eh]

	 ================> DF-SCS-MP2 Energies <==================
	-----------------------------------------------------------
	 SCS Same-Spin Scale       =       0.3333333333333333 [-]
	 SCS Opposite-Spin Scale   =       1.2000000000000000 [-]
	 SCS Same-Spin Energy      =      -0.1774981886010616 [Eh]
	 SCS Opposite-Spin Energy  =      -1.8643696148290281 [Eh]
	 SCS Correlation Energy    =      -2.0418678034300899 [Eh]
	 SCS Total Energy          =    -854.9971303586468139 [Eh]
	-----------------------------------------------------------

  Dipole Moment: [D]
     X:     4.0346      Y:     1.2308      Z:     2.2356     Total:     4.7739

*** Psi4 exiting successfully. Buy a developer a beer!
