                               Psi4 1.3.2 release

  ==> Input File <==

--------------------------------------------------------------------------
#psi4
#
memory 32 gb

molecule  {
0 1
  S       -1.4659670    -0.0143510    -0.1375590
  O       -1.8159232    -0.1888729     1.4596063
  O       -1.9435910     1.2980210    -0.5718830
  O       -1.8964450    -1.2505210    -0.7700040
  C        0.3016450    -0.0021640    -0.0777860
  C        0.9828110    -1.2195380    -0.0166250
  C        0.9713990     1.2224970    -0.0766470
  C        2.3756580    -1.2011840     0.0524460
  C        2.3651700     1.2207630    -0.0118790
  C        3.0655170     0.0141320     0.0587200
  H        0.4311260    -2.1548100    -0.0413950
  H        0.4102460     2.1495350    -0.1499850
  H        2.9234210    -2.1387710     0.0978390
  H        2.9045270     2.1643280    -0.0189110
  H        4.1513520     0.0202670     0.1091490
  H       -2.3021640     0.6943620     1.6969290
units angstrom
no_reorient  #important for SAPT in psi4, default
symmetry c1  #important for SAPT in psi4, default
}

set PROPERTIES_ORIGIN ["COM"]
properties('MP2/aug-cc-pvtz', properties = ['dipole'])
--------------------------------------------------------------------------

    Molecular point group: c1
  Charge       = 0
  Multiplicity = 1
  Basis Set: AUG-CC-PVTZ
    Blend: AUG-CC-PVTZ
  Basis Set: (AUG-CC-PVTZ AUX)
    Blend: AUG-CC-PVTZ-JKFIT

    Orbital Energies [Eh]
    ---------------------

    Doubly Occupied:

       1A    -92.232356     2A    -20.638801     3A    -20.572818
       4A    -20.562411     5A    -11.290449     6A    -11.276293
       7A    -11.275563     8A    -11.271658     9A    -11.264954
      10A    -11.264638    11A     -9.195416    12A     -6.881011
      13A     -6.879771    14A     -6.879500    15A     -1.495362
      16A     -1.376853    17A     -1.356527    18A     -1.188216
      19A     -1.066543    20A     -1.048247    21A     -0.925137
      22A     -0.860858    23A     -0.827763    24A     -0.754211
      25A     -0.731848    26A     -0.697471    27A     -0.683761
      28A     -0.660129    29A     -0.646391    30A     -0.628521
      31A     -0.620524    32A     -0.581007    33A     -0.552837
      34A     -0.537458    35A     -0.528209    36A     -0.521641
      37A     -0.508999    38A     -0.488392    39A     -0.481201
      40A     -0.375502    41A     -0.366236

  @DF-RHF Final Energy:  -852.95039587031090

   => Energetics <=

    Nuclear Repulsion Energy =            634.0058682168573796
    One-Electron Energy =               -2429.9215636642111349
    Two-Electron Energy =                 942.9652995770428561
    Total Energy =                       -852.9503958703108992
  Basis Set: (AUG-CC-PVTZ AUX)
    Blend: AUG-CC-PVTZ-RI
    Molecular point group: c1

    Geometry (in Angstrom), charge = 0, multiplicity = 1:

       Center              X                  Y                   Z               Mass
    ------------   -----------------  -----------------  -----------------  -----------------
         S           -1.415303522785    -0.004443989531    -0.126992737192    31.972071174400
         O           -1.765259722785    -0.178965889531     1.470172562808    15.994914619570
         O           -1.892927522785     1.307928010469    -0.561316737192    15.994914619570
         O           -1.845781522785    -1.240613989531    -0.759437737192    15.994914619570
         C            0.352308477215     0.007743010469    -0.067219737192    12.000000000000
         C            1.033474477215    -1.209630989531    -0.006058737192    12.000000000000
         C            1.022062477215     1.232404010469    -0.066080737192    12.000000000000
         C            2.426321477215    -1.191276989531     0.063012262808    12.000000000000
         C            2.415833477215     1.230670010469    -0.001312737192    12.000000000000
         C            3.116180477215     0.024039010469     0.069286262808    12.000000000000
         H            0.481789477215    -2.144902989531    -0.030828737192     1.007825032230
         H            0.460909477215     2.159442010469    -0.139418737192     1.007825032230
         H            2.974084477215    -2.128863989531     0.108405262808     1.007825032230
         H            2.955190477215     2.174235010469    -0.008344737192     1.007825032230
         H            4.202015477215     0.030174010469     0.119715262808     1.007825032230
         H           -2.251500522785     0.704269010469     1.707495262808     1.007825032230

  Basis Set: AUG-CC-PVTZ
    Blend: AUG-CC-PVTZ
  Basis Set: (AUG-CC-PVTZ AUX)
    Blend: AUG-CC-PVTZ-JKFIT
	 Reference Energy          =    -852.9503958703108992 [Eh]
	 Singles Energy            =      -0.0000000000000000 [Eh]
	 Same-Spin Energy          =      -0.5336931658689912 [Eh]
	 Opposite-Spin Energy      =      -1.5561116268787982 [Eh]
	 Correlation Energy        =      -2.0898047927477892 [Eh]
	 Total Energy              =    -855.0402006630587266 [Eh]

	 ================> DF-SCS-MP2 Energies <==================
	-----------------------------------------------------------
	 SCS Same-Spin Scale       =       0.3333333333333333 [-]
	 SCS Opposite-Spin Scale   =       1.2000000000000000 [-]
	 SCS Same-Spin Energy      =      -0.1778977219563304 [Eh]
	 SCS Opposite-Spin Energy  =      -1.8673339522545578 [Eh]
	 SCS Correlation Energy    =      -2.0452316742108883 [Eh]
	 SCS Total Energy          =    -854.9956275445217670 [Eh]
	-----------------------------------------------------------

  Dipole Moment: [D]
     X:     3.6787      Y:     1.1465      Z:     2.0109     Total:     4.3464

*** Psi4 exiting successfully. Buy a developer a beer!
