                               Psi4 1.4a3.dev225

  ==> Input File <==

--------------------------------------------------------------------------
#psi4
#
memory 32 gb

molecule  {
0 1
  S       -1.4659490    -0.0144420    -0.1375240
  O       -1.8389560    -0.1357530     1.4593660
  O       -1.9503243     1.3156086    -0.5783518
  O       -1.8964760    -1.2508500    -0.7695120
  C        0.3016350    -0.0022080    -0.0778240
  C        0.9828550    -1.2195450    -0.0166360
  C        0.9713380     1.2224880    -0.0767040
  C        2.3757070    -1.2011200     0.0524330
  C        2.3651070     1.2208170    -0.0119400
  C        3.0655130     0.0142220     0.0587080
  H        0.4312050    -2.1548360    -0.0414070
  H        0.4101370     2.1494950    -0.1500750
  H        2.9234940    -2.1386920     0.0978740
  H        2.9044060     2.1644160    -0.0189600
  H        4.1513480     0.0204100     0.1091410
  H       -2.3045580     0.6938590     1.6959880
units angstrom
no_reorient  #important for SAPT in psi4, default
symmetry c1  #important for SAPT in psi4, default
}

set PROPERTIES_ORIGIN ["COM"]
properties('MP2/aug-cc-pvtz', properties = ['dipole'])
--------------------------------------------------------------------------

    Molecular point group: c1
  Charge       = 0
  Multiplicity = 1
  Basis Set: AUG-CC-PVTZ
    Blend: AUG-CC-PVTZ
  Basis Set: (AUG-CC-PVTZ AUX)
    Blend: AUG-CC-PVTZ-JKFIT

    Orbital Energies [Eh]
    ---------------------

    Doubly Occupied:

       1A    -92.234967     2A    -20.634229     3A    -20.568963
       4A    -20.566771     5A    -11.292478     6A    -11.277508
       7A    -11.277222     8A    -11.272968     9A    -11.265875
      10A    -11.265677    11A     -9.197579    12A     -6.883187
      13A     -6.881874    14A     -6.881602    15A     -1.493709
      16A     -1.383192    17A     -1.350011    18A     -1.189536
      19A     -1.068278    20A     -1.049399    21A     -0.930171
      22A     -0.862006    23A     -0.833171    24A     -0.759473
      25A     -0.735718    26A     -0.697152    27A     -0.683363
      28A     -0.660990    29A     -0.647046    30A     -0.627315
      31A     -0.621546    32A     -0.581544    33A     -0.552719
      34A     -0.538121    35A     -0.529228    36A     -0.519750
      37A     -0.507736    38A     -0.487871    39A     -0.481216
      40A     -0.377068    41A     -0.367271

  @DF-RHF Final Energy:  -852.95440231773978

   => Energetics <=

    Nuclear Repulsion Energy =            633.1087024269684207
    One-Electron Energy =               -2428.0552134862809908
    Two-Electron Energy =                 941.9921087415727925
    Total Energy =                       -852.9544023177397776
  Basis Set: (AUG-CC-PVTZ AUX)
    Blend: AUG-CC-PVTZ-RI
    Molecular point group: c1

    Geometry (in Angstrom), charge = 0, multiplicity = 1:

       Center              X                  Y                   Z               Mass
    ------------   -----------------  -----------------  -----------------  -----------------
         S           -1.412253557393    -0.011650665615    -0.126314079778    31.972071174400
         O           -1.785260557393    -0.132961665615     1.470575920222    15.994914619570
         O           -1.896628857393     1.318399934385    -0.567141879778    15.994914619570
         O           -1.842780557393    -1.248058665615    -0.758302079778    15.994914619570
         C            0.355330442607     0.000583334385    -0.066614079778    12.000000000000
         C            1.036550442607    -1.216753665615    -0.005426079778    12.000000000000
         C            1.025033442607     1.225279334385    -0.065494079778    12.000000000000
         C            2.429402442607    -1.198328665615     0.063642920222    12.000000000000
         C            2.418802442607     1.223608334385    -0.000730079778    12.000000000000
         C            3.119208442607     0.017013334385     0.069917920222    12.000000000000
         H            0.484900442607    -2.152044665615    -0.030197079778     1.007825032230
         H            0.463832442607     2.152286334385    -0.138865079778     1.007825032230
         H            2.977189442607    -2.135900665615     0.109083920222     1.007825032230
         H            2.958101442607     2.167207334385    -0.007750079778     1.007825032230
         H            4.205043442607     0.023201334385     0.120350920222     1.007825032230
         H           -2.250862557393     0.696650334385     1.707197920222     1.007825032230

  Basis Set: AUG-CC-PVTZ
    Blend: AUG-CC-PVTZ
  Basis Set: (AUG-CC-PVTZ AUX)
    Blend: AUG-CC-PVTZ-JKFIT
	 Reference Energy          =    -852.9544023177397776 [Eh]
	 Singles Energy            =      -0.0000000000000000 [Eh]
	 Same-Spin Energy          =      -0.5331484641654681 [Eh]
	 Opposite-Spin Energy      =      -1.5550350592706095 [Eh]
	 Correlation Energy        =      -2.0881835234360775 [Eh]
	 Total Energy              =    -855.0425858411758782 [Eh]

	 ================> DF-SCS-MP2 Energies <==================
	-----------------------------------------------------------
	 SCS Same-Spin Scale       =       0.3333333333333333 [-]
	 SCS Opposite-Spin Scale   =       1.2000000000000000 [-]
	 SCS Same-Spin Energy      =      -0.1777161547218227 [Eh]
	 SCS Opposite-Spin Energy  =      -1.8660420711247312 [Eh]
	 SCS Correlation Energy    =      -2.0437582258465539 [Eh]
	 SCS Total Energy          =    -854.9981605435863230 [Eh]
	-----------------------------------------------------------

  Dipole Moment: [D]
     X:     3.8246      Y:     0.9621      Z:     2.0031     Total:     4.4233

*** Psi4 exiting successfully. Buy a developer a beer!
