                               Psi4 1.3.2 release

  ==> Input File <==

--------------------------------------------------------------------------
#psi4
#
memory 32 gb

molecule  {
0 1
  S       -1.4623805     0.1089916    -0.1412851
  O       -1.8394920    -0.1365420     1.4591290
  O       -1.9435910     1.2980210    -0.5718830
  O       -1.8964450    -1.2505210    -0.7700040
  C        0.3016450    -0.0021640    -0.0777860
  C        0.9828110    -1.2195380    -0.0166250
  C        0.9713990     1.2224970    -0.0766470
  C        2.3756580    -1.2011840     0.0524460
  C        2.3651700     1.2207630    -0.0118790
  C        3.0655170     0.0141320     0.0587200
  H        0.4311260    -2.1548100    -0.0413950
  H        0.4102460     2.1495350    -0.1499850
  H        2.9234210    -2.1387710     0.0978390
  H        2.9045270     2.1643280    -0.0189110
  H        4.1513520     0.0202670     0.1091490
  H       -2.3021640     0.6943620     1.6969290
units angstrom
no_reorient  #important for SAPT in psi4, default
symmetry c1  #important for SAPT in psi4, default
}

set PROPERTIES_ORIGIN ["COM"]
properties('MP2/aug-cc-pvtz', properties = ['dipole'])
--------------------------------------------------------------------------

    Molecular point group: c1
  Charge       = 0
  Multiplicity = 1
  Basis Set: AUG-CC-PVTZ
    Blend: AUG-CC-PVTZ
  Basis Set: (AUG-CC-PVTZ AUX)
    Blend: AUG-CC-PVTZ-JKFIT

    Orbital Energies [Eh]
    ---------------------

    Doubly Occupied:

       1A    -92.227753     2A    -20.632402     3A    -20.596924
       4A    -20.538765     5A    -11.292323     6A    -11.277966
       7A    -11.276500     8A    -11.272791     9A    -11.265964
      10A    -11.265534    11A     -9.193707    12A     -6.879353
      13A     -6.878235    14A     -6.876959    15A     -1.533743
      16A     -1.405634    17A     -1.306517    18A     -1.189278
      19A     -1.068417    20A     -1.049068    21A     -0.927454
      22A     -0.862213    23A     -0.829705    24A     -0.758152
      25A     -0.742425    26A     -0.706573    27A     -0.692957
      28A     -0.665615    29A     -0.650536    30A     -0.636543
      31A     -0.621199    32A     -0.581283    33A     -0.562597
      34A     -0.539594    35A     -0.536212    36A     -0.529409
      37A     -0.501113    38A     -0.466164    39A     -0.460924
      40A     -0.376526    41A     -0.366900

  @DF-RHF Final Energy:  -852.92700877573111

   => Energetics <=

    Nuclear Repulsion Energy =            634.3405569157852142
    One-Electron Energy =               -2430.4512763854349942
    Two-Electron Energy =                 943.1837106939185560
    Total Energy =                       -852.9270087757311103
  Basis Set: (AUG-CC-PVTZ AUX)
    Blend: AUG-CC-PVTZ-RI
    Molecular point group: c1

    Geometry (in Angstrom), charge = 0, multiplicity = 1:

       Center              X                  Y                   Z               Mass
    ------------   -----------------  -----------------  -----------------  -----------------
         S           -1.410056852788     0.088642707031    -0.129916542975    31.972071174400
         O           -1.787168352788    -0.156890892969     1.470497557025    15.994914619570
         O           -1.891267352788     1.277672107031    -0.560514442975    15.994914619570
         O           -1.844121352788    -1.270869892969    -0.758635442975    15.994914619570
         C            0.353968647212    -0.022512892969    -0.066417442975    12.000000000000
         C            1.035134647212    -1.239886892969    -0.005256442975    12.000000000000
         C            1.023722647212     1.202148107031    -0.065278442975    12.000000000000
         C            2.427981647212    -1.221532892969     0.063814557025    12.000000000000
         C            2.417493647212     1.200414107031    -0.000510442975    12.000000000000
         C            3.117840647212    -0.006216892969     0.070088557025    12.000000000000
         H            0.483449647212    -2.175158892969    -0.030026442975     1.007825032230
         H            0.462569647212     2.129186107031    -0.138616442975     1.007825032230
         H            2.975744647212    -2.159119892969     0.109207557025     1.007825032230
         H            2.956850647212     2.143979107031    -0.007542442975     1.007825032230
         H            4.203675647212    -0.000081892969     0.120517557025     1.007825032230
         H           -2.249840352788     0.674013107031     1.708297557025     1.007825032230

  Basis Set: AUG-CC-PVTZ
    Blend: AUG-CC-PVTZ
  Basis Set: (AUG-CC-PVTZ AUX)
    Blend: AUG-CC-PVTZ-JKFIT
	 Reference Energy          =    -852.9270087757311103 [Eh]
	 Singles Energy            =      -0.0000000000000000 [Eh]
	 Same-Spin Energy          =      -0.5325272411124309 [Eh]
	 Opposite-Spin Energy      =      -1.5543416158571066 [Eh]
	 Correlation Energy        =      -2.0868688569695375 [Eh]
	 Total Energy              =    -855.0138776327006553 [Eh]

	 ================> DF-SCS-MP2 Energies <==================
	-----------------------------------------------------------
	 SCS Same-Spin Scale       =       0.3333333333333333 [-]
	 SCS Opposite-Spin Scale   =       1.2000000000000000 [-]
	 SCS Same-Spin Energy      =      -0.1775090803708103 [Eh]
	 SCS Opposite-Spin Energy  =      -1.8652099390285279 [Eh]
	 SCS Correlation Energy    =      -2.0427190193993381 [Eh]
	 SCS Total Energy          =    -854.9697277951304386 [Eh]
	-----------------------------------------------------------

  Dipole Moment: [D]
     X:     3.8383      Y:     2.1303      Z:     1.9849     Total:     4.8177

*** Psi4 exiting successfully. Buy a developer a beer!
