                               Psi4 1.4a3.dev225

  ==> Input File <==

--------------------------------------------------------------------------
#psi4
#
memory 32 gb

molecule  {
0 1
  S       -1.4659490    -0.0144420    -0.1375240
  O       -1.8389560    -0.1357530     1.4593660
  O       -1.9437900     1.2976660    -0.5724050
  O       -1.8964760    -1.2508500    -0.7695120
  C        0.3216231    -0.0020697    -0.0771489
  C        0.9828550    -1.2195450    -0.0166360
  C        0.9713380     1.2224880    -0.0767040
  C        2.3757070    -1.2011200     0.0524330
  C        2.3651070     1.2208170    -0.0119400
  C        3.0655130     0.0142220     0.0587080
  H        0.4312050    -2.1548360    -0.0414070
  H        0.4101370     2.1494950    -0.1500750
  H        2.9234940    -2.1386920     0.0978740
  H        2.9044060     2.1644160    -0.0189600
  H        4.1513480     0.0204100     0.1091410
  H       -2.3045580     0.6938590     1.6959880
units angstrom
no_reorient  #important for SAPT in psi4, default
symmetry c1  #important for SAPT in psi4, default
}

set PROPERTIES_ORIGIN ["COM"]
properties('MP2/aug-cc-pvtz', properties = ['dipole'])
--------------------------------------------------------------------------

    Molecular point group: c1
  Charge       = 0
  Multiplicity = 1
  Basis Set: AUG-CC-PVTZ
    Blend: AUG-CC-PVTZ
  Basis Set: (AUG-CC-PVTZ AUX)
    Blend: AUG-CC-PVTZ-JKFIT

    Orbital Energies [Eh]
    ---------------------

    Doubly Occupied:

       1A    -92.232865     2A    -20.632864     3A    -20.569534
       4A    -20.565306     5A    -11.291795     6A    -11.275375
       7A    -11.274797     8A    -11.271440     9A    -11.265558
      10A    -11.265238    11A     -9.195672    12A     -6.881283
      13A     -6.879964    14A     -6.879744    15A     -1.496917
      16A     -1.383521    17A     -1.355985    18A     -1.190936
      19A     -1.066363    20A     -1.050035    21A     -0.926369
      22A     -0.862737    23A     -0.832580    24A     -0.759082
      25A     -0.735765    26A     -0.696386    27A     -0.683776
      28A     -0.661672    29A     -0.647253    30A     -0.629730
      31A     -0.622362    32A     -0.580835    33A     -0.553125
      34A     -0.539350    35A     -0.530627    36A     -0.521022
      37A     -0.509488    38A     -0.488870    39A     -0.478764
      40A     -0.377052    41A     -0.367098

  @DF-RHF Final Energy:  -852.95695407756773

   => Energetics <=

    Nuclear Repulsion Energy =            633.9282744065409361
    One-Electron Energy =               -2429.7121891500482889
    Two-Electron Energy =                 942.8269606659397368
    Total Energy =                       -852.9569540775677297
  Basis Set: (AUG-CC-PVTZ AUX)
    Blend: AUG-CC-PVTZ-RI
    Molecular point group: c1

    Geometry (in Angstrom), charge = 0, multiplicity = 1:

       Center              X                  Y                   Z               Mass
    ------------   -----------------  -----------------  -----------------  -----------------
         S           -1.414433079952    -0.009844817795    -0.126967353820    31.972071174400
         O           -1.787440079952    -0.131155817795     1.469922646180    15.994914619570
         O           -1.892274079952     1.302263182205    -0.561848353820    15.994914619570
         O           -1.844960079952    -1.246252817795    -0.758955353820    15.994914619570
         C            0.373139020048     0.002527482205    -0.066592253820    12.000000000000
         C            1.034370920048    -1.214947817795    -0.006079353820    12.000000000000
         C            1.022853920048     1.227085182205    -0.066147353820    12.000000000000
         C            2.427222920048    -1.196522817795     0.062989646180    12.000000000000
         C            2.416622920048     1.225414182205    -0.001383353820    12.000000000000
         C            3.117028920048     0.018819182205     0.069264646180    12.000000000000
         H            0.482720920048    -2.150238817795    -0.030850353820     1.007825032230
         H            0.461652920048     2.154092182205    -0.139518353820     1.007825032230
         H            2.975009920048    -2.134094817795     0.108430646180     1.007825032230
         H            2.955921920048     2.169013182205    -0.008403353820     1.007825032230
         H            4.202863920048     0.025007182205     0.119697646180     1.007825032230
         H           -2.253042079952     0.698456182205     1.706544646180     1.007825032230

  Basis Set: AUG-CC-PVTZ
    Blend: AUG-CC-PVTZ
  Basis Set: (AUG-CC-PVTZ AUX)
    Blend: AUG-CC-PVTZ-JKFIT
	 Reference Energy          =    -852.9569540775677297 [Eh]
	 Singles Energy            =      -0.0000000000000000 [Eh]
	 Same-Spin Energy          =      -0.5327010323703185 [Eh]
	 Opposite-Spin Energy      =      -1.5538684528971158 [Eh]
	 Correlation Energy        =      -2.0865694852674341 [Eh]
	 Total Energy              =    -855.0435235628351620 [Eh]

	 ================> DF-SCS-MP2 Energies <==================
	-----------------------------------------------------------
	 SCS Same-Spin Scale       =       0.3333333333333333 [-]
	 SCS Opposite-Spin Scale   =       1.2000000000000000 [-]
	 SCS Same-Spin Energy      =      -0.1775670107901062 [Eh]
	 SCS Opposite-Spin Energy  =      -1.8646421434765390 [Eh]
	 SCS Correlation Energy    =      -2.0422091542666450 [Eh]
	 SCS Total Energy          =    -854.9991632318343591 [Eh]
	-----------------------------------------------------------

  Dipole Moment: [D]
     X:     3.7398      Y:     1.0480      Z:     1.9631     Total:     4.3518

*** Psi4 exiting successfully. Buy a developer a beer!
