                               Psi4 1.3.2 release

  ==> Input File <==

--------------------------------------------------------------------------
#psi4
#
memory 32 gb

molecule  {
0 1
  S       -1.4659670    -0.0143510    -0.1375590
  O       -1.8394920    -0.1365420     1.4591290
  O       -2.0853768     1.2417229    -0.5590944
  O       -1.8964450    -1.2505210    -0.7700040
  C        0.3016450    -0.0021640    -0.0777860
  C        0.9828110    -1.2195380    -0.0166250
  C        0.9713990     1.2224970    -0.0766470
  C        2.3756580    -1.2011840     0.0524460
  C        2.3651700     1.2207630    -0.0118790
  C        3.0655170     0.0141320     0.0587200
  H        0.4311260    -2.1548100    -0.0413950
  H        0.4102460     2.1495350    -0.1499850
  H        2.9234210    -2.1387710     0.0978390
  H        2.9045270     2.1643280    -0.0189110
  H        4.1513520     0.0202670     0.1091490
  H       -2.3021640     0.6943620     1.6969290
units angstrom
no_reorient  #important for SAPT in psi4, default
symmetry c1  #important for SAPT in psi4, default
}

set PROPERTIES_ORIGIN ["COM"]
properties('MP2/aug-cc-pvtz', properties = ['dipole'])
--------------------------------------------------------------------------

    Molecular point group: c1
  Charge       = 0
  Multiplicity = 1
  Basis Set: AUG-CC-PVTZ
    Blend: AUG-CC-PVTZ
  Basis Set: (AUG-CC-PVTZ AUX)
    Blend: AUG-CC-PVTZ-JKFIT

    Orbital Energies [Eh]
    ---------------------

    Doubly Occupied:

       1A    -92.231257     2A    -20.627288     3A    -20.566907
       4A    -20.558513     5A    -11.297878     6A    -11.281973
       7A    -11.280797     8A    -11.276110     9A    -11.269131
      10A    -11.268751    11A     -9.194378    12A     -6.879995
      13A     -6.878576    14A     -6.878546    15A     -1.495171
      16A     -1.379028    17A     -1.349239    18A     -1.193371
      19A     -1.072303    20A     -1.052843    21A     -0.931259
      22A     -0.865529    23A     -0.833134    24A     -0.760309
      25A     -0.732375    26A     -0.698944    27A     -0.682558
      28A     -0.663419    29A     -0.649944    30A     -0.626763
      31A     -0.624281    32A     -0.578138    33A     -0.556285
      34A     -0.538956    35A     -0.532625    36A     -0.518271
      37A     -0.504212    38A     -0.487547    39A     -0.479764
      40A     -0.380526    41A     -0.370470

  @DF-RHF Final Energy:  -852.95576160955602

   => Energetics <=

    Nuclear Repulsion Energy =            633.1805528611433829
    One-Electron Energy =               -2428.1778968800012990
    Two-Electron Energy =                 942.0415824093017818
    Total Energy =                       -852.9557616095560206
  Basis Set: (AUG-CC-PVTZ AUX)
    Blend: AUG-CC-PVTZ-RI
    Molecular point group: c1

    Geometry (in Angstrom), charge = 0, multiplicity = 1:

       Center              X                  Y                   Z               Mass
    ------------   -----------------  -----------------  -----------------  -----------------
         S           -1.398564474161    -0.004042385018    -0.128239025165    31.972071174400
         O           -1.772089474161    -0.126233385018     1.468448974835    15.994914619570
         O           -2.017974274161     1.252031514982    -0.549774425165    15.994914619570
         O           -1.829042474161    -1.240212385018    -0.760684025165    15.994914619570
         C            0.369047525839     0.008144614982    -0.068466025165    12.000000000000
         C            1.050213525839    -1.209229385018    -0.007305025165    12.000000000000
         C            1.038801525839     1.232805614982    -0.067327025165    12.000000000000
         C            2.443060525839    -1.190875385018     0.061765974835    12.000000000000
         C            2.432572525839     1.231071614982    -0.002559025165    12.000000000000
         C            3.132919525839     0.024440614982     0.068039974835    12.000000000000
         H            0.498528525839    -2.144501385018    -0.032075025165     1.007825032230
         H            0.477648525839     2.159843614982    -0.140665025165     1.007825032230
         H            2.990823525839    -2.128462385018     0.107158974835     1.007825032230
         H            2.971929525839     2.174636614982    -0.009591025165     1.007825032230
         H            4.218754525839     0.030575614982     0.118468974835     1.007825032230
         H           -2.234761474161     0.704670614982     1.706248974835     1.007825032230

  Basis Set: AUG-CC-PVTZ
    Blend: AUG-CC-PVTZ
  Basis Set: (AUG-CC-PVTZ AUX)
    Blend: AUG-CC-PVTZ-JKFIT
	 Reference Energy          =    -852.9557616095560206 [Eh]
	 Singles Energy            =      -0.0000000000000000 [Eh]
	 Same-Spin Energy          =      -0.5324041825537643 [Eh]
	 Opposite-Spin Energy      =      -1.5533737777573560 [Eh]
	 Correlation Energy        =      -2.0857779603111202 [Eh]
	 Total Energy              =    -855.0415395698671546 [Eh]

	 ================> DF-SCS-MP2 Energies <==================
	-----------------------------------------------------------
	 SCS Same-Spin Scale       =       0.3333333333333333 [-]
	 SCS Opposite-Spin Scale   =       1.2000000000000000 [-]
	 SCS Same-Spin Energy      =      -0.1774680608512548 [Eh]
	 SCS Opposite-Spin Energy  =      -1.8640485333088270 [Eh]
	 SCS Correlation Energy    =      -2.0415165941600817 [Eh]
	 SCS Total Energy          =    -854.9972782037160641 [Eh]
	-----------------------------------------------------------

  Dipole Moment: [D]
     X:     4.2747      Y:     1.1422      Z:     1.9363     Total:     4.8298

*** Psi4 exiting successfully. Buy a developer a beer!
