                               Psi4 1.3.2 release

  ==> Input File <==

--------------------------------------------------------------------------
#psi4
#
memory 32 gb

molecule  {
0 1
  S       -1.4659670    -0.0143510    -0.1375590
  O       -1.8394920    -0.1365420     1.4591290
  O       -1.9435910     1.2980210    -0.5718830
  O       -1.8964450    -1.2505210    -0.7700040
  C        0.4015855    -0.0014749    -0.0744064
  C        0.9828110    -1.2195380    -0.0166250
  C        0.9713990     1.2224970    -0.0766470
  C        2.3756580    -1.2011840     0.0524460
  C        2.3651700     1.2207630    -0.0118790
  C        3.0655170     0.0141320     0.0587200
  H        0.4311260    -2.1548100    -0.0413950
  H        0.4102460     2.1495350    -0.1499850
  H        2.9234210    -2.1387710     0.0978390
  H        2.9045270     2.1643280    -0.0189110
  H        4.1513520     0.0202670     0.1091490
  H       -2.3021640     0.6943620     1.6969290
units angstrom
no_reorient  #important for SAPT in psi4, default
symmetry c1  #important for SAPT in psi4, default
}

set PROPERTIES_ORIGIN ["COM"]
properties('MP2/aug-cc-pvtz', properties = ['dipole'])
--------------------------------------------------------------------------

    Molecular point group: c1
  Charge       = 0
  Multiplicity = 1
  Basis Set: AUG-CC-PVTZ
    Blend: AUG-CC-PVTZ
  Basis Set: (AUG-CC-PVTZ AUX)
    Blend: AUG-CC-PVTZ-JKFIT

    Orbital Energies [Eh]
    ---------------------

    Doubly Occupied:

       1A    -92.228837     2A    -20.632204     3A    -20.568756
       4A    -20.564544     5A    -11.293449     6A    -11.269814
       7A    -11.269306     8A    -11.268322     9A    -11.266313
      10A    -11.265872    11A     -9.191671    12A     -6.877190
      13A     -6.875792    14A     -6.875578    15A     -1.494127
      16A     -1.382177    17A     -1.354469    18A     -1.199973
      19A     -1.062550    20A     -1.055953    21A     -0.916463
      22A     -0.867917    23A     -0.832572    24A     -0.758224
      25A     -0.735050    26A     -0.691989    27A     -0.680883
      28A     -0.665846    29A     -0.648505    30A     -0.631341
      31A     -0.625175    32A     -0.579623    33A     -0.554439
      34A     -0.543543    35A     -0.537334    36A     -0.520222
      37A     -0.508484    38A     -0.487429    39A     -0.463308
      40A     -0.379562    41A     -0.368903

  @DF-RHF Final Energy:  -852.94838769092723

   => Energetics <=

    Nuclear Repulsion Energy =            633.4533780699596264
    One-Electron Energy =               -2428.8161171889159959
    Two-Electron Energy =                 942.4143514280291356
    Total Energy =                       -852.9483876909272340
  Basis Set: (AUG-CC-PVTZ AUX)
    Blend: AUG-CC-PVTZ-RI
    Molecular point group: c1

    Geometry (in Angstrom), charge = 0, multiplicity = 1:

       Center              X                  Y                   Z               Mass
    ------------   -----------------  -----------------  -----------------  -----------------
         S           -1.420507861144    -0.009793846076    -0.127201091893    31.972071174400
         O           -1.794032861144    -0.131984846076     1.469486908107    15.994914619570
         O           -1.898131861144     1.302578153924    -0.561525091893    15.994914619570
         O           -1.850985861144    -1.245963846076    -0.759646091893    15.994914619570
         C            0.447044638856     0.003082253924    -0.064048491893    12.000000000000
         C            1.028270138856    -1.214980846076    -0.006267091893    12.000000000000
         C            1.016858138856     1.227054153924    -0.066289091893    12.000000000000
         C            2.421117138856    -1.196626846076     0.062803908107    12.000000000000
         C            2.410629138856     1.225320153924    -0.001521091893    12.000000000000
         C            3.110976138856     0.018689153924     0.069077908107    12.000000000000
         H            0.476585138856    -2.150252846076    -0.031037091893     1.007825032230
         H            0.455705138856     2.154092153924    -0.139627091893     1.007825032230
         H            2.968880138856    -2.134213846076     0.108196908107     1.007825032230
         H            2.949986138856     2.168885153924    -0.008553091893     1.007825032230
         H            4.196811138856     0.024824153924     0.119506908107     1.007825032230
         H           -2.256704861144     0.698919153924     1.707286908107     1.007825032230

  Basis Set: AUG-CC-PVTZ
    Blend: AUG-CC-PVTZ
  Basis Set: (AUG-CC-PVTZ AUX)
    Blend: AUG-CC-PVTZ-JKFIT
	 Reference Energy          =    -852.9483876909272340 [Eh]
	 Singles Energy            =      -0.0000000000000000 [Eh]
	 Same-Spin Energy          =      -0.5329943832550526 [Eh]
	 Opposite-Spin Energy      =      -1.5542405572671285 [Eh]
	 Correlation Energy        =      -2.0872349405221811 [Eh]
	 Total Energy              =    -855.0356226314494279 [Eh]

	 ================> DF-SCS-MP2 Energies <==================
	-----------------------------------------------------------
	 SCS Same-Spin Scale       =       0.3333333333333333 [-]
	 SCS Opposite-Spin Scale   =       1.2000000000000000 [-]
	 SCS Same-Spin Energy      =      -0.1776647944183508 [Eh]
	 SCS Opposite-Spin Energy  =      -1.8650886687205541 [Eh]
	 SCS Correlation Energy    =      -2.0427534631389048 [Eh]
	 SCS Total Energy          =    -854.9911411540660993 [Eh]
	-----------------------------------------------------------

  Dipole Moment: [D]
     X:     3.6901      Y:     1.0478      Z:     1.9496     Total:     4.3030

*** Psi4 exiting successfully. Buy a developer a beer!
