                               Psi4 1.4a3.dev225

  ==> Input File <==

--------------------------------------------------------------------------
#psi4
#
memory 32 gb

molecule  {
0 1
  S       -1.4659490    -0.0144420    -0.1375240
  O       -1.8389560    -0.1357530     1.4593660
  O       -1.9601258     1.3425226    -0.5872721
  O       -1.8964760    -1.2508500    -0.7695120
  C        0.3016350    -0.0022080    -0.0778240
  C        0.9828550    -1.2195450    -0.0166360
  C        0.9713380     1.2224880    -0.0767040
  C        2.3757070    -1.2011200     0.0524330
  C        2.3651070     1.2208170    -0.0119400
  C        3.0655130     0.0142220     0.0587080
  H        0.4312050    -2.1548360    -0.0414070
  H        0.4101370     2.1494950    -0.1500750
  H        2.9234940    -2.1386920     0.0978740
  H        2.9044060     2.1644160    -0.0189600
  H        4.1513480     0.0204100     0.1091410
  H       -2.3045580     0.6938590     1.6959880
units angstrom
no_reorient  #important for SAPT in psi4, default
symmetry c1  #important for SAPT in psi4, default
}

set PROPERTIES_ORIGIN ["COM"]
properties('MP2/aug-cc-pvtz', properties = ['dipole'])
--------------------------------------------------------------------------

    Molecular point group: c1
  Charge       = 0
  Multiplicity = 1
  Basis Set: AUG-CC-PVTZ
    Blend: AUG-CC-PVTZ
  Basis Set: (AUG-CC-PVTZ AUX)
    Blend: AUG-CC-PVTZ-JKFIT

    Orbital Energies [Eh]
    ---------------------

    Doubly Occupied:

       1A    -92.237029     2A    -20.636397     3A    -20.569026
       4A    -20.568345     5A    -11.293858     6A    -11.278242
       7A    -11.278074     8A    -11.273658     9A    -11.266393
      10A    -11.266283    11A     -9.199400    12A     -6.884965
      13A     -6.883657    14A     -6.883257    15A     -1.489504
      16A     -1.383440    17A     -1.339352    18A     -1.190268
      19A     -1.069227    20A     -1.050047    21A     -0.932106
      22A     -0.862672    23A     -0.834089    24A     -0.759745
      25A     -0.735860    26A     -0.696767    27A     -0.682221
      28A     -0.660935    29A     -0.647237    30A     -0.624203
      31A     -0.621890    32A     -0.582338    33A     -0.552443
      34A     -0.537838    35A     -0.529807    36A     -0.518141
      37A     -0.505008    38A     -0.485578    39A     -0.480018
      40A     -0.377867    41A     -0.367854

  @DF-RHF Final Energy:  -852.94912154348958

   => Energetics <=

    Nuclear Repulsion Energy =            631.7041958933522210
    One-Electron Energy =               -2425.2365627589892938
    Two-Electron Energy =                 940.5832453221473770
    Total Energy =                       -852.9491215434895821
  Basis Set: (AUG-CC-PVTZ AUX)
    Blend: AUG-CC-PVTZ-RI
    Molecular point group: c1

    Geometry (in Angstrom), charge = 0, multiplicity = 1:

       Center              X                  Y                   Z               Mass
    ------------   -----------------  -----------------  -----------------  -----------------
         S           -1.411261339547    -0.014375202790    -0.125411066887    31.972071174400
         O           -1.784268339547    -0.135686202790     1.471478933113    15.994914619570
         O           -1.905438139547     1.342589397210    -0.575159166887    15.994914619570
         O           -1.841788339547    -1.250783202790    -0.757399066887    15.994914619570
         C            0.356322660453    -0.002141202790    -0.065711066887    12.000000000000
         C            1.037542660453    -1.219478202790    -0.004523066887    12.000000000000
         C            1.026025660453     1.222554797210    -0.064591066887    12.000000000000
         C            2.430394660453    -1.201053202790     0.064545933113    12.000000000000
         C            2.419794660453     1.220883797210     0.000172933113    12.000000000000
         C            3.120200660453     0.014288797210     0.070820933113    12.000000000000
         H            0.485892660453    -2.154769202790    -0.029294066887     1.007825032230
         H            0.464824660453     2.149561797210    -0.137962066887     1.007825032230
         H            2.978181660453    -2.138625202790     0.109986933113     1.007825032230
         H            2.959093660453     2.164482797210    -0.006847066887     1.007825032230
         H            4.206035660453     0.020476797210     0.121253933113     1.007825032230
         H           -2.249870339547     0.693925797210     1.708100933113     1.007825032230

  Basis Set: AUG-CC-PVTZ
    Blend: AUG-CC-PVTZ
  Basis Set: (AUG-CC-PVTZ AUX)
    Blend: AUG-CC-PVTZ-JKFIT
	 Reference Energy          =    -852.9491215434895821 [Eh]
	 Singles Energy            =      -0.0000000000000000 [Eh]
	 Same-Spin Energy          =      -0.5337541091663198 [Eh]
	 Opposite-Spin Energy      =      -1.5566378659329030 [Eh]
	 Correlation Energy        =      -2.0903919750992230 [Eh]
	 Total Energy              =    -855.0395135185888194 [Eh]

	 ================> DF-SCS-MP2 Energies <==================
	-----------------------------------------------------------
	 SCS Same-Spin Scale       =       0.3333333333333333 [-]
	 SCS Opposite-Spin Scale   =       1.2000000000000000 [-]
	 SCS Same-Spin Energy      =      -0.1779180363887733 [Eh]
	 SCS Opposite-Spin Energy  =      -1.8679654391194835 [Eh]
	 SCS Correlation Energy    =      -2.0458834755082567 [Eh]
	 SCS Total Energy          =    -854.9950050189978583 [Eh]
	-----------------------------------------------------------

  Dipole Moment: [D]
     X:     3.9063      Y:     0.8325      Z:     2.0573     Total:     4.4927

*** Psi4 exiting successfully. Buy a developer a beer!
