                               Psi4 1.3.2 release

  ==> Input File <==

--------------------------------------------------------------------------
#psi4
#
memory 32 gb

molecule  {
0 1
  S       -1.4659670    -0.0143510    -0.1375590
  O       -1.8394920    -0.1365420     1.4591290
  O       -1.8555156     1.3575951    -0.4617473
  O       -1.8964450    -1.2505210    -0.7700040
  C        0.3016450    -0.0021640    -0.0777860
  C        0.9828110    -1.2195380    -0.0166250
  C        0.9713990     1.2224970    -0.0766470
  C        2.3756580    -1.2011840     0.0524460
  C        2.3651700     1.2207630    -0.0118790
  C        3.0655170     0.0141320     0.0587200
  H        0.4311260    -2.1548100    -0.0413950
  H        0.4102460     2.1495350    -0.1499850
  H        2.9234210    -2.1387710     0.0978390
  H        2.9045270     2.1643280    -0.0189110
  H        4.1513520     0.0202670     0.1091490
  H       -2.3021640     0.6943620     1.6969290
units angstrom
no_reorient  #important for SAPT in psi4, default
symmetry c1  #important for SAPT in psi4, default
}

set PROPERTIES_ORIGIN ["COM"]
properties('MP2/aug-cc-pvtz', properties = ['dipole'])
--------------------------------------------------------------------------

    Molecular point group: c1
  Charge       = 0
  Multiplicity = 1
  Basis Set: AUG-CC-PVTZ
    Blend: AUG-CC-PVTZ
  Basis Set: (AUG-CC-PVTZ AUX)
    Blend: AUG-CC-PVTZ-JKFIT

    Orbital Energies [Eh]
    ---------------------

    Doubly Occupied:

       1A    -92.235094     2A    -20.627438     3A    -20.575170
       4A    -20.569993     5A    -11.287841     6A    -11.274156
       7A    -11.273982     8A    -11.270490     9A    -11.263269
      10A    -11.263122    11A     -9.197792    12A     -6.883477
      13A     -6.882239    14A     -6.881797    15A     -1.499257
      16A     -1.381188    17A     -1.363229    18A     -1.186406
      19A     -1.064680    20A     -1.046617    21A     -0.926643
      22A     -0.859205    23A     -0.831008    24A     -0.757640
      25A     -0.736376    26A     -0.695735    27A     -0.686543
      28A     -0.659783    29A     -0.645148    30A     -0.632252
      31A     -0.619274    32A     -0.578490    33A     -0.550617
      34A     -0.538203    35A     -0.526517    36A     -0.520028
      37A     -0.515144    38A     -0.494598    39A     -0.480397
      40A     -0.374238    41A     -0.364674

  @DF-RHF Final Energy:  -852.95288923399539

   => Energetics <=

    Nuclear Repulsion Energy =            635.0768159533474773
    One-Electron Energy =               -2432.0199079391372834
    Two-Electron Energy =                 943.9902027517944134
    Total Energy =                       -852.9528892339953927
  Basis Set: (AUG-CC-PVTZ AUX)
    Blend: AUG-CC-PVTZ-RI
    Molecular point group: c1

    Geometry (in Angstrom), charge = 0, multiplicity = 1:

       Center              X                  Y                   Z               Mass
    ------------   -----------------  -----------------  -----------------  -----------------
         S           -1.421833604887    -0.015772269702    -0.138093591294    31.972071174400
         O           -1.795358604887    -0.137963269702     1.458594408706    15.994914619570
         O           -1.811382204887     1.356173830298    -0.462281891294    15.994914619570
         O           -1.852311604887    -1.251942269702    -0.770538591294    15.994914619570
         C            0.345778395113    -0.003585269702    -0.078320591294    12.000000000000
         C            1.026944395113    -1.220959269702    -0.017159591294    12.000000000000
         C            1.015532395113     1.221075730298    -0.077181591294    12.000000000000
         C            2.419791395113    -1.202605269702     0.051911408706    12.000000000000
         C            2.409303395113     1.219341730298    -0.012413591294    12.000000000000
         C            3.109650395113     0.012710730298     0.058185408706    12.000000000000
         H            0.475259395113    -2.156231269702    -0.041929591294     1.007825032230
         H            0.454379395113     2.148113730298    -0.150519591294     1.007825032230
         H            2.967554395113    -2.140192269702     0.097304408706     1.007825032230
         H            2.948660395113     2.162906730298    -0.019445591294     1.007825032230
         H            4.195485395113     0.018845730298     0.108614408706     1.007825032230
         H           -2.258030604887     0.692940730298     1.696394408706     1.007825032230

  Basis Set: AUG-CC-PVTZ
    Blend: AUG-CC-PVTZ
  Basis Set: (AUG-CC-PVTZ AUX)
    Blend: AUG-CC-PVTZ-JKFIT
	 Reference Energy          =    -852.9528892339953927 [Eh]
	 Singles Energy            =      -0.0000000000000000 [Eh]
	 Same-Spin Energy          =      -0.5332049812635280 [Eh]
	 Opposite-Spin Energy      =      -1.5547805005503881 [Eh]
	 Correlation Energy        =      -2.0879854818139161 [Eh]
	 Total Energy              =    -855.0408747158093092 [Eh]

	 ================> DF-SCS-MP2 Energies <==================
	-----------------------------------------------------------
	 SCS Same-Spin Scale       =       0.3333333333333333 [-]
	 SCS Opposite-Spin Scale   =       1.2000000000000000 [-]
	 SCS Same-Spin Energy      =      -0.1777349937545093 [Eh]
	 SCS Opposite-Spin Energy  =      -1.8657366006604656 [Eh]
	 SCS Correlation Energy    =      -2.0434715944149748 [Eh]
	 SCS Total Energy          =    -854.9963608284103884 [Eh]
	-----------------------------------------------------------

  Dipole Moment: [D]
     X:     3.4960      Y:     0.8978      Z:     1.6884     Total:     3.9849

*** Psi4 exiting successfully. Buy a developer a beer!
