                               Psi4 1.3.2 release

  ==> Input File <==

--------------------------------------------------------------------------
#psi4
#
memory 32 gb

molecule  {
0 1
  S       -1.4659670    -0.0143510    -0.1375590
  O       -1.8394920    -0.1365420     1.4591290
  O       -1.9762477     1.3877521    -0.6015791
  O       -1.8964450    -1.2505210    -0.7700040
  C        0.3016450    -0.0021640    -0.0777860
  C        0.9828110    -1.2195380    -0.0166250
  C        0.9713990     1.2224970    -0.0766470
  C        2.3756580    -1.2011840     0.0524460
  C        2.3651700     1.2207630    -0.0118790
  C        3.0655170     0.0141320     0.0587200
  H        0.4311260    -2.1548100    -0.0413950
  H        0.4102460     2.1495350    -0.1499850
  H        2.9234210    -2.1387710     0.0978390
  H        2.9045270     2.1643280    -0.0189110
  H        4.1513520     0.0202670     0.1091490
  H       -2.3021640     0.6943620     1.6969290
units angstrom
no_reorient  #important for SAPT in psi4, default
symmetry c1  #important for SAPT in psi4, default
}

set PROPERTIES_ORIGIN ["COM"]
properties('MP2/aug-cc-pvtz', properties = ['dipole'])
--------------------------------------------------------------------------

    Molecular point group: c1
  Charge       = 0
  Multiplicity = 1
  Basis Set: AUG-CC-PVTZ
    Blend: AUG-CC-PVTZ
  Basis Set: (AUG-CC-PVTZ AUX)
    Blend: AUG-CC-PVTZ-JKFIT

    Orbital Energies [Eh]
    ---------------------

    Doubly Occupied:

       1A    -92.239284     2A    -20.639737     3A    -20.572410
       4A    -20.567610     5A    -11.295931     6A    -11.279784
       7A    -11.278985     8A    -11.274731     9A    -11.267374
      10A    -11.267062    11A     -9.201633    12A     -6.887081
      13A     -6.885811    14A     -6.885211    15A     -1.485079
      16A     -1.384767    17A     -1.319798    18A     -1.191389
      19A     -1.070728    20A     -1.051057    21A     -0.935210
      22A     -0.863727    23A     -0.835561    24A     -0.760507
      25A     -0.736367    26A     -0.696448    27A     -0.681009
      28A     -0.660958    29A     -0.647641    30A     -0.623302
      31A     -0.618307    32A     -0.583584    33A     -0.552515
      34A     -0.537532    35A     -0.530741    36A     -0.516140
      37A     -0.500398    38A     -0.481422    39A     -0.476871
      40A     -0.379097    41A     -0.368763

  @DF-RHF Final Energy:  -852.93785061727067

   => Energetics <=

    Nuclear Repulsion Energy =            629.4505277935287495
    One-Electron Energy =               -2420.7136358553789250
    Two-Electron Energy =                 938.3252574445796199
    Total Energy =                       -852.9378506172706693
  Basis Set: (AUG-CC-PVTZ AUX)
    Blend: AUG-CC-PVTZ-RI
    Molecular point group: c1

    Geometry (in Angstrom), charge = 0, multiplicity = 1:

       Center              X                  Y                   Z               Mass
    ------------   -----------------  -----------------  -----------------  -----------------
         S           -1.409611746575    -0.018825099737    -0.123938246964    31.972071174400
         O           -1.783136746575    -0.141016099737     1.472749753036    15.994914619570
         O           -1.919892446575     1.383278000263    -0.587958346964    15.994914619570
         O           -1.840089746575    -1.254995099737    -0.756383246964    15.994914619570
         C            0.358000253425    -0.006638099737    -0.064165246964    12.000000000000
         C            1.039166253425    -1.224012099737    -0.003004246964    12.000000000000
         C            1.027754253425     1.218022900263    -0.063026246964    12.000000000000
         C            2.432013253425    -1.205658099737     0.066066753036    12.000000000000
         C            2.421525253425     1.216288900263     0.001741753036    12.000000000000
         C            3.121872253425     0.009657900263     0.072340753036    12.000000000000
         H            0.487481253425    -2.159284099737    -0.027774246964     1.007825032230
         H            0.466601253425     2.145060900263    -0.136364246964     1.007825032230
         H            2.979776253425    -2.143245099737     0.111459753036     1.007825032230
         H            2.960882253425     2.159853900263    -0.005290246964     1.007825032230
         H            4.207707253425     0.015792900263     0.122769753036     1.007825032230
         H           -2.245808746575     0.689887900263     1.710549753036     1.007825032230

  Basis Set: AUG-CC-PVTZ
    Blend: AUG-CC-PVTZ
  Basis Set: (AUG-CC-PVTZ AUX)
    Blend: AUG-CC-PVTZ-JKFIT
	 Reference Energy          =    -852.9378506172706693 [Eh]
	 Singles Energy            =      -0.0000000000000000 [Eh]
	 Same-Spin Energy          =      -0.5345727884797721 [Eh]
	 Opposite-Spin Energy      =      -1.5590436293424619 [Eh]
	 Correlation Energy        =      -2.0936164178222341 [Eh]
	 Total Energy              =    -855.0314670350928736 [Eh]

	 ================> DF-SCS-MP2 Energies <==================
	-----------------------------------------------------------
	 SCS Same-Spin Scale       =       0.3333333333333333 [-]
	 SCS Opposite-Spin Scale   =       1.2000000000000000 [-]
	 SCS Same-Spin Energy      =      -0.1781909294932573 [Eh]
	 SCS Opposite-Spin Energy  =      -1.8708523552109542 [Eh]
	 SCS Correlation Energy    =      -2.0490432847042115 [Eh]
	 SCS Total Energy          =    -854.9868939019748950 [Eh]
	-----------------------------------------------------------

  Dipole Moment: [D]
     X:     4.0479      Y:     0.6145      Z:     2.1486     Total:     4.6238

*** Psi4 exiting successfully. Buy a developer a beer!
