                               Psi4 1.3.2 release

  ==> Input File <==

--------------------------------------------------------------------------
#psi4
#
memory 32 gb

molecule  {
0 1
  S       -1.4659670    -0.0143510    -0.1375590
  O       -1.8394920    -0.1365420     1.4591290
  O       -1.9718327     1.2749309    -0.6075957
  O       -1.8964450    -1.2505210    -0.7700040
  C        0.3016450    -0.0021640    -0.0777860
  C        0.9828110    -1.2195380    -0.0166250
  C        0.9713990     1.2224970    -0.0766470
  C        2.3756580    -1.2011840     0.0524460
  C        2.3651700     1.2207630    -0.0118790
  C        3.0655170     0.0141320     0.0587200
  H        0.4311260    -2.1548100    -0.0413950
  H        0.4102460     2.1495350    -0.1499850
  H        2.9234210    -2.1387710     0.0978390
  H        2.9045270     2.1643280    -0.0189110
  H        4.1513520     0.0202670     0.1091490
  H       -2.3021640     0.6943620     1.6969290
units angstrom
no_reorient  #important for SAPT in psi4, default
symmetry c1  #important for SAPT in psi4, default
}

set PROPERTIES_ORIGIN ["COM"]
properties('MP2/aug-cc-pvtz', properties = ['dipole'])
--------------------------------------------------------------------------

    Molecular point group: c1
  Charge       = 0
  Multiplicity = 1
  Basis Set: AUG-CC-PVTZ
    Blend: AUG-CC-PVTZ
  Basis Set: (AUG-CC-PVTZ AUX)
    Blend: AUG-CC-PVTZ-JKFIT

    Orbital Energies [Eh]
    ---------------------

    Doubly Occupied:

       1A    -92.232619     2A    -20.634428     3A    -20.569054
       4A    -20.561689     5A    -11.292712     6A    -11.278109
       7A    -11.277274     8A    -11.273135     9A    -11.266276
      10A    -11.265904    11A     -9.195588    12A     -6.881189
      13A     -6.879897    14A     -6.879706    15A     -1.496848
      16A     -1.384704    17A     -1.353049    18A     -1.189864
      19A     -1.068564    20A     -1.049703    21A     -0.929597
      22A     -0.862314    23A     -0.833085    24A     -0.760031
      25A     -0.735487    26A     -0.698048    27A     -0.683659
      28A     -0.661526    29A     -0.647518    30A     -0.628356
      31A     -0.621802    32A     -0.581869    33A     -0.553935
      34A     -0.538536    35A     -0.529600    36A     -0.521236
      37A     -0.507138    38A     -0.487361    39A     -0.481418
      40A     -0.377242    41A     -0.367571

  @DF-RHF Final Energy:  -852.95716740100499

   => Energetics <=

    Nuclear Repulsion Energy =            633.7760682730482813
    One-Electron Energy =               -2429.3911882016291202
    Two-Electron Energy =                 942.6579525275759579
    Total Energy =                       -852.9571674010049946
  Basis Set: (AUG-CC-PVTZ AUX)
    Blend: AUG-CC-PVTZ-RI
    Molecular point group: c1

    Geometry (in Angstrom), charge = 0, multiplicity = 1:

       Center              X                  Y                   Z               Mass
    ------------   -----------------  -----------------  -----------------  -----------------
         S           -1.410058682431    -0.007404071519    -0.123329179179    31.972071174400
         O           -1.783583682431    -0.129595071519     1.473358820821    15.994914619570
         O           -1.915924382431     1.281877828481    -0.593365879179    15.994914619570
         O           -1.840536682431    -1.243574071519    -0.755774179179    15.994914619570
         C            0.357553317569     0.004782928481    -0.063556179179    12.000000000000
         C            1.038719317569    -1.212591071519    -0.002395179179    12.000000000000
         C            1.027307317569     1.229443928481    -0.062417179179    12.000000000000
         C            2.431566317569    -1.194237071519     0.066675820821    12.000000000000
         C            2.421078317569     1.227709928481     0.002350820821    12.000000000000
         C            3.121425317569     0.021078928481     0.072949820821    12.000000000000
         H            0.487034317569    -2.147863071519    -0.027165179179     1.007825032230
         H            0.466154317569     2.156481928481    -0.135755179179     1.007825032230
         H            2.979329317569    -2.131824071519     0.112068820821     1.007825032230
         H            2.960435317569     2.171274928481    -0.004681179179     1.007825032230
         H            4.207260317569     0.027213928481     0.123378820821     1.007825032230
         H           -2.246255682431     0.701308928481     1.711158820821     1.007825032230

  Basis Set: AUG-CC-PVTZ
    Blend: AUG-CC-PVTZ
  Basis Set: (AUG-CC-PVTZ AUX)
    Blend: AUG-CC-PVTZ-JKFIT
	 Reference Energy          =    -852.9571674010049946 [Eh]
	 Singles Energy            =      -0.0000000000000000 [Eh]
	 Same-Spin Energy          =      -0.5326039904331692 [Eh]
	 Opposite-Spin Energy      =      -1.5537596280182657 [Eh]
	 Correlation Energy        =      -2.0863636184514349 [Eh]
	 Total Energy              =    -855.0435310194563954 [Eh]

	 ================> DF-SCS-MP2 Energies <==================
	-----------------------------------------------------------
	 SCS Same-Spin Scale       =       0.3333333333333333 [-]
	 SCS Opposite-Spin Scale   =       1.2000000000000000 [-]
	 SCS Same-Spin Energy      =      -0.1775346634777231 [Eh]
	 SCS Opposite-Spin Energy  =      -1.8645115536219188 [Eh]
	 SCS Correlation Energy    =      -2.0420462170996418 [Eh]
	 SCS Total Energy          =    -854.9992136181045908 [Eh]
	-----------------------------------------------------------

  Dipole Moment: [D]
     X:     3.8630      Y:     1.1064      Z:     2.0591     Total:     4.5151

*** Psi4 exiting successfully. Buy a developer a beer!
