                               Psi4 1.3.2 release

  ==> Input File <==

--------------------------------------------------------------------------
#psi4
#
memory 32 gb

molecule  {
0 1
  S       -1.4659670    -0.0143510    -0.1375590
  O       -1.8849235    -0.1514040     1.6533328
  O       -1.9435910     1.2980210    -0.5718830
  O       -1.8964450    -1.2505210    -0.7700040
  C        0.3016450    -0.0021640    -0.0777860
  C        0.9828110    -1.2195380    -0.0166250
  C        0.9713990     1.2224970    -0.0766470
  C        2.3756580    -1.2011840     0.0524460
  C        2.3651700     1.2207630    -0.0118790
  C        3.0655170     0.0141320     0.0587200
  H        0.4311260    -2.1548100    -0.0413950
  H        0.4102460     2.1495350    -0.1499850
  H        2.9234210    -2.1387710     0.0978390
  H        2.9045270     2.1643280    -0.0189110
  H        4.1513520     0.0202670     0.1091490
  H       -2.3021640     0.6943620     1.6969290
units angstrom
no_reorient  #important for SAPT in psi4, default
symmetry c1  #important for SAPT in psi4, default
}

set PROPERTIES_ORIGIN ["COM"]
properties('MP2/aug-cc-pvtz', properties = ['dipole'])
--------------------------------------------------------------------------

    Molecular point group: c1
  Charge       = 0
  Multiplicity = 1
  Basis Set: AUG-CC-PVTZ
    Blend: AUG-CC-PVTZ
  Basis Set: (AUG-CC-PVTZ AUX)
    Blend: AUG-CC-PVTZ-JKFIT

    Orbital Energies [Eh]
    ---------------------

    Doubly Occupied:

       1A    -92.240016     2A    -20.616949     3A    -20.585658
       4A    -20.578892     5A    -11.299645     6A    -11.283074
       7A    -11.282399     8A    -11.277627     9A    -11.269695
      10A    -11.269398    11A     -9.203156    12A     -6.888317
      13A     -6.887138    14A     -6.886960    15A     -1.481215
      16A     -1.366905    17A     -1.356976    18A     -1.194281
      19A     -1.072823    20A     -1.053779    21A     -0.927990
      22A     -0.866444    23A     -0.825048    24A     -0.749822
      25A     -0.714846    26A     -0.695202    27A     -0.682034
      28A     -0.665585    29A     -0.650329    30A     -0.640801
      31A     -0.625895    32A     -0.563213    33A     -0.556905
      34A     -0.535914    35A     -0.533355    36A     -0.519139
      37A     -0.517749    38A     -0.500329    39A     -0.480421
      40A     -0.382268    41A     -0.371147

  @DF-RHF Final Energy:  -852.92746817939826

   => Energetics <=

    Nuclear Repulsion Energy =            626.5283994338220737
    One-Electron Energy =               -2414.7130572939436206
    Two-Electron Energy =                 935.2571896807233998
    Total Energy =                       -852.9274681793982609
  Basis Set: (AUG-CC-PVTZ AUX)
    Blend: AUG-CC-PVTZ-RI
    Molecular point group: c1

    Geometry (in Angstrom), charge = 0, multiplicity = 1:

       Center              X                  Y                   Z               Mass
    ------------   -----------------  -----------------  -----------------  -----------------
         S           -1.408318537929    -0.008237012157    -0.146603907993    31.972071174400
         O           -1.827275037929    -0.145290012157     1.644287892007    15.994914619570
         O           -1.885942537929     1.304134987843    -0.580927907993    15.994914619570
         O           -1.838796537929    -1.244407012157    -0.779048907993    15.994914619570
         C            0.359293462071     0.003949987843    -0.086830907993    12.000000000000
         C            1.040459462071    -1.213424012157    -0.025669907993    12.000000000000
         C            1.029047462071     1.228610987843    -0.085691907993    12.000000000000
         C            2.433306462071    -1.195070012157     0.043401092007    12.000000000000
         C            2.422818462071     1.226876987843    -0.020923907993    12.000000000000
         C            3.123165462071     0.020245987843     0.049675092007    12.000000000000
         H            0.488774462071    -2.148696012157    -0.050439907993     1.007825032230
         H            0.467894462071     2.155648987843    -0.159029907993     1.007825032230
         H            2.981069462071    -2.132657012157     0.088794092007     1.007825032230
         H            2.962175462071     2.170441987843    -0.027955907993     1.007825032230
         H            4.209000462071     0.026380987843     0.100104092007     1.007825032230
         H           -2.244515537929     0.700475987843     1.687884092007     1.007825032230

  Basis Set: AUG-CC-PVTZ
    Blend: AUG-CC-PVTZ
  Basis Set: (AUG-CC-PVTZ AUX)
    Blend: AUG-CC-PVTZ-JKFIT
	 Reference Energy          =    -852.9274681793982609 [Eh]
	 Singles Energy            =      -0.0000000000000000 [Eh]
	 Same-Spin Energy          =      -0.5353355404669765 [Eh]
	 Opposite-Spin Energy      =      -1.5630704561213242 [Eh]
	 Correlation Energy        =      -2.0984059965883008 [Eh]
	 Total Energy              =    -855.0258741759865870 [Eh]

	 ================> DF-SCS-MP2 Energies <==================
	-----------------------------------------------------------
	 SCS Same-Spin Scale       =       0.3333333333333333 [-]
	 SCS Opposite-Spin Scale   =       1.2000000000000000 [-]
	 SCS Same-Spin Energy      =      -0.1784451801556588 [Eh]
	 SCS Opposite-Spin Energy  =      -1.8756845473455890 [Eh]
	 SCS Correlation Energy    =      -2.0541297275012478 [Eh]
	 SCS Total Energy          =    -854.9815979068995375 [Eh]
	-----------------------------------------------------------

  Dipole Moment: [D]
     X:     4.3687      Y:     1.0424      Z:     0.8170     Total:     4.5651

*** Psi4 exiting successfully. Buy a developer a beer!
