                               Psi4 1.4a3.dev225

  ==> Input File <==

--------------------------------------------------------------------------
#psi4
#
memory 32 gb

molecule  {
0 1
  S       -1.4659490    -0.0144420    -0.1375240
  O       -1.8389560    -0.1357530     1.4593660
  O       -1.9372557     1.2797234    -0.5664582
  O       -1.8964760    -1.2508500    -0.7695120
  C        0.3016350    -0.0022080    -0.0778240
  C        0.9828550    -1.2195450    -0.0166360
  C        0.9713380     1.2224880    -0.0767040
  C        2.3757070    -1.2011200     0.0524330
  C        2.3651070     1.2208170    -0.0119400
  C        3.0655130     0.0142220     0.0587080
  H        0.4312050    -2.1548360    -0.0414070
  H        0.4101370     2.1494950    -0.1500750
  H        2.9234940    -2.1386920     0.0978740
  H        2.9044060     2.1644160    -0.0189600
  H        4.1513480     0.0204100     0.1091410
  H       -2.3045580     0.6938590     1.6959880
units angstrom
no_reorient  #important for SAPT in psi4, default
symmetry c1  #important for SAPT in psi4, default
}

set PROPERTIES_ORIGIN ["COM"]
properties('MP2/aug-cc-pvtz', properties = ['dipole'])
--------------------------------------------------------------------------

    Molecular point group: c1
  Charge       = 0
  Multiplicity = 1
  Basis Set: AUG-CC-PVTZ
    Blend: AUG-CC-PVTZ
  Basis Set: (AUG-CC-PVTZ AUX)
    Blend: AUG-CC-PVTZ-JKFIT

    Orbital Energies [Eh]
    ---------------------

    Doubly Occupied:

       1A    -92.231375     2A    -20.631179     3A    -20.569914
       4A    -20.563544     5A    -11.290498     6A    -11.276710
       7A    -11.275795     8A    -11.272003     9A    -11.265212
      10A    -11.264770    11A     -9.194632    12A     -6.880264
      13A     -6.879081    14A     -6.878736    15A     -1.501922
      16A     -1.384756    17A     -1.360901    18A     -1.188503
      19A     -1.066977    20A     -1.048494    21A     -0.927550
      22A     -0.861089    23A     -0.831921    24A     -0.759390
      25A     -0.735850    26A     -0.698015    27A     -0.685536
      28A     -0.661177    29A     -0.646895    30A     -0.631641
      31A     -0.620792    32A     -0.580487    33A     -0.553655
      34A     -0.538593    35A     -0.528487    36A     -0.522614
      37A     -0.510873    38A     -0.490449    39A     -0.481911
      40A     -0.375945    41A     -0.366455

  @DF-RHF Final Energy:  -852.95901999952605

   => Energetics <=

    Nuclear Repulsion Energy =            635.0472639282405680
    One-Electron Energy =               -2431.9433845743283200
    Two-Electron Energy =                 943.9371006465615892
    Total Energy =                       -852.9590199995260491
  Basis Set: (AUG-CC-PVTZ AUX)
    Blend: AUG-CC-PVTZ-RI
    Molecular point group: c1

    Geometry (in Angstrom), charge = 0, multiplicity = 1:

       Center              X                  Y                   Z               Mass
    ------------   -----------------  -----------------  -----------------  -----------------
         S           -1.413576507773    -0.008017962880    -0.127518083469    31.972071174400
         O           -1.786583507773    -0.129328962880     1.469371916531    15.994914619570
         O           -1.884883207773     1.286147437120    -0.556452283469    15.994914619570
         O           -1.844103507773    -1.244425962880    -0.759506083469    15.994914619570
         C            0.354007492227     0.004216037120    -0.067818083469    12.000000000000
         C            1.035227492227    -1.213120962880    -0.006630083469    12.000000000000
         C            1.023710492227     1.228912037120    -0.066698083469    12.000000000000
         C            2.428079492227    -1.194695962880     0.062438916531    12.000000000000
         C            2.417479492227     1.227241037120    -0.001934083469    12.000000000000
         C            3.117885492227     0.020646037120     0.068713916531    12.000000000000
         H            0.483577492227    -2.148411962880    -0.031401083469     1.007825032230
         H            0.462509492227     2.155919037120    -0.140069083469     1.007825032230
         H            2.975866492227    -2.132267962880     0.107879916531     1.007825032230
         H            2.956778492227     2.170840037120    -0.008954083469     1.007825032230
         H            4.203720492227     0.026834037120     0.119146916531     1.007825032230
         H           -2.252185507773     0.700283037120     1.705993916531     1.007825032230

  Basis Set: AUG-CC-PVTZ
    Blend: AUG-CC-PVTZ
  Basis Set: (AUG-CC-PVTZ AUX)
    Blend: AUG-CC-PVTZ-JKFIT
	 Reference Energy          =    -852.9590199995260491 [Eh]
	 Singles Energy            =      -0.0000000000000000 [Eh]
	 Same-Spin Energy          =      -0.5322394894554719 [Eh]
	 Opposite-Spin Energy      =      -1.5527621941394445 [Eh]
	 Correlation Energy        =      -2.0850016835949163 [Eh]
	 Total Energy              =    -855.0440216831209455 [Eh]

	 ================> DF-SCS-MP2 Energies <==================
	-----------------------------------------------------------
	 SCS Same-Spin Scale       =       0.3333333333333333 [-]
	 SCS Opposite-Spin Scale   =       1.2000000000000000 [-]
	 SCS Same-Spin Energy      =      -0.1774131631518240 [Eh]
	 SCS Opposite-Spin Energy  =      -1.8633146329673334 [Eh]
	 SCS Correlation Energy    =      -2.0407277961191572 [Eh]
	 SCS Total Energy          =    -854.9997477956452485 [Eh]
	-----------------------------------------------------------

  Dipole Moment: [D]
     X:     3.7161      Y:     1.1342      Z:     1.9303     Total:     4.3383

*** Psi4 exiting successfully. Buy a developer a beer!
