                               Psi4 1.4a3.dev225

  ==> Input File <==

--------------------------------------------------------------------------
#psi4
#
memory 32 gb

molecule  {
0 1
  S       -1.4659490    -0.0144420    -0.1375240
  O       -1.8502980    -0.1394417     1.5079227
  O       -1.9437900     1.2976660    -0.5724050
  O       -1.8964760    -1.2508500    -0.7695120
  C        0.3016350    -0.0022080    -0.0778240
  C        0.9828550    -1.2195450    -0.0166360
  C        0.9713380     1.2224880    -0.0767040
  C        2.3757070    -1.2011200     0.0524330
  C        2.3651070     1.2208170    -0.0119400
  C        3.0655130     0.0142220     0.0587080
  H        0.4312050    -2.1548360    -0.0414070
  H        0.4101370     2.1494950    -0.1500750
  H        2.9234940    -2.1386920     0.0978740
  H        2.9044060     2.1644160    -0.0189600
  H        4.1513480     0.0204100     0.1091410
  H       -2.3045580     0.6938590     1.6959880
units angstrom
no_reorient  #important for SAPT in psi4, default
symmetry c1  #important for SAPT in psi4, default
}

set PROPERTIES_ORIGIN ["COM"]
properties('MP2/aug-cc-pvtz', properties = ['dipole'])
--------------------------------------------------------------------------

    Molecular point group: c1
  Charge       = 0
  Multiplicity = 1
  Basis Set: AUG-CC-PVTZ
    Blend: AUG-CC-PVTZ
  Basis Set: (AUG-CC-PVTZ AUX)
    Blend: AUG-CC-PVTZ-JKFIT

    Orbital Energies [Eh]
    ---------------------

    Doubly Occupied:

       1A    -92.235492     2A    -20.628481     3A    -20.573682
       4A    -20.568893     5A    -11.293701     6A    -11.278716
       7A    -11.278112     8A    -11.273876     9A    -11.266651
      10A    -11.266342    11A     -9.198282    12A     -6.883749
      13A     -6.882559    14A     -6.882324    15A     -1.490276
      16A     -1.378456    17A     -1.358625    18A     -1.190433
      19A     -1.069016    20A     -1.050246    21A     -0.928129
      22A     -0.862854    23A     -0.829428    24A     -0.755309
      25A     -0.733322    26A     -0.696256    27A     -0.682807
      28A     -0.662303    29A     -0.647697    30A     -0.632694
      31A     -0.622446    32A     -0.575914    33A     -0.554557
      34A     -0.537641    35A     -0.530114    36A     -0.520745
      37A     -0.511997    38A     -0.492250    39A     -0.482891
      40A     -0.378105    41A     -0.368010

  @DF-RHF Final Energy:  -852.95235088205970

   => Energetics <=

    Nuclear Repulsion Energy =            632.0795725834836958
    One-Electron Energy =               -2425.9570792626923321
    Two-Electron Energy =                 940.9251557971489319
    Total Energy =                       -852.9523508820597044
  Basis Set: (AUG-CC-PVTZ AUX)
    Blend: AUG-CC-PVTZ-RI
    Molecular point group: c1

    Geometry (in Angstrom), charge = 0, multiplicity = 1:

       Center              X                  Y                   Z               Mass
    ------------   -----------------  -----------------  -----------------  -----------------
         S           -1.411766868036    -0.009460902630    -0.131831535819    31.972071174400
         O           -1.796115868036    -0.134460602630     1.513615164181    15.994914619570
         O           -1.889607868036     1.302647097370    -0.566712535819    15.994914619570
         O           -1.842293868036    -1.245868902630    -0.763819535819    15.994914619570
         C            0.355817131964     0.002773097370    -0.072131535819    12.000000000000
         C            1.037037131964    -1.214563902630    -0.010943535819    12.000000000000
         C            1.025520131964     1.227469097370    -0.071011535819    12.000000000000
         C            2.429889131964    -1.196138902630     0.058125464181    12.000000000000
         C            2.419289131964     1.225798097370    -0.006247535819    12.000000000000
         C            3.119695131964     0.019203097370     0.064400464181    12.000000000000
         H            0.485387131964    -2.149854902630    -0.035714535819     1.007825032230
         H            0.464319131964     2.154476097370    -0.144382535819     1.007825032230
         H            2.977676131964    -2.133710902630     0.103566464181     1.007825032230
         H            2.958588131964     2.169397097370    -0.013267535819     1.007825032230
         H            4.205530131964     0.025391097370     0.114833464181     1.007825032230
         H           -2.250375868036     0.698840097370     1.701680464181     1.007825032230

  Basis Set: AUG-CC-PVTZ
    Blend: AUG-CC-PVTZ
  Basis Set: (AUG-CC-PVTZ AUX)
    Blend: AUG-CC-PVTZ-JKFIT
	 Reference Energy          =    -852.9523508820597044 [Eh]
	 Singles Energy            =      -0.0000000000000000 [Eh]
	 Same-Spin Energy          =      -0.5332482447490998 [Eh]
	 Opposite-Spin Energy      =      -1.5559575833898873 [Eh]
	 Correlation Energy        =      -2.0892058281389874 [Eh]
	 Total Energy              =    -855.0415567101987335 [Eh]

	 ================> DF-SCS-MP2 Energies <==================
	-----------------------------------------------------------
	 SCS Same-Spin Scale       =       0.3333333333333333 [-]
	 SCS Opposite-Spin Scale   =       1.2000000000000000 [-]
	 SCS Same-Spin Energy      =      -0.1777494149163666 [Eh]
	 SCS Opposite-Spin Energy  =      -1.8671491000678646 [Eh]
	 SCS Correlation Energy    =      -2.0448985149842311 [Eh]
	 SCS Total Energy          =    -854.9972493970439018 [Eh]
	-----------------------------------------------------------

  Dipole Moment: [D]
     X:     3.9280      Y:     1.0452      Z:     1.6685     Total:     4.3938

*** Psi4 exiting successfully. Buy a developer a beer!
