                               Psi4 1.3.2 release

  ==> Input File <==

--------------------------------------------------------------------------
#psi4
#
memory 32 gb

molecule  {
0 1
  S       -1.4659670    -0.0143510    -0.1375590
  O       -1.7833805    -0.1369110     1.4711958
  O       -1.9435910     1.2980210    -0.5718830
  O       -1.8964450    -1.2505210    -0.7700040
  C        0.3016450    -0.0021640    -0.0777860
  C        0.9828110    -1.2195380    -0.0166250
  C        0.9713990     1.2224970    -0.0766470
  C        2.3756580    -1.2011840     0.0524460
  C        2.3651700     1.2207630    -0.0118790
  C        3.0655170     0.0141320     0.0587200
  H        0.4311260    -2.1548100    -0.0413950
  H        0.4102460     2.1495350    -0.1499850
  H        2.9234210    -2.1387710     0.0978390
  H        2.9045270     2.1643280    -0.0189110
  H        4.1513520     0.0202670     0.1091490
  H       -2.3021640     0.6943620     1.6969290
units angstrom
no_reorient  #important for SAPT in psi4, default
symmetry c1  #important for SAPT in psi4, default
}

set PROPERTIES_ORIGIN ["COM"]
properties('MP2/aug-cc-pvtz', properties = ['dipole'])
--------------------------------------------------------------------------

    Molecular point group: c1
  Charge       = 0
  Multiplicity = 1
  Basis Set: AUG-CC-PVTZ
    Blend: AUG-CC-PVTZ
  Basis Set: (AUG-CC-PVTZ AUX)
    Blend: AUG-CC-PVTZ-JKFIT

    Orbital Energies [Eh]
    ---------------------

    Doubly Occupied:

       1A    -92.233353     2A    -20.636162     3A    -20.571392
       4A    -20.566310     5A    -11.289830     6A    -11.275595
       7A    -11.275026     8A    -11.271031     9A    -11.264509
      10A    -11.264201    11A     -9.196342    12A     -6.881959
      13A     -6.880681    14A     -6.880428    15A     -1.496996
      16A     -1.381878    17A     -1.357254    18A     -1.187708
      19A     -1.066327    20A     -1.047735    21A     -0.927250
      22A     -0.860381    23A     -0.829605    24A     -0.755241
      25A     -0.735285    26A     -0.697599    27A     -0.684828
      28A     -0.659879    29A     -0.645959    30A     -0.630419
      31A     -0.620054    32A     -0.581642    33A     -0.552852
      34A     -0.537628    35A     -0.527733    36A     -0.522101
      37A     -0.510020    38A     -0.489900    39A     -0.481326
      40A     -0.374874    41A     -0.365775

  @DF-RHF Final Energy:  -852.95420655413898

   => Energetics <=

    Nuclear Repulsion Energy =            634.3453267826461115
    One-Electron Energy =               -2430.5689300890203413
    Two-Electron Energy =                 943.2693967522351386
    Total Energy =                       -852.9542065541389775
  Basis Set: (AUG-CC-PVTZ AUX)
    Blend: AUG-CC-PVTZ-RI
    Molecular point group: c1

    Geometry (in Angstrom), charge = 0, multiplicity = 1:

       Center              X                  Y                   Z               Mass
    ------------   -----------------  -----------------  -----------------  -----------------
         S           -1.418597860152    -0.009704156292    -0.128165956467    31.972071174400
         O           -1.736011360152    -0.132264156292     1.480588843533    15.994914619570
         O           -1.896221860152     1.302667843708    -0.562489956467    15.994914619570
         O           -1.849075860152    -1.245874156292    -0.760610956467    15.994914619570
         C            0.349014139848     0.002482843708    -0.068392956467    12.000000000000
         C            1.030180139848    -1.214891156292    -0.007231956467    12.000000000000
         C            1.018768139848     1.227143843708    -0.067253956467    12.000000000000
         C            2.423027139848    -1.196537156292     0.061839043533    12.000000000000
         C            2.412539139848     1.225409843708    -0.002485956467    12.000000000000
         C            3.112886139848     0.018778843708     0.068113043533    12.000000000000
         H            0.478495139848    -2.150163156292    -0.032001956467     1.007825032230
         H            0.457615139848     2.154181843708    -0.140591956467     1.007825032230
         H            2.970790139848    -2.134124156292     0.107232043533     1.007825032230
         H            2.951896139848     2.168974843708    -0.009517956467     1.007825032230
         H            4.198721139848     0.024913843708     0.118542043533     1.007825032230
         H           -2.254794860152     0.699008843708     1.706322043533     1.007825032230

  Basis Set: AUG-CC-PVTZ
    Blend: AUG-CC-PVTZ
  Basis Set: (AUG-CC-PVTZ AUX)
    Blend: AUG-CC-PVTZ-JKFIT
	 Reference Energy          =    -852.9542065541389775 [Eh]
	 Singles Energy            =      -0.0000000000000000 [Eh]
	 Same-Spin Energy          =      -0.5332536652209889 [Eh]
	 Opposite-Spin Energy      =      -1.5551039486351073 [Eh]
	 Correlation Energy        =      -2.0883576138560960 [Eh]
	 Total Energy              =    -855.0425641679951241 [Eh]

	 ================> DF-SCS-MP2 Energies <==================
	-----------------------------------------------------------
	 SCS Same-Spin Scale       =       0.3333333333333333 [-]
	 SCS Opposite-Spin Scale   =       1.2000000000000000 [-]
	 SCS Same-Spin Energy      =      -0.1777512217403296 [Eh]
	 SCS Opposite-Spin Energy  =      -1.8661247383621287 [Eh]
	 SCS Correlation Energy    =      -2.0438759601024583 [Eh]
	 SCS Total Energy          =    -854.9980825142414460 [Eh]
	-----------------------------------------------------------

  Dipole Moment: [D]
     X:     3.5888      Y:     1.0465      Z:     1.9652     Total:     4.2233

*** Psi4 exiting successfully. Buy a developer a beer!
