                               Psi4 1.3.2 release

  ==> Input File <==

--------------------------------------------------------------------------
#psi4
#
memory 32 gb

molecule  {
0 1
  S       -1.4659670    -0.0143510    -0.1375590
  O       -1.8394920    -0.1365420     1.4591290
  O       -1.9676281     1.2896218    -0.5700789
  O       -1.8964450    -1.2505210    -0.7700040
  C        0.3016450    -0.0021640    -0.0777860
  C        0.9828110    -1.2195380    -0.0166250
  C        0.9713990     1.2224970    -0.0766470
  C        2.3756580    -1.2011840     0.0524460
  C        2.3651700     1.2207630    -0.0118790
  C        3.0655170     0.0141320     0.0587200
  H        0.4311260    -2.1548100    -0.0413950
  H        0.4102460     2.1495350    -0.1499850
  H        2.9234210    -2.1387710     0.0978390
  H        2.9045270     2.1643280    -0.0189110
  H        4.1513520     0.0202670     0.1091490
  H       -2.3021640     0.6943620     1.6969290
units angstrom
no_reorient  #important for SAPT in psi4, default
symmetry c1  #important for SAPT in psi4, default
}

set PROPERTIES_ORIGIN ["COM"]
properties('MP2/aug-cc-pvtz', properties = ['dipole'])
--------------------------------------------------------------------------

    Molecular point group: c1
  Charge       = 0
  Multiplicity = 1
  Basis Set: AUG-CC-PVTZ
    Blend: AUG-CC-PVTZ
  Basis Set: (AUG-CC-PVTZ AUX)
    Blend: AUG-CC-PVTZ-JKFIT

    Orbital Energies [Eh]
    ---------------------

    Doubly Occupied:

       1A    -92.232969     2A    -20.631817     3A    -20.569050
       4A    -20.564086     5A    -11.292607     6A    -11.277968
       7A    -11.277272     8A    -11.273128     9A    -11.266177
      10A    -11.265850    11A     -9.195885    12A     -6.881509
      13A     -6.880207    14A     -6.879996    15A     -1.497009
      16A     -1.382827    17A     -1.355005    18A     -1.189789
      19A     -1.068446    20A     -1.049636    21A     -0.929246
      22A     -0.862245    23A     -0.832670    24A     -0.759604
      25A     -0.735115    26A     -0.697762    27A     -0.684069
      28A     -0.661499    29A     -0.647485    30A     -0.629002
      31A     -0.621777    32A     -0.580474    33A     -0.553670
      34A     -0.538425    35A     -0.529510    36A     -0.520692
      37A     -0.508627    38A     -0.488688    39A     -0.481815
      40A     -0.377224    41A     -0.367504

  @DF-RHF Final Energy:  -852.95728213988230

   => Energetics <=

    Nuclear Repulsion Energy =            633.9029269939785536
    One-Electron Energy =               -2429.6437453026919684
    Two-Electron Energy =                 942.7835361688311195
    Total Energy =                       -852.9572821398822953
  Basis Set: (AUG-CC-PVTZ AUX)
    Blend: AUG-CC-PVTZ-RI
    Molecular point group: c1

    Geometry (in Angstrom), charge = 0, multiplicity = 1:

       Center              X                  Y                   Z               Mass
    ------------   -----------------  -----------------  -----------------  -----------------
         S           -1.410484319238    -0.008891249314    -0.127127050780    31.972071174400
         O           -1.784009319238    -0.131082249314     1.469560949220    15.994914619570
         O           -1.912145419238     1.295081550686    -0.559646950780    15.994914619570
         O           -1.840962319238    -1.245061249314    -0.759572050780    15.994914619570
         C            0.357127680762     0.003295750686    -0.067354050780    12.000000000000
         C            1.038293680762    -1.214078249314    -0.006193050780    12.000000000000
         C            1.026881680762     1.227956750686    -0.066215050780    12.000000000000
         C            2.431140680762    -1.195724249314     0.062877949220    12.000000000000
         C            2.420652680762     1.226222750686    -0.001447050780    12.000000000000
         C            3.120999680762     0.019591750686     0.069151949220    12.000000000000
         H            0.486608680762    -2.149350249314    -0.030963050780     1.007825032230
         H            0.465728680762     2.154994750686    -0.139553050780     1.007825032230
         H            2.978903680762    -2.133311249314     0.108270949220     1.007825032230
         H            2.960009680762     2.169787750686    -0.008479050780     1.007825032230
         H            4.206834680762     0.025726750686     0.119580949220     1.007825032230
         H           -2.246681319238     0.699821750686     1.707360949220     1.007825032230

  Basis Set: AUG-CC-PVTZ
    Blend: AUG-CC-PVTZ
  Basis Set: (AUG-CC-PVTZ AUX)
    Blend: AUG-CC-PVTZ-JKFIT
	 Reference Energy          =    -852.9572821398822953 [Eh]
	 Singles Energy            =      -0.0000000000000000 [Eh]
	 Same-Spin Energy          =      -0.5326346917725537 [Eh]
	 Opposite-Spin Energy      =      -1.5537820239603113 [Eh]
	 Correlation Energy        =      -2.0864167157328648 [Eh]
	 Total Energy              =    -855.0436988556151618 [Eh]

	 ================> DF-SCS-MP2 Energies <==================
	-----------------------------------------------------------
	 SCS Same-Spin Scale       =       0.3333333333333333 [-]
	 SCS Opposite-Spin Scale   =       1.2000000000000000 [-]
	 SCS Same-Spin Energy      =      -0.1775448972575179 [Eh]
	 SCS Opposite-Spin Energy  =      -1.8645384287523734 [Eh]
	 SCS Correlation Energy    =      -2.0420833260098914 [Eh]
	 SCS Total Energy          =    -854.9993654658921969 [Eh]
	-----------------------------------------------------------

  Dipole Moment: [D]
     X:     3.8602      Y:     1.0625      Z:     1.9638     Total:     4.4594

*** Psi4 exiting successfully. Buy a developer a beer!
