                               Psi4 1.3.2 release

  ==> Input File <==

--------------------------------------------------------------------------
#psi4
#
memory 32 gb

molecule  {
0 1
  S       -1.4658777     0.0165026    -0.1385186
  O       -1.8394920    -0.1365420     1.4591290
  O       -1.9435910     1.2980210    -0.5718830
  O       -1.8964450    -1.2505210    -0.7700040
  C        0.3016450    -0.0021640    -0.0777860
  C        0.9828110    -1.2195380    -0.0166250
  C        0.9713990     1.2224970    -0.0766470
  C        2.3756580    -1.2011840     0.0524460
  C        2.3651700     1.2207630    -0.0118790
  C        3.0655170     0.0141320     0.0587200
  H        0.4311260    -2.1548100    -0.0413950
  H        0.4102460     2.1495350    -0.1499850
  H        2.9234210    -2.1387710     0.0978390
  H        2.9045270     2.1643280    -0.0189110
  H        4.1513520     0.0202670     0.1091490
  H       -2.3021640     0.6943620     1.6969290
units angstrom
no_reorient  #important for SAPT in psi4, default
symmetry c1  #important for SAPT in psi4, default
}

set PROPERTIES_ORIGIN ["COM"]
properties('MP2/aug-cc-pvtz', properties = ['dipole'])
--------------------------------------------------------------------------

    Molecular point group: c1
  Charge       = 0
  Multiplicity = 1
  Basis Set: AUG-CC-PVTZ
    Blend: AUG-CC-PVTZ
  Basis Set: (AUG-CC-PVTZ AUX)
    Blend: AUG-CC-PVTZ-JKFIT

    Orbital Energies [Eh]
    ---------------------

    Doubly Occupied:

       1A    -92.232912     2A    -20.632939     3A    -20.576575
       4A    -20.558621     5A    -11.291577     6A    -11.277267
       7A    -11.276453     8A    -11.272520     9A    -11.265600
      10A    -11.265255    11A     -9.196000    12A     -6.881619
      13A     -6.880457    14A     -6.879942    15A     -1.500268
      16A     -1.387101    17A     -1.351165    18A     -1.189054
      19A     -1.067665    20A     -1.048975    21A     -0.928405
      22A     -0.861652    23A     -0.831694    24A     -0.758473
      25A     -0.736525    26A     -0.698745    27A     -0.684476
      28A     -0.661995    29A     -0.647316    30A     -0.631312
      31A     -0.621188    32A     -0.580039    33A     -0.554081
      34A     -0.538010    35A     -0.529324    36A     -0.523881
      37A     -0.508672    38A     -0.487001    39A     -0.479749
      40A     -0.376488    41A     -0.366866

  @DF-RHF Final Energy:  -852.95511313287295

   => Energetics <=

    Nuclear Repulsion Energy =            634.0835623692078116
    One-Electron Energy =               -2430.0016400853155574
    Two-Electron Energy =                 942.9629645832347933
    Total Energy =                       -852.9551131328729525
  Basis Set: (AUG-CC-PVTZ AUX)
    Blend: AUG-CC-PVTZ-RI
    Molecular point group: c1

    Geometry (in Angstrom), charge = 0, multiplicity = 1:

       Center              X                  Y                   Z               Mass
    ------------   -----------------  -----------------  -----------------  -----------------
         S           -1.412846394163     0.014868861613    -0.127709844412    31.972071174400
         O           -1.786460694163    -0.138175738387     1.469937755588    15.994914619570
         O           -1.890559694163     1.296387261613    -0.561074244412    15.994914619570
         O           -1.843413694163    -1.252154738387    -0.759195244412    15.994914619570
         C            0.354676305837    -0.003797738387    -0.066977244412    12.000000000000
         C            1.035842305837    -1.221171738387    -0.005816244412    12.000000000000
         C            1.024430305837     1.220863261613    -0.065838244412    12.000000000000
         C            2.428689305837    -1.202817738387     0.063254755588    12.000000000000
         C            2.418201305837     1.219129261613    -0.001070244412    12.000000000000
         C            3.118548305837     0.012498261613     0.069528755588    12.000000000000
         H            0.484157305837    -2.156443738387    -0.030586244412     1.007825032230
         H            0.463277305837     2.147901261613    -0.139176244412     1.007825032230
         H            2.976452305837    -2.140404738387     0.108647755588     1.007825032230
         H            2.957558305837     2.162694261613    -0.008102244412     1.007825032230
         H            4.204383305837     0.018633261613     0.119957755588     1.007825032230
         H           -2.249132694163     0.692728261613     1.707737755588     1.007825032230

  Basis Set: AUG-CC-PVTZ
    Blend: AUG-CC-PVTZ
  Basis Set: (AUG-CC-PVTZ AUX)
    Blend: AUG-CC-PVTZ-JKFIT
	 Reference Energy          =    -852.9551131328729525 [Eh]
	 Singles Energy            =      -0.0000000000000000 [Eh]
	 Same-Spin Energy          =      -0.5327640086687985 [Eh]
	 Opposite-Spin Energy      =      -1.5541003454528182 [Eh]
	 Correlation Energy        =      -2.0868643541216167 [Eh]
	 Total Energy              =    -855.0419774869945968 [Eh]

	 ================> DF-SCS-MP2 Energies <==================
	-----------------------------------------------------------
	 SCS Same-Spin Scale       =       0.3333333333333333 [-]
	 SCS Opposite-Spin Scale   =       1.2000000000000000 [-]
	 SCS Same-Spin Energy      =      -0.1775880028895995 [Eh]
	 SCS Opposite-Spin Energy  =      -1.8649204145433818 [Eh]
	 SCS Correlation Energy    =      -2.0425084174329813 [Eh]
	 SCS Total Energy          =    -854.9976215503058938 [Eh]
	-----------------------------------------------------------

  Dipole Moment: [D]
     X:     3.7727      Y:     1.3209      Z:     1.9690     Total:     4.4559

*** Psi4 exiting successfully. Buy a developer a beer!
