                               Psi4 1.3.2 release

  ==> Input File <==

--------------------------------------------------------------------------
#psi4
#
memory 32 gb

molecule  {
0 1
  S       -1.4659670    -0.0143510    -0.1375590
  O       -1.8167762    -0.1291110     1.3620271
  O       -1.9435910     1.2980210    -0.5718830
  O       -1.8964450    -1.2505210    -0.7700040
  C        0.3016450    -0.0021640    -0.0777860
  C        0.9828110    -1.2195380    -0.0166250
  C        0.9713990     1.2224970    -0.0766470
  C        2.3756580    -1.2011840     0.0524460
  C        2.3651700     1.2207630    -0.0118790
  C        3.0655170     0.0141320     0.0587200
  H        0.4311260    -2.1548100    -0.0413950
  H        0.4102460     2.1495350    -0.1499850
  H        2.9234210    -2.1387710     0.0978390
  H        2.9045270     2.1643280    -0.0189110
  H        4.1513520     0.0202670     0.1091490
  H       -2.3021640     0.6943620     1.6969290
units angstrom
no_reorient  #important for SAPT in psi4, default
symmetry c1  #important for SAPT in psi4, default
}

set PROPERTIES_ORIGIN ["COM"]
properties('MP2/aug-cc-pvtz', properties = ['dipole'])
--------------------------------------------------------------------------

    Molecular point group: c1
  Charge       = 0
  Multiplicity = 1
  Basis Set: AUG-CC-PVTZ
    Blend: AUG-CC-PVTZ
  Basis Set: (AUG-CC-PVTZ AUX)
    Blend: AUG-CC-PVTZ-JKFIT

    Orbital Energies [Eh]
    ---------------------

    Doubly Occupied:

       1A    -92.227256     2A    -20.641523     3A    -20.560441
       4A    -20.557004     5A    -11.286678     6A    -11.273616
       7A    -11.273033     8A    -11.269476     9A    -11.263154
      10A    -11.262833    11A     -9.190885    12A     -6.876962
      13A     -6.875277    14A     -6.874993    15A     -1.521033
      16A     -1.390106    17A     -1.350656    18A     -1.185977
      19A     -1.064630    20A     -1.046142    21A     -0.931665
      22A     -0.858761    23A     -0.841026    24A     -0.766631
      25A     -0.738868    26A     -0.701740    27A     -0.690630
      28A     -0.658336    29A     -0.645701    30A     -0.622562
      31A     -0.618447    32A     -0.589707    33A     -0.549909
      34A     -0.539381    35A     -0.526065    36A     -0.520323
      37A     -0.503556    38A     -0.482943    39A     -0.477026
      40A     -0.372997    41A     -0.364402

  @DF-RHF Final Energy:  -852.95737509755429

   => Energetics <=

    Nuclear Repulsion Energy =            638.2987850472208038
    One-Electron Energy =               -2438.5276156568752413
    Two-Electron Energy =                 947.2714555121000330
    Total Energy =                       -852.9573750975542907
  Basis Set: (AUG-CC-PVTZ AUX)
    Blend: AUG-CC-PVTZ-RI
    Molecular point group: c1

    Geometry (in Angstrom), charge = 0, multiplicity = 1:

       Center              X                  Y                   Z               Mass
    ------------   -----------------  -----------------  -----------------  -----------------
         S           -1.415217172551    -0.010493759843    -0.117114675296    31.972071174400
         O           -1.766026372551    -0.125253759843     1.382471424704    15.994914619570
         O           -1.892841172551     1.301878240157    -0.551438675296    15.994914619570
         O           -1.845695172551    -1.246663759843    -0.749559675296    15.994914619570
         C            0.352394827449     0.001693240157    -0.057341675296    12.000000000000
         C            1.033560827449    -1.215680759843     0.003819324704    12.000000000000
         C            1.022148827449     1.226354240157    -0.056202675296    12.000000000000
         C            2.426407827449    -1.197326759843     0.072890324704    12.000000000000
         C            2.415919827449     1.224620240157     0.008565324704    12.000000000000
         C            3.116266827449     0.017989240157     0.079164324704    12.000000000000
         H            0.481875827449    -2.150952759843    -0.020950675296     1.007825032230
         H            0.460995827449     2.153392240157    -0.129540675296     1.007825032230
         H            2.974170827449    -2.134913759843     0.118283324704     1.007825032230
         H            2.955276827449     2.168185240157     0.001533324704     1.007825032230
         H            4.202101827449     0.024124240157     0.129593324704     1.007825032230
         H           -2.251414172551     0.698219240157     1.717373324704     1.007825032230

  Basis Set: AUG-CC-PVTZ
    Blend: AUG-CC-PVTZ
  Basis Set: (AUG-CC-PVTZ AUX)
    Blend: AUG-CC-PVTZ-JKFIT
	 Reference Energy          =    -852.9573750975542907 [Eh]
	 Singles Energy            =      -0.0000000000000000 [Eh]
	 Same-Spin Energy          =      -0.5318766941143078 [Eh]
	 Opposite-Spin Energy      =      -1.5503373354261474 [Eh]
	 Correlation Energy        =      -2.0822140295404550 [Eh]
	 Total Energy              =    -855.0395891270947004 [Eh]

	 ================> DF-SCS-MP2 Energies <==================
	-----------------------------------------------------------
	 SCS Same-Spin Scale       =       0.3333333333333333 [-]
	 SCS Opposite-Spin Scale   =       1.2000000000000000 [-]
	 SCS Same-Spin Energy      =      -0.1772922313714359 [Eh]
	 SCS Opposite-Spin Energy  =      -1.8604048025113769 [Eh]
	 SCS Correlation Energy    =      -2.0376970338828126 [Eh]
	 SCS Total Energy          =    -854.9950721314371549 [Eh]
	-----------------------------------------------------------

  Dipole Moment: [D]
     X:     3.4381      Y:     1.0582      Z:     2.5899     Total:     4.4326

*** Psi4 exiting successfully. Buy a developer a beer!
