                               Psi4 1.3.2 release

  ==> Input File <==

--------------------------------------------------------------------------
#psi4
#
memory 32 gb

molecule  {
0 1
  S       -1.4659670    -0.0143510    -0.1375590
  O       -1.8394920    -0.1365420     1.4591290
  O       -1.9292498     1.3089682    -0.5538255
  O       -1.8964450    -1.2505210    -0.7700040
  C        0.3016450    -0.0021640    -0.0777860
  C        0.9828110    -1.2195380    -0.0166250
  C        0.9713990     1.2224970    -0.0766470
  C        2.3756580    -1.2011840     0.0524460
  C        2.3651700     1.2207630    -0.0118790
  C        3.0655170     0.0141320     0.0587200
  H        0.4311260    -2.1548100    -0.0413950
  H        0.4102460     2.1495350    -0.1499850
  H        2.9234210    -2.1387710     0.0978390
  H        2.9045270     2.1643280    -0.0189110
  H        4.1513520     0.0202670     0.1091490
  H       -2.3021640     0.6943620     1.6969290
units angstrom
no_reorient  #important for SAPT in psi4, default
symmetry c1  #important for SAPT in psi4, default
}

set PROPERTIES_ORIGIN ["COM"]
properties('MP2/aug-cc-pvtz', properties = ['dipole'])
--------------------------------------------------------------------------

    Molecular point group: c1
  Charge       = 0
  Multiplicity = 1
  Basis Set: AUG-CC-PVTZ
    Blend: AUG-CC-PVTZ
  Basis Set: (AUG-CC-PVTZ AUX)
    Blend: AUG-CC-PVTZ-JKFIT

    Orbital Energies [Eh]
    ---------------------

    Doubly Occupied:

       1A    -92.233619     2A    -20.631868     3A    -20.569582
       4A    -20.566908     5A    -11.290908     6A    -11.276614
       7A    -11.276141     8A    -11.272172     9A    -11.265183
      10A    -11.264898    11A     -9.196465    12A     -6.882100
      13A     -6.880830    14A     -6.880546    15A     -1.497690
      16A     -1.383066    17A     -1.357539    18A     -1.188608
      19A     -1.067153    20A     -1.048580    21A     -0.928477
      22A     -0.861173    23A     -0.832310    24A     -0.759145
      25A     -0.735817    26A     -0.697227    27A     -0.684725
      28A     -0.660858    29A     -0.646672    30A     -0.629992
      31A     -0.620880    32A     -0.580583    33A     -0.552673
      34A     -0.538273    35A     -0.528470    36A     -0.520938
      37A     -0.510530    38A     -0.490256    39A     -0.481630
      40A     -0.376148    41A     -0.366522

  @DF-RHF Final Energy:  -852.95682772045404

   => Energetics <=

    Nuclear Repulsion Energy =            634.2219609096994191
    One-Electron Energy =               -2430.2900447576225815
    Two-Electron Energy =                 943.1112561274691188
    Total Energy =                       -852.9568277204540436
  Basis Set: (AUG-CC-PVTZ AUX)
    Blend: AUG-CC-PVTZ-RI
    Molecular point group: c1

    Geometry (in Angstrom), charge = 0, multiplicity = 1:

       Center              X                  Y                   Z               Mass
    ------------   -----------------  -----------------  -----------------  -----------------
         S           -1.414369401538    -0.010849709074    -0.128772402364    31.972071174400
         O           -1.787894401538    -0.133040709074     1.467915597636    15.994914619570
         O           -1.877652201538     1.312469490926    -0.545038902364    15.994914619570
         O           -1.844847401538    -1.247019709074    -0.761217402364    15.994914619570
         C            0.353242598462     0.001337290926    -0.068999402364    12.000000000000
         C            1.034408598462    -1.216036709074    -0.007838402364    12.000000000000
         C            1.022996598462     1.225998290926    -0.067860402364    12.000000000000
         C            2.427255598462    -1.197682709074     0.061232597636    12.000000000000
         C            2.416767598462     1.224264290926    -0.003092402364    12.000000000000
         C            3.117114598462     0.017633290926     0.067506597636    12.000000000000
         H            0.482723598462    -2.151308709074    -0.032608402364     1.007825032230
         H            0.461843598462     2.153036290926    -0.141198402364     1.007825032230
         H            2.975018598462    -2.135269709074     0.106625597636     1.007825032230
         H            2.956124598462     2.167829290926    -0.010124402364     1.007825032230
         H            4.202949598462     0.023768290926     0.117935597636     1.007825032230
         H           -2.250566401538     0.697863290926     1.705715597636     1.007825032230

  Basis Set: AUG-CC-PVTZ
    Blend: AUG-CC-PVTZ
  Basis Set: (AUG-CC-PVTZ AUX)
    Blend: AUG-CC-PVTZ-JKFIT
	 Reference Energy          =    -852.9568277204540436 [Eh]
	 Singles Energy            =      -0.0000000000000000 [Eh]
	 Same-Spin Energy          =      -0.5327699091901836 [Eh]
	 Opposite-Spin Energy      =      -1.5540176512706041 [Eh]
	 Correlation Energy        =      -2.0867875604607877 [Eh]
	 Total Energy              =    -855.0436152809148780 [Eh]

	 ================> DF-SCS-MP2 Energies <==================
	-----------------------------------------------------------
	 SCS Same-Spin Scale       =       0.3333333333333333 [-]
	 SCS Opposite-Spin Scale   =       1.2000000000000000 [-]
	 SCS Same-Spin Energy      =      -0.1775899697300612 [Eh]
	 SCS Opposite-Spin Energy  =      -1.8648211815247249 [Eh]
	 SCS Correlation Energy    =      -2.0424111512547860 [Eh]
	 SCS Total Energy          =    -854.9992388717088261 [Eh]
	-----------------------------------------------------------

  Dipole Moment: [D]
     X:     3.7286      Y:     1.0216      Z:     1.9223     Total:     4.3176

*** Psi4 exiting successfully. Buy a developer a beer!
