                               Psi4 1.4a3.dev225

  ==> Input File <==

--------------------------------------------------------------------------
#psi4
#
memory 32 gb

molecule  {
0 1
  S       -1.4659490    -0.0144420    -0.1375240
  O       -1.8389560    -0.1357530     1.4593660
  O       -1.9274542     1.2528094    -0.5575379
  O       -1.8964760    -1.2508500    -0.7695120
  C        0.3016350    -0.0022080    -0.0778240
  C        0.9828550    -1.2195450    -0.0166360
  C        0.9713380     1.2224880    -0.0767040
  C        2.3757070    -1.2011200     0.0524330
  C        2.3651070     1.2208170    -0.0119400
  C        3.0655130     0.0142220     0.0587080
  H        0.4312050    -2.1548360    -0.0414070
  H        0.4101370     2.1494950    -0.1500750
  H        2.9234940    -2.1386920     0.0978740
  H        2.9044060     2.1644160    -0.0189600
  H        4.1513480     0.0204100     0.1091410
  H       -2.3045580     0.6938590     1.6959880
units angstrom
no_reorient  #important for SAPT in psi4, default
symmetry c1  #important for SAPT in psi4, default
}

set PROPERTIES_ORIGIN ["COM"]
properties('MP2/aug-cc-pvtz', properties = ['dipole'])
--------------------------------------------------------------------------

    Molecular point group: c1
  Charge       = 0
  Multiplicity = 1
  Basis Set: AUG-CC-PVTZ
    Blend: AUG-CC-PVTZ
  Basis Set: (AUG-CC-PVTZ AUX)
    Blend: AUG-CC-PVTZ-JKFIT

    Orbital Energies [Eh]
    ---------------------

    Doubly Occupied:

       1A    -92.228044     2A    -20.628793     3A    -20.570676
       4A    -20.560986     5A    -11.288919     6A    -11.276097
       7A    -11.274673     8A    -11.271253     9A    -11.264707
      10A    -11.264059    11A     -9.192065    12A     -6.877709
      13A     -6.876709    14A     -6.876097    15A     -1.510541
      16A     -1.388262    17A     -1.365142    18A     -1.187696
      19A     -1.065986    20A     -1.047790    21A     -0.925576
      22A     -0.860390    23A     -0.830987    24A     -0.759623
      25A     -0.736275    26A     -0.699027    27A     -0.687732
      28A     -0.661448    29A     -0.646906    30A     -0.634653
      31A     -0.620174    32A     -0.579755    33A     -0.554865
      34A     -0.539031    35A     -0.528185    36A     -0.525107
      37A     -0.512546    38A     -0.491885    39A     -0.481848
      40A     -0.375069    41A     -0.365819

  @DF-RHF Final Energy:  -852.96013910929673

   => Energetics <=

    Nuclear Repulsion Energy =            636.5537422791696827
    One-Electron Energy =               -2434.9615493641767898
    Two-Electron Energy =                 945.4476679757103739
    Total Energy =                       -852.9601391092967333
  Basis Set: (AUG-CC-PVTZ AUX)
    Blend: AUG-CC-PVTZ-RI
    Molecular point group: c1

    Geometry (in Angstrom), charge = 0, multiplicity = 1:

       Center              X                  Y                   Z               Mass
    ------------   -----------------  -----------------  -----------------  -----------------
         S           -1.414568725619    -0.005293425706    -0.128421096361    31.972071174400
         O           -1.787575725619    -0.126604425706     1.468468903639    15.994914619570
         O           -1.876073925619     1.261957974294    -0.548434996361    15.994914619570
         O           -1.845095725619    -1.241701425706    -0.760409096361    15.994914619570
         C            0.353015274381     0.006940574294    -0.068721096361    12.000000000000
         C            1.034235274381    -1.210396425706    -0.007533096361    12.000000000000
         C            1.022718274381     1.231636574294    -0.067601096361    12.000000000000
         C            2.427087274381    -1.191971425706     0.061535903639    12.000000000000
         C            2.416487274381     1.229965574294    -0.002837096361    12.000000000000
         C            3.116893274381     0.023370574294     0.067810903639    12.000000000000
         H            0.482585274381    -2.145687425706    -0.032304096361     1.007825032230
         H            0.461517274381     2.158643574294    -0.140972096361     1.007825032230
         H            2.974874274381    -2.129543425706     0.106976903639     1.007825032230
         H            2.955786274381     2.173564574294    -0.009857096361     1.007825032230
         H            4.202728274381     0.029558574294     0.118243903639     1.007825032230
         H           -2.253177725619     0.703007574294     1.705090903639     1.007825032230

  Basis Set: AUG-CC-PVTZ
    Blend: AUG-CC-PVTZ
  Basis Set: (AUG-CC-PVTZ AUX)
    Blend: AUG-CC-PVTZ-JKFIT
	 Reference Energy          =    -852.9601391092967333 [Eh]
	 Singles Energy            =      -0.0000000000000000 [Eh]
	 Same-Spin Energy          =      -0.5315001649890597 [Eh]
	 Opposite-Spin Energy      =      -1.5509843403352650 [Eh]
	 Correlation Energy        =      -2.0824845053243246 [Eh]
	 Total Energy              =    -855.0426236146211068 [Eh]

	 ================> DF-SCS-MP2 Energies <==================
	-----------------------------------------------------------
	 SCS Same-Spin Scale       =       0.3333333333333333 [-]
	 SCS Opposite-Spin Scale   =       1.2000000000000000 [-]
	 SCS Same-Spin Energy      =      -0.1771667216630199 [Eh]
	 SCS Opposite-Spin Energy  =      -1.8611812084023178 [Eh]
	 SCS Correlation Energy    =      -2.0383479300653375 [Eh]
	 SCS Total Energy          =    -854.9984870393620895 [Eh]
	-----------------------------------------------------------

  Dipole Moment: [D]
     X:     3.6347      Y:     1.2632      Z:     1.8749     Total:     4.2804

*** Psi4 exiting successfully. Buy a developer a beer!
