                               Psi4 1.3.2 release

  ==> Input File <==

--------------------------------------------------------------------------
#psi4
#
memory 32 gb

molecule  {
0 1
  S       -1.5411310     0.1404455    -0.1340197
  O       -1.8394920    -0.1365420     1.4591290
  O       -1.9435910     1.2980210    -0.5718830
  O       -1.8964450    -1.2505210    -0.7700040
  C        0.3016450    -0.0021640    -0.0777860
  C        0.9828110    -1.2195380    -0.0166250
  C        0.9713990     1.2224970    -0.0766470
  C        2.3756580    -1.2011840     0.0524460
  C        2.3651700     1.2207630    -0.0118790
  C        3.0655170     0.0141320     0.0587200
  H        0.4311260    -2.1548100    -0.0413950
  H        0.4102460     2.1495350    -0.1499850
  H        2.9234210    -2.1387710     0.0978390
  H        2.9045270     2.1643280    -0.0189110
  H        4.1513520     0.0202670     0.1091490
  H       -2.3021640     0.6943620     1.6969290
units angstrom
no_reorient  #important for SAPT in psi4, default
symmetry c1  #important for SAPT in psi4, default
}

set PROPERTIES_ORIGIN ["COM"]
properties('MP2/aug-cc-pvtz', properties = ['dipole'])
--------------------------------------------------------------------------

    Molecular point group: c1
  Charge       = 0
  Multiplicity = 1
  Basis Set: AUG-CC-PVTZ
    Blend: AUG-CC-PVTZ
  Basis Set: (AUG-CC-PVTZ AUX)
    Blend: AUG-CC-PVTZ-JKFIT

    Orbital Energies [Eh]
    ---------------------

    Doubly Occupied:

       1A    -92.225227     2A    -20.642863     3A    -20.610551
       4A    -20.538141     5A    -11.287778     6A    -11.268701
       7A    -11.266968     8A    -11.263994     9A    -11.259873
      10A    -11.259318    11A     -9.193646    12A     -6.879959
      13A     -6.877772    14A     -6.876349    15A     -1.574314
      16A     -1.426776    17A     -1.302824    18A     -1.179261
      19A     -1.052685    20A     -1.041167    21A     -0.915212
      22A     -0.853952    23A     -0.828920    24A     -0.759117
      25A     -0.756581    26A     -0.723403    27A     -0.698477
      28A     -0.665286    29A     -0.647583    30A     -0.639474
      31A     -0.614330    32A     -0.594734    33A     -0.568677
      34A     -0.549673    35A     -0.529757    36A     -0.522557
      37A     -0.495245    38A     -0.466996    39A     -0.449910
      40A     -0.367134    41A     -0.360065

  @DF-RHF Final Energy:  -852.89904205169728

   => Energetics <=

    Nuclear Repulsion Energy =            633.5441598438872006
    One-Electron Energy =               -2428.8158977383745878
    Two-Electron Energy =                 942.3726958427901081
    Total Energy =                       -852.8990420516972790
  Basis Set: (AUG-CC-PVTZ AUX)
    Blend: AUG-CC-PVTZ-RI
    Molecular point group: c1

    Geometry (in Angstrom), charge = 0, multiplicity = 1:

       Center              X                  Y                   Z               Mass
    ------------   -----------------  -----------------  -----------------  -----------------
         S           -1.472872184487     0.113731908518    -0.124121297091    31.972071174400
         O           -1.771233184487    -0.163255591482     1.469027402909    15.994914619570
         O           -1.875332184487     1.271307408518    -0.561984597091    15.994914619570
         O           -1.828186184487    -1.277234591482    -0.760105597091    15.994914619570
         C            0.369903815513    -0.028877591482    -0.067887597091    12.000000000000
         C            1.051069815513    -1.246251591482    -0.006726597091    12.000000000000
         C            1.039657815513     1.195783408518    -0.066748597091    12.000000000000
         C            2.443916815513    -1.227897591482     0.062344402909    12.000000000000
         C            2.433428815513     1.194049408518    -0.001980597091    12.000000000000
         C            3.133775815513    -0.012581591482     0.068618402909    12.000000000000
         H            0.499384815513    -2.181523591482    -0.031496597091     1.007825032230
         H            0.478504815513     2.122821408518    -0.140086597091     1.007825032230
         H            2.991679815513    -2.165484591482     0.107737402909     1.007825032230
         H            2.972785815513     2.137614408518    -0.009012597091     1.007825032230
         H            4.219610815513    -0.006446591482     0.119047402909     1.007825032230
         H           -2.233905184487     0.667648408518     1.706827402909     1.007825032230

  Basis Set: AUG-CC-PVTZ
    Blend: AUG-CC-PVTZ
  Basis Set: (AUG-CC-PVTZ AUX)
    Blend: AUG-CC-PVTZ-JKFIT
	 Reference Energy          =    -852.8990420516972790 [Eh]
	 Singles Energy            =      -0.0000000000000000 [Eh]
	 Same-Spin Energy          =      -0.5314981063156590 [Eh]
	 Opposite-Spin Energy      =      -1.5529446420054562 [Eh]
	 Correlation Energy        =      -2.0844427483211154 [Eh]
	 Total Energy              =    -854.9834848000183456 [Eh]

	 ================> DF-SCS-MP2 Energies <==================
	-----------------------------------------------------------
	 SCS Same-Spin Scale       =       0.3333333333333333 [-]
	 SCS Opposite-Spin Scale   =       1.2000000000000000 [-]
	 SCS Same-Spin Energy      =      -0.1771660354385530 [Eh]
	 SCS Opposite-Spin Energy  =      -1.8635335704065474 [Eh]
	 SCS Correlation Energy    =      -2.0406996058451004 [Eh]
	 SCS Total Energy          =    -854.9397416575424131 [Eh]
	-----------------------------------------------------------

  Dipole Moment: [D]
     X:     2.8744      Y:     2.4196      Z:     2.0784     Total:     4.2938

*** Psi4 exiting successfully. Buy a developer a beer!
