                               Psi4 1.3.2 release

  ==> Input File <==

--------------------------------------------------------------------------
#psi4
#
memory 32 gb

molecule  {
0 1
  S       -1.4645304    -0.0760376    -0.1355856
  O       -1.8394920    -0.1365420     1.4591290
  O       -1.9435910     1.2980210    -0.5718830
  O       -1.8964450    -1.2505210    -0.7700040
  C        0.3016450    -0.0021640    -0.0777860
  C        0.9828110    -1.2195380    -0.0166250
  C        0.9713990     1.2224970    -0.0766470
  C        2.3756580    -1.2011840     0.0524460
  C        2.3651700     1.2207630    -0.0118790
  C        3.0655170     0.0141320     0.0587200
  H        0.4311260    -2.1548100    -0.0413950
  H        0.4102460     2.1495350    -0.1499850
  H        2.9234210    -2.1387710     0.0978390
  H        2.9045270     2.1643280    -0.0189110
  H        4.1513520     0.0202670     0.1091490
  H       -2.3021640     0.6943620     1.6969290
units angstrom
no_reorient  #important for SAPT in psi4, default
symmetry c1  #important for SAPT in psi4, default
}

set PROPERTIES_ORIGIN ["COM"]
properties('MP2/aug-cc-pvtz', properties = ['dipole'])
--------------------------------------------------------------------------

    Molecular point group: c1
  Charge       = 0
  Multiplicity = 1
  Basis Set: AUG-CC-PVTZ
    Blend: AUG-CC-PVTZ
  Basis Set: (AUG-CC-PVTZ AUX)
    Blend: AUG-CC-PVTZ-JKFIT

    Orbital Energies [Eh]
    ---------------------

    Doubly Occupied:

       1A    -92.232064     2A    -20.631715     3A    -20.577987
       4A    -20.554891     5A    -11.291673     6A    -11.276962
       7A    -11.276791     8A    -11.272555     9A    -11.265572
      10A    -11.265317    11A     -9.195627    12A     -6.881173
      13A     -6.880018    14A     -6.879638    15A     -1.504360
      16A     -1.398837    17A     -1.332598    18A     -1.189081
      19A     -1.067882    20A     -1.048952    21A     -0.929869
      22A     -0.861523    23A     -0.834510    24A     -0.762203
      25A     -0.736304    26A     -0.696649    27A     -0.687234
      28A     -0.659896    29A     -0.647110    30A     -0.627922
      31A     -0.621060    32A     -0.583255    33A     -0.555855
      34A     -0.540162    35A     -0.529441    36A     -0.524227
      37A     -0.507020    38A     -0.482086    39A     -0.475281
      40A     -0.376655    41A     -0.366941

  @DF-RHF Final Energy:  -852.95059902493279

   => Energetics <=

    Nuclear Repulsion Energy =            634.1361906769635652
    One-Electron Energy =               -2430.1157854996190508
    Two-Electron Energy =                 943.0289957977228141
    Total Energy =                       -852.9505990249327851
  Basis Set: (AUG-CC-PVTZ AUX)
    Blend: AUG-CC-PVTZ-RI
    Molecular point group: c1

    Geometry (in Angstrom), charge = 0, multiplicity = 1:

       Center              X                  Y                   Z               Mass
    ------------   -----------------  -----------------  -----------------  -----------------
         S           -1.411771720397    -0.058945823481    -0.125370337134    31.972071174400
         O           -1.786733320397    -0.119450223481     1.469344262866    15.994914619570
         O           -1.890832320397     1.315112776519    -0.561667737134    15.994914619570
         O           -1.843686320397    -1.233429223481    -0.759788737134    15.994914619570
         C            0.354403679603     0.014927776519    -0.067570737134    12.000000000000
         C            1.035569679603    -1.202446223481    -0.006409737134    12.000000000000
         C            1.024157679603     1.239588776519    -0.066431737134    12.000000000000
         C            2.428416679603    -1.184092223481     0.062661262866    12.000000000000
         C            2.417928679603     1.237854776519    -0.001663737134    12.000000000000
         C            3.118275679603     0.031223776519     0.068935262866    12.000000000000
         H            0.483884679603    -2.137718223481    -0.031179737134     1.007825032230
         H            0.463004679603     2.166626776519    -0.139769737134     1.007825032230
         H            2.976179679603    -2.121679223481     0.108054262866     1.007825032230
         H            2.957285679603     2.181419776519    -0.008695737134     1.007825032230
         H            4.204110679603     0.037358776519     0.119364262866     1.007825032230
         H           -2.249405320397     0.711453776519     1.707144262866     1.007825032230

  Basis Set: AUG-CC-PVTZ
    Blend: AUG-CC-PVTZ
  Basis Set: (AUG-CC-PVTZ AUX)
    Blend: AUG-CC-PVTZ-JKFIT
	 Reference Energy          =    -852.9505990249327851 [Eh]
	 Singles Energy            =      -0.0000000000000000 [Eh]
	 Same-Spin Energy          =      -0.5323824500828984 [Eh]
	 Opposite-Spin Energy      =      -1.5533855894283741 [Eh]
	 Correlation Energy        =      -2.0857680395112723 [Eh]
	 Total Energy              =    -855.0363670644441072 [Eh]

	 ================> DF-SCS-MP2 Energies <==================
	-----------------------------------------------------------
	 SCS Same-Spin Scale       =       0.3333333333333333 [-]
	 SCS Opposite-Spin Scale   =       1.2000000000000000 [-]
	 SCS Same-Spin Energy      =      -0.1774608166942995 [Eh]
	 SCS Opposite-Spin Energy  =      -1.8640627073140488 [Eh]
	 SCS Correlation Energy    =      -2.0415235240083485 [Eh]
	 SCS Total Energy          =    -854.9921225489410972 [Eh]
	-----------------------------------------------------------

  Dipole Moment: [D]
     X:     3.8116      Y:     0.5010      Z:     1.9731     Total:     4.3212

*** Psi4 exiting successfully. Buy a developer a beer!
