                               Psi4 1.3.2 release

  ==> Input File <==

--------------------------------------------------------------------------
#psi4
#
memory 32 gb

molecule  {
0 1
  S       -1.4659670    -0.0143510    -0.1375590
  O       -1.8394920    -0.1365420     1.4591290
  O       -1.9577868     1.2866741    -0.5898082
  O       -1.8964450    -1.2505210    -0.7700040
  C        0.3016450    -0.0021640    -0.0777860
  C        0.9828110    -1.2195380    -0.0166250
  C        0.9713990     1.2224970    -0.0766470
  C        2.3756580    -1.2011840     0.0524460
  C        2.3651700     1.2207630    -0.0118790
  C        3.0655170     0.0141320     0.0587200
  H        0.4311260    -2.1548100    -0.0413950
  H        0.4102460     2.1495350    -0.1499850
  H        2.9234210    -2.1387710     0.0978390
  H        2.9045270     2.1643280    -0.0189110
  H        4.1513520     0.0202670     0.1091490
  H       -2.3021640     0.6943620     1.6969290
units angstrom
no_reorient  #important for SAPT in psi4, default
symmetry c1  #important for SAPT in psi4, default
}

set PROPERTIES_ORIGIN ["COM"]
properties('MP2/aug-cc-pvtz', properties = ['dipole'])
--------------------------------------------------------------------------

    Molecular point group: c1
  Charge       = 0
  Multiplicity = 1
  Basis Set: AUG-CC-PVTZ
    Blend: AUG-CC-PVTZ
  Basis Set: (AUG-CC-PVTZ AUX)
    Blend: AUG-CC-PVTZ-JKFIT

    Orbital Energies [Eh]
    ---------------------

    Doubly Occupied:

       1A    -92.232962     2A    -20.633583     3A    -20.569253
       4A    -20.563450     5A    -11.292115     6A    -11.277617
       7A    -11.276902     8A    -11.272818     9A    -11.265917
      10A    -11.265574    11A     -9.195887    12A     -6.881500
      13A     -6.880215    14A     -6.879994    15A     -1.497120
      16A     -1.384139    17A     -1.354612    18A     -1.189451
      19A     -1.068100    20A     -1.049334    21A     -0.929223
      22A     -0.861938    23A     -0.832827    24A     -0.759737
      25A     -0.735596    26A     -0.697782    27A     -0.684011
      28A     -0.661302    29A     -0.647241    30A     -0.628924
      31A     -0.621500    32A     -0.581441    33A     -0.553516
      34A     -0.538433    35A     -0.529229    36A     -0.521159
      37A     -0.508306    38A     -0.488283    39A     -0.481636
      40A     -0.376882    41A     -0.367227

  @DF-RHF Final Energy:  -852.95722217952482

   => Energetics <=

    Nuclear Repulsion Energy =            633.9190806218750822
    One-Electron Energy =               -2429.6791336651108395
    Two-Electron Energy =                 942.8028308637109376
    Total Energy =                       -852.9572221795248197
  Basis Set: (AUG-CC-PVTZ AUX)
    Blend: AUG-CC-PVTZ-RI
    Molecular point group: c1

    Geometry (in Angstrom), charge = 0, multiplicity = 1:

       Center              X                  Y                   Z               Mass
    ------------   -----------------  -----------------  -----------------  -----------------
         S           -1.411480566087    -0.008592850034    -0.125129829584    31.972071174400
         O           -1.785005566087    -0.130783850034     1.471558170416    15.994914619570
         O           -1.903300366087     1.292432249966    -0.577379029584    15.994914619570
         O           -1.841958566087    -1.244762850034    -0.757574829584    15.994914619570
         C            0.356131433913     0.003594149966    -0.065356829584    12.000000000000
         C            1.037297433913    -1.213779850034    -0.004195829584    12.000000000000
         C            1.025885433913     1.228255149966    -0.064217829584    12.000000000000
         C            2.430144433913    -1.195425850034     0.064875170416    12.000000000000
         C            2.419656433913     1.226521149966     0.000550170416    12.000000000000
         C            3.120003433913     0.019890149966     0.071149170416    12.000000000000
         H            0.485612433913    -2.149051850034    -0.028965829584     1.007825032230
         H            0.464732433913     2.155293149966    -0.137555829584     1.007825032230
         H            2.977907433913    -2.133012850034     0.110268170416     1.007825032230
         H            2.959013433913     2.170086149966    -0.006481829584     1.007825032230
         H            4.205838433913     0.026025149966     0.121578170416     1.007825032230
         H           -2.247677566087     0.700120149966     1.709358170416     1.007825032230

  Basis Set: AUG-CC-PVTZ
    Blend: AUG-CC-PVTZ
  Basis Set: (AUG-CC-PVTZ AUX)
    Blend: AUG-CC-PVTZ-JKFIT
	 Reference Energy          =    -852.9572221795248197 [Eh]
	 Singles Energy            =      -0.0000000000000000 [Eh]
	 Same-Spin Energy          =      -0.5326513528927075 [Eh]
	 Opposite-Spin Energy      =      -1.5538293132206697 [Eh]
	 Correlation Energy        =      -2.0864806661133772 [Eh]
	 Total Energy              =    -855.0437028456382222 [Eh]

	 ================> DF-SCS-MP2 Energies <==================
	-----------------------------------------------------------
	 SCS Same-Spin Scale       =       0.3333333333333333 [-]
	 SCS Opposite-Spin Scale   =       1.2000000000000000 [-]
	 SCS Same-Spin Energy      =      -0.1775504509642358 [Eh]
	 SCS Opposite-Spin Energy  =      -1.8645951758648036 [Eh]
	 SCS Correlation Energy    =      -2.0421456268290394 [Eh]
	 SCS Total Energy          =    -854.9993678063538027 [Eh]
	-----------------------------------------------------------

  Dipole Moment: [D]
     X:     3.8187      Y:     1.0773      Z:     2.0139     Total:     4.4496

*** Psi4 exiting successfully. Buy a developer a beer!
