                               Psi4 1.3.2 release

  ==> Input File <==

--------------------------------------------------------------------------
#psi4
#
memory 32 gb

molecule  {
0 1
  S       -1.4659670    -0.0143510    -0.1375590
  O       -1.8622078    -0.1439730     1.5562309
  O       -1.9435910     1.2980210    -0.5718830
  O       -1.8964450    -1.2505210    -0.7700040
  C        0.3016450    -0.0021640    -0.0777860
  C        0.9828110    -1.2195380    -0.0166250
  C        0.9713990     1.2224970    -0.0766470
  C        2.3756580    -1.2011840     0.0524460
  C        2.3651700     1.2207630    -0.0118790
  C        3.0655170     0.0141320     0.0587200
  H        0.4311260    -2.1548100    -0.0413950
  H        0.4102460     2.1495350    -0.1499850
  H        2.9234210    -2.1387710     0.0978390
  H        2.9045270     2.1643280    -0.0189110
  H        4.1513520     0.0202670     0.1091490
  H       -2.3021640     0.6943620     1.6969290
units angstrom
no_reorient  #important for SAPT in psi4, default
symmetry c1  #important for SAPT in psi4, default
}

set PROPERTIES_ORIGIN ["COM"]
properties('MP2/aug-cc-pvtz', properties = ['dipole'])
--------------------------------------------------------------------------

    Molecular point group: c1
  Charge       = 0
  Multiplicity = 1
  Basis Set: AUG-CC-PVTZ
    Blend: AUG-CC-PVTZ
  Basis Set: (AUG-CC-PVTZ AUX)
    Blend: AUG-CC-PVTZ-JKFIT

    Orbital Energies [Eh]
    ---------------------

    Doubly Occupied:

       1A    -92.237291     2A    -20.624419     3A    -20.577801
       4A    -20.572388     5A    -11.295781     6A    -11.280243
       7A    -11.279620     8A    -11.275192     9A    -11.267713
      10A    -11.267408    11A     -9.200110    12A     -6.885452
      13A     -6.884297    14A     -6.884082    15A     -1.485576
      16A     -1.372486    17A     -1.360947    18A     -1.191776
      19A     -1.070334    20A     -1.051483    21A     -0.927765
      22A     -0.864105    23A     -0.827206    24A     -0.752148
      25A     -0.729079    26A     -0.695489    27A     -0.682045
      28A     -0.663502    29A     -0.648527    30A     -0.635646
      31A     -0.623654    32A     -0.570854    33A     -0.555867
      34A     -0.536991    35A     -0.531310    36A     -0.520053
      37A     -0.514360    38A     -0.495143    39A     -0.483186
      40A     -0.379594    41A     -0.369106

  @DF-RHF Final Energy:  -852.94547887250519

   => Energetics <=

    Nuclear Repulsion Energy =            630.1640142171933121
    One-Electron Energy =               -2422.0789238981437848
    Two-Electron Energy =                 938.9694308084453951
    Total Energy =                       -852.9454788725051912
  Basis Set: (AUG-CC-PVTZ AUX)
    Blend: AUG-CC-PVTZ-RI
    Molecular point group: c1

    Geometry (in Angstrom), charge = 0, multiplicity = 1:

       Center              X                  Y                   Z               Mass
    ------------   -----------------  -----------------  -----------------  -----------------
         S           -1.410618076054    -0.008989261385    -0.136774163761    31.972071174400
         O           -1.806858876054    -0.138611261385     1.557015736239    15.994914619570
         O           -1.888242076054     1.303382738615    -0.571098163761    15.994914619570
         O           -1.841096076054    -1.245159261385    -0.769219163761    15.994914619570
         C            0.356993923946     0.003197738615    -0.077001163761    12.000000000000
         C            1.038159923946    -1.214176261385    -0.015840163761    12.000000000000
         C            1.026747923946     1.227858738615    -0.075862163761    12.000000000000
         C            2.431006923946    -1.195822261385     0.053230836239    12.000000000000
         C            2.420518923946     1.226124738615    -0.011094163761    12.000000000000
         C            3.120865923946     0.019493738615     0.059504836239    12.000000000000
         H            0.486474923946    -2.149448261385    -0.040610163761     1.007825032230
         H            0.465594923946     2.154896738615    -0.149200163761     1.007825032230
         H            2.978769923946    -2.133409261385     0.098623836239     1.007825032230
         H            2.959875923946     2.169689738615    -0.018126163761     1.007825032230
         H            4.206700923946     0.025628738615     0.109933836239     1.007825032230
         H           -2.246815076054     0.699723738615     1.697713836239     1.007825032230

  Basis Set: AUG-CC-PVTZ
    Blend: AUG-CC-PVTZ
  Basis Set: (AUG-CC-PVTZ AUX)
    Blend: AUG-CC-PVTZ-JKFIT
	 Reference Energy          =    -852.9454788725051912 [Eh]
	 Singles Energy            =      -0.0000000000000000 [Eh]
	 Same-Spin Energy          =      -0.5338699097775947 [Eh]
	 Opposite-Spin Energy      =      -1.5581664812140503 [Eh]
	 Correlation Energy        =      -2.0920363909916451 [Eh]
	 Total Energy              =    -855.0375152634968572 [Eh]

	 ================> DF-SCS-MP2 Energies <==================
	-----------------------------------------------------------
	 SCS Same-Spin Scale       =       0.3333333333333333 [-]
	 SCS Opposite-Spin Scale   =       1.2000000000000000 [-]
	 SCS Same-Spin Energy      =      -0.1779566365925316 [Eh]
	 SCS Opposite-Spin Energy  =      -1.8697997774568602 [Eh]
	 SCS Correlation Energy    =      -2.0477564140493918 [Eh]
	 SCS Total Energy          =    -854.9932352865546363 [Eh]
	-----------------------------------------------------------

  Dipole Moment: [D]
     X:     4.0830      Y:     1.0442      Z:     1.3790     Total:     4.4343

*** Psi4 exiting successfully. Buy a developer a beer!
