                               Psi4 1.4a3.dev225

  ==> Input File <==

--------------------------------------------------------------------------
#psi4
#
memory 32 gb

molecule  {
0 1
  S       -1.4659490    -0.0144420    -0.1375240
  O       -1.8434928    -0.1372285     1.4787887
  O       -1.9437900     1.2976660    -0.5724050
  O       -1.8964760    -1.2508500    -0.7695120
  C        0.3016350    -0.0022080    -0.0778240
  C        0.9828550    -1.2195450    -0.0166360
  C        0.9713380     1.2224880    -0.0767040
  C        2.3757070    -1.2011200     0.0524330
  C        2.3651070     1.2208170    -0.0119400
  C        3.0655130     0.0142220     0.0587080
  H        0.4312050    -2.1548360    -0.0414070
  H        0.4101370     2.1494950    -0.1500750
  H        2.9234940    -2.1386920     0.0978740
  H        2.9044060     2.1644160    -0.0189600
  H        4.1513480     0.0204100     0.1091410
  H       -2.3045580     0.6938590     1.6959880
units angstrom
no_reorient  #important for SAPT in psi4, default
symmetry c1  #important for SAPT in psi4, default
}

set PROPERTIES_ORIGIN ["COM"]
properties('MP2/aug-cc-pvtz', properties = ['dipole'])
--------------------------------------------------------------------------

    Molecular point group: c1
  Charge       = 0
  Multiplicity = 1
  Basis Set: AUG-CC-PVTZ
    Blend: AUG-CC-PVTZ
  Basis Set: (AUG-CC-PVTZ AUX)
    Blend: AUG-CC-PVTZ-JKFIT

    Orbital Energies [Eh]
    ---------------------

    Doubly Occupied:

       1A    -92.234226     2A    -20.631009     3A    -20.571146
       4A    -20.566697     5A    -11.292400     6A    -11.277765
       7A    -11.277168     8A    -11.273055     9A    -11.265994
      10A    -11.265682    11A     -9.197057    12A     -6.882613
      13A     -6.881378    14A     -6.881132    15A     -1.494219
      16A     -1.381663    17A     -1.357125    18A     -1.189598
      19A     -1.068194    20A     -1.049478    21A     -0.928521
      22A     -0.862079    23A     -0.831194    24A     -0.757717
      25A     -0.734927    26A     -0.696950    27A     -0.683626
      28A     -0.661568    29A     -0.647240    30A     -0.630801
      31A     -0.621697    32A     -0.578993    33A     -0.553693
      34A     -0.538062    35A     -0.529362    36A     -0.520994
      37A     -0.510475    38A     -0.490461    39A     -0.482268
      40A     -0.377164    41A     -0.367332

  @DF-RHF Final Energy:  -852.95549801270329

   => Energetics <=

    Nuclear Repulsion Energy =            633.2634609114585373
    One-Electron Energy =               -2428.3524693048370864
    Two-Electron Energy =                 942.1335103806753750
    Total Energy =                       -852.9554980127032877
  Basis Set: (AUG-CC-PVTZ AUX)
    Blend: AUG-CC-PVTZ-RI
    Molecular point group: c1

    Geometry (in Angstrom), charge = 0, multiplicity = 1:

       Center              X                  Y                   Z               Mass
    ------------   -----------------  -----------------  -----------------  -----------------
         S           -1.412455766764    -0.009684947576    -0.128882265327    31.972071174400
         O           -1.789999566764    -0.132471447576     1.487430434673    15.994914619570
         O           -1.890296766764     1.302423052424    -0.563763265327    15.994914619570
         O           -1.842982766764    -1.246092947576    -0.760870265327    15.994914619570
         C            0.355128233236     0.002549052424    -0.069182265327    12.000000000000
         C            1.036348233236    -1.214787947576    -0.007994265327    12.000000000000
         C            1.024831233236     1.227245052424    -0.068062265327    12.000000000000
         C            2.429200233236    -1.196362947576     0.061074734673    12.000000000000
         C            2.418600233236     1.225574052424    -0.003298265327    12.000000000000
         C            3.119006233236     0.018979052424     0.067349734673    12.000000000000
         H            0.484698233236    -2.150078947576    -0.032765265327     1.007825032230
         H            0.463630233236     2.154252052424    -0.141433265327     1.007825032230
         H            2.976987233236    -2.133934947576     0.106515734673     1.007825032230
         H            2.957899233236     2.169173052424    -0.010318265327     1.007825032230
         H            4.204841233236     0.025167052424     0.117782734673     1.007825032230
         H           -2.251064766764     0.698616052424     1.704629734673     1.007825032230

  Basis Set: AUG-CC-PVTZ
    Blend: AUG-CC-PVTZ
  Basis Set: (AUG-CC-PVTZ AUX)
    Blend: AUG-CC-PVTZ-JKFIT
	 Reference Energy          =    -852.9554980127032877 [Eh]
	 Singles Energy            =      -0.0000000000000000 [Eh]
	 Same-Spin Energy          =      -0.5329134321888491 [Eh]
	 Opposite-Spin Energy      =      -1.5547119878196036 [Eh]
	 Correlation Energy        =      -2.0876254200084530 [Eh]
	 Total Energy              =    -855.0431234327116954 [Eh]

	 ================> DF-SCS-MP2 Energies <==================
	-----------------------------------------------------------
	 SCS Same-Spin Scale       =       0.3333333333333333 [-]
	 SCS Opposite-Spin Scale   =       1.2000000000000000 [-]
	 SCS Same-Spin Energy      =      -0.1776378107296164 [Eh]
	 SCS Opposite-Spin Energy  =      -1.8656543853835243 [Eh]
	 SCS Correlation Energy    =      -2.0432921961131405 [Eh]
	 SCS Total Energy          =    -854.9987902088164446 [Eh]
	-----------------------------------------------------------

  Dipole Moment: [D]
     X:     3.8342      Y:     1.0468      Z:     1.8465     Total:     4.3825

*** Psi4 exiting successfully. Buy a developer a beer!
