                               Psi4 1.3.2 release

  ==> Input File <==

--------------------------------------------------------------------------
#psi4
#
memory 32 gb

molecule  {
0 1
  S       -1.3948954    -0.1704862    -0.1236047
  O       -1.8394920    -0.1365420     1.4591290
  O       -1.9435910     1.2980210    -0.5718830
  O       -1.8964450    -1.2505210    -0.7700040
  C        0.3016450    -0.0021640    -0.0777860
  C        0.9828110    -1.2195380    -0.0166250
  C        0.9713990     1.2224970    -0.0766470
  C        2.3756580    -1.2011840     0.0524460
  C        2.3651700     1.2207630    -0.0118790
  C        3.0655170     0.0141320     0.0587200
  H        0.4311260    -2.1548100    -0.0413950
  H        0.4102460     2.1495350    -0.1499850
  H        2.9234210    -2.1387710     0.0978390
  H        2.9045270     2.1643280    -0.0189110
  H        4.1513520     0.0202670     0.1091490
  H       -2.3021640     0.6943620     1.6969290
units angstrom
no_reorient  #important for SAPT in psi4, default
symmetry c1  #important for SAPT in psi4, default
}

set PROPERTIES_ORIGIN ["COM"]
properties('MP2/aug-cc-pvtz', properties = ['dipole'])
--------------------------------------------------------------------------

    Molecular point group: c1
  Charge       = 0
  Multiplicity = 1
  Basis Set: AUG-CC-PVTZ
    Blend: AUG-CC-PVTZ
  Basis Set: (AUG-CC-PVTZ AUX)
    Blend: AUG-CC-PVTZ-JKFIT

    Orbital Energies [Eh]
    ---------------------

    Doubly Occupied:

       1A    -92.225036     2A    -20.623818     3A    -20.589693
       4A    -20.526134     5A    -11.294837     6A    -11.285322
       7A    -11.284790     8A    -11.280361     9A    -11.270893
      10A    -11.270673    11A     -9.192030    12A     -6.877329
      13A     -6.876368    14A     -6.875461    15A     -1.521614
      16A     -1.403234    17A     -1.266832    18A     -1.197607
      19A     -1.083279    20A     -1.055281    21A     -0.941943
      22A     -0.868964    23A     -0.838906    24A     -0.770934
      25A     -0.737885    26A     -0.701722    27A     -0.689358
      28A     -0.659944    29A     -0.652280    30A     -0.629033
      31A     -0.623764    32A     -0.583608    33A     -0.566221
      34A     -0.539885    35A     -0.536799    36A     -0.531972
      37A     -0.490443    38A     -0.449250    39A     -0.445233
      40A     -0.384719    41A     -0.372518

  @DF-RHF Final Energy:  -852.90974049108945

   => Energetics <=

    Nuclear Repulsion Energy =            635.2323789235401819
    One-Electron Energy =               -2432.2522933194941288
    Two-Electron Energy =                 944.1101739048644959
    Total Energy =                       -852.9097404910894511
  Basis Set: (AUG-CC-PVTZ AUX)
    Blend: AUG-CC-PVTZ-RI
    Molecular point group: c1

    Geometry (in Angstrom), charge = 0, multiplicity = 1:

       Center              X                  Y                   Z               Mass
    ------------   -----------------  -----------------  -----------------  -----------------
         S           -1.356227366737    -0.134282743723    -0.115813772953    31.972071174400
         O           -1.800823966737    -0.100338543723     1.466919927047    15.994914619570
         O           -1.904922966737     1.334224456277    -0.564092072953    15.994914619570
         O           -1.857776966737    -1.214317543723    -0.762213072953    15.994914619570
         C            0.340313033263     0.034039456277    -0.069995072953    12.000000000000
         C            1.021479033263    -1.183334543723    -0.008834072953    12.000000000000
         C            1.010067033263     1.258700456277    -0.068856072953    12.000000000000
         C            2.414326033263    -1.164980543723     0.060236927047    12.000000000000
         C            2.403838033263     1.256966456277    -0.004088072953    12.000000000000
         C            3.104185033263     0.050335456277     0.066510927047    12.000000000000
         H            0.469794033263    -2.118606543723    -0.033604072953     1.007825032230
         H            0.448914033263     2.185738456277    -0.142194072953     1.007825032230
         H            2.962089033263    -2.102567543723     0.105629927047     1.007825032230
         H            2.943195033263     2.200531456277    -0.011120072953     1.007825032230
         H            4.190020033263     0.056470456277     0.116939927047     1.007825032230
         H           -2.263495966737     0.730565456277     1.704719927047     1.007825032230

  Basis Set: AUG-CC-PVTZ
    Blend: AUG-CC-PVTZ
  Basis Set: (AUG-CC-PVTZ AUX)
    Blend: AUG-CC-PVTZ-JKFIT
	 Reference Energy          =    -852.9097404910894511 [Eh]
	 Singles Energy            =      -0.0000000000000000 [Eh]
	 Same-Spin Energy          =      -0.5325729107529532 [Eh]
	 Opposite-Spin Energy      =      -1.5543887680650132 [Eh]
	 Correlation Energy        =      -2.0869616788179663 [Eh]
	 Total Energy              =    -854.9967021699073939 [Eh]

	 ================> DF-SCS-MP2 Energies <==================
	-----------------------------------------------------------
	 SCS Same-Spin Scale       =       0.3333333333333333 [-]
	 SCS Opposite-Spin Scale   =       1.2000000000000000 [-]
	 SCS Same-Spin Energy      =      -0.1775243035843177 [Eh]
	 SCS Opposite-Spin Energy  =      -1.8652665216780158 [Eh]
	 SCS Correlation Energy    =      -2.0427908252623337 [Eh]
	 SCS Total Energy          =    -854.9525313163518376 [Eh]
	-----------------------------------------------------------

  Dipole Moment: [D]
     X:     4.7636      Y:    -0.3687      Z:     2.0634     Total:     5.2044

*** Psi4 exiting successfully. Buy a developer a beer!
