                               Psi4 1.3.2 release

  ==> Input File <==

--------------------------------------------------------------------------
#psi4
#
memory 32 gb

molecule  {
0 1
  S       -1.4659670    -0.0143510    -0.1375590
  O       -1.8394920    -0.1365420     1.4591290
  O       -1.8950877     1.3136178    -0.5750938
  O       -1.8964450    -1.2505210    -0.7700040
  C        0.3016450    -0.0021640    -0.0777860
  C        0.9828110    -1.2195380    -0.0166250
  C        0.9713990     1.2224970    -0.0766470
  C        2.3756580    -1.2011840     0.0524460
  C        2.3651700     1.2207630    -0.0118790
  C        3.0655170     0.0141320     0.0587200
  H        0.4311260    -2.1548100    -0.0413950
  H        0.4102460     2.1495350    -0.1499850
  H        2.9234210    -2.1387710     0.0978390
  H        2.9045270     2.1643280    -0.0189110
  H        4.1513520     0.0202670     0.1091490
  H       -2.3021640     0.6943620     1.6969290
units angstrom
no_reorient  #important for SAPT in psi4, default
symmetry c1  #important for SAPT in psi4, default
}

set PROPERTIES_ORIGIN ["COM"]
properties('MP2/aug-cc-pvtz', properties = ['dipole'])
--------------------------------------------------------------------------

    Molecular point group: c1
  Charge       = 0
  Multiplicity = 1
  Basis Set: AUG-CC-PVTZ
    Blend: AUG-CC-PVTZ
  Basis Set: (AUG-CC-PVTZ AUX)
    Blend: AUG-CC-PVTZ-JKFIT

    Orbital Energies [Eh]
    ---------------------

    Doubly Occupied:

       1A    -92.233932     2A    -20.634560     3A    -20.570136
       4A    -20.567384     5A    -11.289291     6A    -11.275374
       7A    -11.274985     8A    -11.271200     9A    -11.264270
      10A    -11.263982    11A     -9.196760    12A     -6.882384
      13A     -6.881155    14A     -6.880823    15A     -1.498209
      16A     -1.385124    17A     -1.358280    18A     -1.187478
      19A     -1.065951    20A     -1.047573    21A     -0.928067
      22A     -0.860155    23A     -0.832357    24A     -0.759098
      25A     -0.736931    26A     -0.697005    27A     -0.684939
      28A     -0.660214    29A     -0.645871    30A     -0.630384
      31A     -0.619986    32A     -0.582146    33A     -0.551897
      34A     -0.538260    35A     -0.527506    36A     -0.521633
      37A     -0.510984    38A     -0.490607    39A     -0.481055
      40A     -0.375057    41A     -0.365589

  @DF-RHF Final Energy:  -852.95626218250129

   => Energetics <=

    Nuclear Repulsion Energy =            634.4182413194179162
    One-Electron Energy =               -2430.6918224648925388
    Two-Electron Energy =                 943.3173189629732178
    Total Energy =                       -852.9562621825012911
  Basis Set: (AUG-CC-PVTZ AUX)
    Blend: AUG-CC-PVTZ-RI
    Molecular point group: c1

    Geometry (in Angstrom), charge = 0, multiplicity = 1:

       Center              X                  Y                   Z               Mass
    ------------   -----------------  -----------------  -----------------  -----------------
         S           -1.417827672751    -0.011320393776    -0.126619386313    31.972071174400
         O           -1.791352672751    -0.133511393776     1.470068613687    15.994914619570
         O           -1.846948372751     1.316648406224    -0.564154186313    15.994914619570
         O           -1.848305672751    -1.247490393776    -0.759064386313    15.994914619570
         C            0.349784327249     0.000866606224    -0.066846386313    12.000000000000
         C            1.030950327249    -1.216507393776    -0.005685386313    12.000000000000
         C            1.019538327249     1.225527606224    -0.065707386313    12.000000000000
         C            2.423797327249    -1.198153393776     0.063385613687    12.000000000000
         C            2.413309327249     1.223793606224    -0.000939386313    12.000000000000
         C            3.113656327249     0.017162606224     0.069659613687    12.000000000000
         H            0.479265327249    -2.151779393776    -0.030455386313     1.007825032230
         H            0.458385327249     2.152565606224    -0.139045386313     1.007825032230
         H            2.971560327249    -2.135740393776     0.108778613687     1.007825032230
         H            2.952666327249     2.167358606224    -0.007971386313     1.007825032230
         H            4.199491327249     0.023297606224     0.120088613687     1.007825032230
         H           -2.254024672751     0.697392606224     1.707868613687     1.007825032230

  Basis Set: AUG-CC-PVTZ
    Blend: AUG-CC-PVTZ
  Basis Set: (AUG-CC-PVTZ AUX)
    Blend: AUG-CC-PVTZ-JKFIT
	 Reference Energy          =    -852.9562621825012911 [Eh]
	 Singles Energy            =      -0.0000000000000000 [Eh]
	 Same-Spin Energy          =      -0.5328776185999107 [Eh]
	 Opposite-Spin Energy      =      -1.5542355086283077 [Eh]
	 Correlation Energy        =      -2.0871131272282186 [Eh]
	 Total Energy              =    -855.0433753097295266 [Eh]

	 ================> DF-SCS-MP2 Energies <==================
	-----------------------------------------------------------
	 SCS Same-Spin Scale       =       0.3333333333333333 [-]
	 SCS Opposite-Spin Scale   =       1.2000000000000000 [-]
	 SCS Same-Spin Energy      =      -0.1776258728666369 [Eh]
	 SCS Opposite-Spin Energy  =      -1.8650826103539693 [Eh]
	 SCS Correlation Energy    =      -2.0427084832206059 [Eh]
	 SCS Total Energy          =    -854.9989706657219131 [Eh]
	-----------------------------------------------------------

  Dipole Moment: [D]
     X:     3.5982      Y:     1.0246      Z:     1.9762     Total:     4.2312

*** Psi4 exiting successfully. Buy a developer a beer!
