                               Psi4 1.3.2 release

  ==> Input File <==

--------------------------------------------------------------------------
#psi4
#
memory 32 gb

molecule  {
0 1
  S       -1.4659670    -0.0143510    -0.1375590
  O       -1.8394920    -0.1365420     1.4591290
  O       -1.7965723     1.3399405    -0.5799130
  O       -1.8964450    -1.2505210    -0.7700040
  C        0.3016450    -0.0021640    -0.0777860
  C        0.9828110    -1.2195380    -0.0166250
  C        0.9713990     1.2224970    -0.0766470
  C        2.3756580    -1.2011840     0.0524460
  C        2.3651700     1.2207630    -0.0118790
  C        3.0655170     0.0141320     0.0587200
  H        0.4311260    -2.1548100    -0.0413950
  H        0.4102460     2.1495350    -0.1499850
  H        2.9234210    -2.1387710     0.0978390
  H        2.9045270     2.1643280    -0.0189110
  H        4.1513520     0.0202670     0.1091490
  H       -2.3021640     0.6943620     1.6969290
units angstrom
no_reorient  #important for SAPT in psi4, default
symmetry c1  #important for SAPT in psi4, default
}

set PROPERTIES_ORIGIN ["COM"]
properties('MP2/aug-cc-pvtz', properties = ['dipole'])
--------------------------------------------------------------------------

    Molecular point group: c1
  Charge       = 0
  Multiplicity = 1
  Basis Set: AUG-CC-PVTZ
    Blend: AUG-CC-PVTZ
  Basis Set: (AUG-CC-PVTZ AUX)
    Blend: AUG-CC-PVTZ-JKFIT

    Orbital Energies [Eh]
    ---------------------

    Doubly Occupied:

       1A    -92.235147     2A    -20.638239     3A    -20.571719
       4A    -20.571337     5A    -11.284714     6A    -11.271760
       7A    -11.271672     8A    -11.268472     9A    -11.261576
      10A    -11.261348    11A     -9.197899    12A     -6.883520
      13A     -6.882380    14A     -6.881892    15A     -1.499922
      16A     -1.388202    17A     -1.362475    18A     -1.184214
      19A     -1.062413    20A     -1.044669    21A     -0.926571
      22A     -0.857254    23A     -0.831889    24A     -0.758345
      25A     -0.739530    26A     -0.696137    27A     -0.685911
      28A     -0.658395    29A     -0.643544    30A     -0.632124
      31A     -0.617448    32A     -0.584615    33A     -0.549352
      34A     -0.538562    35A     -0.524724    36A     -0.521971
      37A     -0.513733    38A     -0.493484    39A     -0.478757
      40A     -0.371950    41A     -0.362879

  @DF-RHF Final Energy:  -852.95246098958830

   => Energetics <=

    Nuclear Repulsion Energy =            635.2054969210493027
    One-Electron Energy =               -2432.2944293058176299
    Two-Electron Energy =                 944.1364713951799104
    Total Energy =                       -852.9524609895883032
  Basis Set: (AUG-CC-PVTZ AUX)
    Blend: AUG-CC-PVTZ-RI
    Molecular point group: c1

    Geometry (in Angstrom), charge = 0, multiplicity = 1:

       Center              X                  Y                   Z               Mass
    ------------   -----------------  -----------------  -----------------  -----------------
         S           -1.427800507319    -0.013985072927    -0.126131532796    31.972071174400
         O           -1.801325507319    -0.136176072927     1.470556467204    15.994914619570
         O           -1.758405807319     1.340306427073    -0.568485532796    15.994914619570
         O           -1.858278507319    -1.250155072927    -0.758576532796    15.994914619570
         C            0.339811492681    -0.001798072927    -0.066358532796    12.000000000000
         C            1.020977492681    -1.219172072927    -0.005197532796    12.000000000000
         C            1.009565492681     1.222862927073    -0.065219532796    12.000000000000
         C            2.413824492681    -1.200818072927     0.063873467204    12.000000000000
         C            2.403336492681     1.221128927073    -0.000451532796    12.000000000000
         C            3.103683492681     0.014497927073     0.070147467204    12.000000000000
         H            0.469292492681    -2.154444072927    -0.029967532796     1.007825032230
         H            0.448412492681     2.149900927073    -0.138557532796     1.007825032230
         H            2.961587492681    -2.138405072927     0.109266467204     1.007825032230
         H            2.942693492681     2.164693927073    -0.007483532796     1.007825032230
         H            4.189518492681     0.020632927073     0.120576467204     1.007825032230
         H           -2.263997507319     0.694727927073     1.708356467204     1.007825032230

  Basis Set: AUG-CC-PVTZ
    Blend: AUG-CC-PVTZ
  Basis Set: (AUG-CC-PVTZ AUX)
    Blend: AUG-CC-PVTZ-JKFIT
	 Reference Energy          =    -852.9524609895883032 [Eh]
	 Singles Energy            =      -0.0000000000000000 [Eh]
	 Same-Spin Energy          =      -0.5333326625083664 [Eh]
	 Opposite-Spin Energy      =      -1.5550995878778222 [Eh]
	 Correlation Energy        =      -2.0884322503861887 [Eh]
	 Total Energy              =    -855.0408932399744799 [Eh]

	 ================> DF-SCS-MP2 Energies <==================
	-----------------------------------------------------------
	 SCS Same-Spin Scale       =       0.3333333333333333 [-]
	 SCS Opposite-Spin Scale   =       1.2000000000000000 [-]
	 SCS Same-Spin Energy      =      -0.1777775541694555 [Eh]
	 SCS Opposite-Spin Energy  =      -1.8661195054533866 [Eh]
	 SCS Correlation Energy    =      -2.0438970596228421 [Eh]
	 SCS Total Energy          =    -854.9963580492111532 [Eh]
	-----------------------------------------------------------

  Dipole Moment: [D]
     X:     3.2353      Y:     0.9866      Z:     1.9879     Total:     3.9233

*** Psi4 exiting successfully. Buy a developer a beer!
