                               Psi4 1.3.2 release

  ==> Input File <==

--------------------------------------------------------------------------
#psi4
#
memory 32 gb

molecule  {
0 1
  S       -1.4659670    -0.0143510    -0.1375590
  O       -1.8394920    -0.1365420     1.4591290
  O       -1.8782776     1.1185587    -0.5124907
  O       -1.8964450    -1.2505210    -0.7700040
  C        0.3016450    -0.0021640    -0.0777860
  C        0.9828110    -1.2195380    -0.0166250
  C        0.9713990     1.2224970    -0.0766470
  C        2.3756580    -1.2011840     0.0524460
  C        2.3651700     1.2207630    -0.0118790
  C        3.0655170     0.0141320     0.0587200
  H        0.4311260    -2.1548100    -0.0413950
  H        0.4102460     2.1495350    -0.1499850
  H        2.9234210    -2.1387710     0.0978390
  H        2.9045270     2.1643280    -0.0189110
  H        4.1513520     0.0202670     0.1091490
  H       -2.3021640     0.6943620     1.6969290
units angstrom
no_reorient  #important for SAPT in psi4, default
symmetry c1  #important for SAPT in psi4, default
}

set PROPERTIES_ORIGIN ["COM"]
properties('MP2/aug-cc-pvtz', properties = ['dipole'])
--------------------------------------------------------------------------

    Molecular point group: c1
  Charge       = 0
  Multiplicity = 1
  Basis Set: AUG-CC-PVTZ
    Blend: AUG-CC-PVTZ
  Basis Set: (AUG-CC-PVTZ AUX)
    Blend: AUG-CC-PVTZ-JKFIT

    Orbital Energies [Eh]
    ---------------------

    Doubly Occupied:

       1A    -92.203199     2A    -20.616203     3A    -20.574082
       4A    -20.547104     5A    -11.280201     6A    -11.273000
       7A    -11.268731     8A    -11.267383     9A    -11.262153
      10A    -11.260353    11A     -9.175989    12A     -6.863560
      13A     -6.859808    14A     -6.858439    15A     -1.587839
      16A     -1.405512    17A     -1.362043    18A     -1.183511
      19A     -1.061216    20A     -1.044146    21A     -0.916335
      22A     -0.857091    23A     -0.827324    24A     -0.768323
      25A     -0.746124    26A     -0.715463    27A     -0.701795
      28A     -0.665910    29A     -0.648971    30A     -0.641544
      31A     -0.616857    32A     -0.579819    33A     -0.562988
      34A     -0.548823    35A     -0.533579    36A     -0.523985
      37A     -0.513615    38A     -0.492396    39A     -0.477201
      40A     -0.370521    41A     -0.362482

  @DF-RHF Final Energy:  -852.91460216271639

   => Energetics <=

    Nuclear Repulsion Energy =            644.8667071575619048
    One-Electron Energy =               -2451.5113801931288435
    Two-Electron Energy =                 953.7300708728505469
    Total Energy =                       -852.9146021627163918
  Basis Set: (AUG-CC-PVTZ AUX)
    Blend: AUG-CC-PVTZ-RI
    Molecular point group: c1

    Geometry (in Angstrom), charge = 0, multiplicity = 1:

       Center              X                  Y                   Z               Mass
    ------------   -----------------  -----------------  -----------------  -----------------
         S           -1.419529379757     0.008425677755    -0.132956774780    31.972071174400
         O           -1.793054379757    -0.113765322245     1.463731225220    15.994914619570
         O           -1.831839979757     1.141335377755    -0.507888474780    15.994914619570
         O           -1.850007379757    -1.227744322245    -0.765401774780    15.994914619570
         C            0.348082620243     0.020612677755    -0.073183774780    12.000000000000
         C            1.029248620243    -1.196761322245    -0.012022774780    12.000000000000
         C            1.017836620243     1.245273677755    -0.072044774780    12.000000000000
         C            2.422095620243    -1.178407322245     0.057048225220    12.000000000000
         C            2.411607620243     1.243539677755    -0.007276774780    12.000000000000
         C            3.111954620243     0.036908677755     0.063322225220    12.000000000000
         H            0.477563620243    -2.132033322245    -0.036792774780     1.007825032230
         H            0.456683620243     2.172311677755    -0.145382774780     1.007825032230
         H            2.969858620243    -2.115994322245     0.102441225220     1.007825032230
         H            2.950964620243     2.187104677755    -0.014308774780     1.007825032230
         H            4.197789620243     0.043043677755     0.113751225220     1.007825032230
         H           -2.255726379757     0.717138677755     1.701531225220     1.007825032230

  Basis Set: AUG-CC-PVTZ
    Blend: AUG-CC-PVTZ
  Basis Set: (AUG-CC-PVTZ AUX)
    Blend: AUG-CC-PVTZ-JKFIT
	 Reference Energy          =    -852.9146021627163918 [Eh]
	 Singles Energy            =      -0.0000000000000000 [Eh]
	 Same-Spin Energy          =      -0.5274862043428931 [Eh]
	 Opposite-Spin Energy      =      -1.5418130024872527 [Eh]
	 Correlation Energy        =      -2.0692992068301459 [Eh]
	 Total Energy              =    -854.9839013695465155 [Eh]

	 ================> DF-SCS-MP2 Energies <==================
	-----------------------------------------------------------
	 SCS Same-Spin Scale       =       0.3333333333333333 [-]
	 SCS Opposite-Spin Scale   =       1.2000000000000000 [-]
	 SCS Same-Spin Energy      =      -0.1758287347809643 [Eh]
	 SCS Opposite-Spin Energy  =      -1.8501756029847032 [Eh]
	 SCS Correlation Energy    =      -2.0260043377656674 [Eh]
	 SCS Total Energy          =    -854.9406065004820903 [Eh]
	-----------------------------------------------------------

  Dipole Moment: [D]
     X:     3.2295      Y:     1.9142      Z:     1.5888     Total:     4.0766

*** Psi4 exiting successfully. Buy a developer a beer!
