                               Psi4 1.3.2 release

  ==> Input File <==

--------------------------------------------------------------------------
#psi4
#
memory 32 gb

molecule  {
0 1
  S       -1.4659670    -0.0143510    -0.1375590
  O       -1.8394920    -0.1365420     1.4591290
  O       -1.9915124     1.2808253    -0.5681430
  O       -1.8964450    -1.2505210    -0.7700040
  C        0.3016450    -0.0021640    -0.0777860
  C        0.9828110    -1.2195380    -0.0166250
  C        0.9713990     1.2224970    -0.0766470
  C        2.3756580    -1.2011840     0.0524460
  C        2.3651700     1.2207630    -0.0118790
  C        3.0655170     0.0141320     0.0587200
  H        0.4311260    -2.1548100    -0.0413950
  H        0.4102460     2.1495350    -0.1499850
  H        2.9234210    -2.1387710     0.0978390
  H        2.9045270     2.1643280    -0.0189110
  H        4.1513520     0.0202670     0.1091490
  H       -2.3021640     0.6943620     1.6969290
units angstrom
no_reorient  #important for SAPT in psi4, default
symmetry c1  #important for SAPT in psi4, default
}

set PROPERTIES_ORIGIN ["COM"]
properties('MP2/aug-cc-pvtz', properties = ['dipole'])
--------------------------------------------------------------------------

    Molecular point group: c1
  Charge       = 0
  Multiplicity = 1
  Basis Set: AUG-CC-PVTZ
    Blend: AUG-CC-PVTZ
  Basis Set: (AUG-CC-PVTZ AUX)
    Blend: AUG-CC-PVTZ-JKFIT

    Orbital Energies [Eh]
    ---------------------

    Doubly Occupied:

       1A    -92.232638     2A    -20.630907     3A    -20.568654
       4A    -20.562979     5A    -11.293688     6A    -11.278801
       7A    -11.278006     8A    -11.273747     9A    -11.266790
      10A    -11.266452    11A     -9.195589    12A     -6.881212
      13A     -6.879886    14A     -6.879714    15A     -1.496625
      16A     -1.382064    17A     -1.353885    18A     -1.190532
      19A     -1.069248    20A     -1.050301    21A     -0.929646
      22A     -0.862923    23A     -0.832768    24A     -0.759760
      25A     -0.734537    26A     -0.698014    27A     -0.683768
      28A     -0.661908    29A     -0.648000    30A     -0.628529
      31A     -0.622345    32A     -0.579959    33A     -0.554229
      34A     -0.538521    35A     -0.530157    36A     -0.520278
      37A     -0.507790    38A     -0.488216    39A     -0.481771
      40A     -0.377915    41A     -0.368120

  @DF-RHF Final Energy:  -852.95729272506583

   => Energetics <=

    Nuclear Repulsion Energy =            633.7450133446038762
    One-Electron Energy =               -2429.3228701209368410
    Two-Electron Energy =                 942.6205640512671380
    Total Energy =                       -852.9572927250658267
  Basis Set: (AUG-CC-PVTZ AUX)
    Blend: AUG-CC-PVTZ-RI
    Molecular point group: c1

    Geometry (in Angstrom), charge = 0, multiplicity = 1:

       Center              X                  Y                   Z               Mass
    ------------   -----------------  -----------------  -----------------  -----------------
         S           -1.408066482304    -0.008000768848    -0.127323024308    31.972071174400
         O           -1.781591482304    -0.130191768848     1.469364975692    15.994914619570
         O           -1.933611882304     1.287175531152    -0.557907024308    15.994914619570
         O           -1.838544482304    -1.244170768848    -0.759768024308    15.994914619570
         C            0.359545517696     0.004186231152    -0.067550024308    12.000000000000
         C            1.040711517696    -1.213187768848    -0.006389024308    12.000000000000
         C            1.029299517696     1.228847231152    -0.066411024308    12.000000000000
         C            2.433558517696    -1.194833768848     0.062681975692    12.000000000000
         C            2.423070517696     1.227113231152    -0.001643024308    12.000000000000
         C            3.123417517696     0.020482231152     0.068955975692    12.000000000000
         H            0.489026517696    -2.148459768848    -0.031159024308     1.007825032230
         H            0.468146517696     2.155885231152    -0.139749024308     1.007825032230
         H            2.981321517696    -2.132420768848     0.108074975692     1.007825032230
         H            2.962427517696     2.170678231152    -0.008675024308     1.007825032230
         H            4.209252517696     0.026617231152     0.119384975692     1.007825032230
         H           -2.244263482304     0.700712231152     1.707164975692     1.007825032230

  Basis Set: AUG-CC-PVTZ
    Blend: AUG-CC-PVTZ
  Basis Set: (AUG-CC-PVTZ AUX)
    Blend: AUG-CC-PVTZ-JKFIT
	 Reference Energy          =    -852.9572927250658267 [Eh]
	 Singles Energy            =      -0.0000000000000000 [Eh]
	 Same-Spin Energy          =      -0.5325715147473801 [Eh]
	 Opposite-Spin Energy      =      -1.5536663002496764 [Eh]
	 Correlation Energy        =      -2.0862378149970566 [Eh]
	 Total Energy              =    -855.0435305400628749 [Eh]

	 ================> DF-SCS-MP2 Energies <==================
	-----------------------------------------------------------
	 SCS Same-Spin Scale       =       0.3333333333333333 [-]
	 SCS Opposite-Spin Scale   =       1.2000000000000000 [-]
	 SCS Same-Spin Energy      =      -0.1775238382491267 [Eh]
	 SCS Opposite-Spin Energy  =      -1.8643995602996117 [Eh]
	 SCS Correlation Energy    =      -2.0419233985487386 [Eh]
	 SCS Total Energy          =    -854.9992161236145876 [Eh]
	-----------------------------------------------------------

  Dipole Moment: [D]
     X:     3.9454      Y:     1.0768      Z:     1.9589     Total:     4.5346

*** Psi4 exiting successfully. Buy a developer a beer!
