                               Psi4 1.3.2 release

  ==> Input File <==

--------------------------------------------------------------------------
#psi4
#
memory 32 gb

molecule  {
0 1
  S       -1.4659670    -0.0143510    -0.1375590
  O       -1.8394920    -0.1365420     1.4591290
  O       -1.9109343     1.2082899    -0.5421869
  O       -1.8964450    -1.2505210    -0.7700040
  C        0.3016450    -0.0021640    -0.0777860
  C        0.9828110    -1.2195380    -0.0166250
  C        0.9713990     1.2224970    -0.0766470
  C        2.3756580    -1.2011840     0.0524460
  C        2.3651700     1.2207630    -0.0118790
  C        3.0655170     0.0141320     0.0587200
  H        0.4311260    -2.1548100    -0.0413950
  H        0.4102460     2.1495350    -0.1499850
  H        2.9234210    -2.1387710     0.0978390
  H        2.9045270     2.1643280    -0.0189110
  H        4.1513520     0.0202670     0.1091490
  H       -2.3021640     0.6943620     1.6969290
units angstrom
no_reorient  #important for SAPT in psi4, default
symmetry c1  #important for SAPT in psi4, default
}

set PROPERTIES_ORIGIN ["COM"]
properties('MP2/aug-cc-pvtz', properties = ['dipole'])
--------------------------------------------------------------------------

    Molecular point group: c1
  Charge       = 0
  Multiplicity = 1
  Basis Set: AUG-CC-PVTZ
    Blend: AUG-CC-PVTZ
  Basis Set: (AUG-CC-PVTZ AUX)
    Blend: AUG-CC-PVTZ-JKFIT

    Orbital Energies [Eh]
    ---------------------

    Doubly Occupied:

       1A    -92.221277     2A    -20.624686     3A    -20.571951
       4A    -20.556519     5A    -11.286147     6A    -11.275066
       7A    -11.272738     8A    -11.269977     9A    -11.263860
      10A    -11.262845    11A     -9.187203    12A     -6.873048
      13A     -6.872014    14A     -6.870951    15A     -1.530291
      16A     -1.396193    17A     -1.366330    18A     -1.186316
      19A     -1.064334    20A     -1.046594    21A     -0.922308
      22A     -0.859236    23A     -0.829519    24A     -0.760880
      25A     -0.737815    26A     -0.701818    27A     -0.692419
      28A     -0.662293    29A     -0.647299    30A     -0.638643
      31A     -0.619104    32A     -0.578837    33A     -0.557718
      34A     -0.540385    35A     -0.530941    36A     -0.526092
      37A     -0.514013    38A     -0.493239    39A     -0.480911
      40A     -0.373570    41A     -0.364734

  @DF-RHF Final Energy:  -852.95607739905006

   => Energetics <=

    Nuclear Repulsion Energy =            639.1719029915187775
    One-Electron Energy =               -2440.1957377229291524
    Two-Electron Energy =                 948.0677573323602019
    Total Energy =                       -852.9560773990500593
  Basis Set: (AUG-CC-PVTZ AUX)
    Blend: AUG-CC-PVTZ-RI
    Molecular point group: c1

    Geometry (in Angstrom), charge = 0, multiplicity = 1:

       Center              X                  Y                   Z               Mass
    ------------   -----------------  -----------------  -----------------  -----------------
         S           -1.416223502030    -0.000657921491    -0.129950592092    31.972071174400
         O           -1.789748502030    -0.122848921491     1.466737407908    15.994914619570
         O           -1.861190802030     1.221982978509    -0.534578492092    15.994914619570
         O           -1.846701502030    -1.236827921491    -0.762395592092    15.994914619570
         C            0.351388497970     0.011529078509    -0.070177592092    12.000000000000
         C            1.032554497970    -1.205844921491    -0.009016592092    12.000000000000
         C            1.021142497970     1.236190078509    -0.069038592092    12.000000000000
         C            2.425401497970    -1.187490921491     0.060054407908    12.000000000000
         C            2.414913497970     1.234456078509    -0.004270592092    12.000000000000
         C            3.115260497970     0.027825078509     0.066328407908    12.000000000000
         H            0.480869497970    -2.141116921491    -0.033786592092     1.007825032230
         H            0.459989497970     2.163228078509    -0.142376592092     1.007825032230
         H            2.973164497970    -2.125077921491     0.105447407908     1.007825032230
         H            2.954270497970     2.178021078509    -0.011302592092     1.007825032230
         H            4.201095497970     0.033960078509     0.116757407908     1.007825032230
         H           -2.252420502030     0.708055078509     1.704537407908     1.007825032230

  Basis Set: AUG-CC-PVTZ
    Blend: AUG-CC-PVTZ
  Basis Set: (AUG-CC-PVTZ AUX)
    Blend: AUG-CC-PVTZ-JKFIT
	 Reference Energy          =    -852.9560773990500593 [Eh]
	 Singles Energy            =      -0.0000000000000000 [Eh]
	 Same-Spin Energy          =      -0.5301959558782350 [Eh]
	 Opposite-Spin Energy      =      -1.5479403585365898 [Eh]
	 Correlation Energy        =      -2.0781363144148246 [Eh]
	 Total Energy              =    -855.0342137134648510 [Eh]

	 ================> DF-SCS-MP2 Energies <==================
	-----------------------------------------------------------
	 SCS Same-Spin Scale       =       0.3333333333333333 [-]
	 SCS Opposite-Spin Scale   =       1.2000000000000000 [-]
	 SCS Same-Spin Energy      =      -0.1767319852927450 [Eh]
	 SCS Opposite-Spin Energy  =      -1.8575284302439077 [Eh]
	 SCS Correlation Energy    =      -2.0342604155366528 [Eh]
	 SCS Total Energy          =    -854.9903378145867237 [Eh]
	-----------------------------------------------------------

  Dipole Moment: [D]
     X:     3.5023      Y:     1.4801      Z:     1.7824     Total:     4.1993

*** Psi4 exiting successfully. Buy a developer a beer!
