                               Psi4 1.3.2 release

  ==> Input File <==

--------------------------------------------------------------------------
#psi4
#
memory 32 gb

molecule  {
0 1
  S       -1.4782319     0.0115875    -0.1381853
  O       -1.8394920    -0.1365420     1.4591290
  O       -1.9435910     1.2980210    -0.5718830
  O       -1.8964450    -1.2505210    -0.7700040
  C        0.3016450    -0.0021640    -0.0777860
  C        0.9828110    -1.2195380    -0.0166250
  C        0.9713990     1.2224970    -0.0766470
  C        2.3756580    -1.2011840     0.0524460
  C        2.3651700     1.2207630    -0.0118790
  C        3.0655170     0.0141320     0.0587200
  H        0.4311260    -2.1548100    -0.0413950
  H        0.4102460     2.1495350    -0.1499850
  H        2.9234210    -2.1387710     0.0978390
  H        2.9045270     2.1643280    -0.0189110
  H        4.1513520     0.0202670     0.1091490
  H       -2.3021640     0.6943620     1.6969290
units angstrom
no_reorient  #important for SAPT in psi4, default
symmetry c1  #important for SAPT in psi4, default
}

set PROPERTIES_ORIGIN ["COM"]
properties('MP2/aug-cc-pvtz', properties = ['dipole'])
--------------------------------------------------------------------------

    Molecular point group: c1
  Charge       = 0
  Multiplicity = 1
  Basis Set: AUG-CC-PVTZ
    Blend: AUG-CC-PVTZ
  Basis Set: (AUG-CC-PVTZ AUX)
    Blend: AUG-CC-PVTZ-JKFIT

    Orbital Energies [Eh]
    ---------------------

    Doubly Occupied:

       1A    -92.233213     2A    -20.634329     3A    -20.576681
       4A    -20.560711     5A    -11.290960     6A    -11.275749
       7A    -11.274965     8A    -11.271103     9A    -11.264629
      10A    -11.264280    11A     -9.196211    12A     -6.881850
      13A     -6.880666    14A     -6.880204    15A     -1.502342
      16A     -1.388646    17A     -1.355875    18A     -1.187422
      19A     -1.065015    20A     -1.047765    21A     -0.926517
      22A     -0.860279    23A     -0.831699    24A     -0.758055
      25A     -0.737546    26A     -0.698698    27A     -0.685342
      28A     -0.661073    29A     -0.646640    30A     -0.632527
      31A     -0.620111    32A     -0.581174    33A     -0.553631
      34A     -0.538079    35A     -0.528258    36A     -0.524637
      37A     -0.510325    38A     -0.489380    39A     -0.479130
      40A     -0.374980    41A     -0.365824

  @DF-RHF Final Energy:  -852.95610340870462

   => Energetics <=

    Nuclear Repulsion Energy =            633.9212037824187291
    One-Electron Energy =               -2429.6815783426595772
    Two-Electron Energy =                 942.8042711515363408
    Total Energy =                       -852.9561034087046210
  Basis Set: (AUG-CC-PVTZ AUX)
    Blend: AUG-CC-PVTZ-RI
    Molecular point group: c1

    Geometry (in Angstrom), charge = 0, multiplicity = 1:

       Center              X                  Y                   Z               Mass
    ------------   -----------------  -----------------  -----------------  -----------------
         S           -1.422700721067     0.010948332387    -0.127443987687    31.972071174400
         O           -1.783960821067    -0.137181167613     1.469870312313    15.994914619570
         O           -1.888059821067     1.297381832387    -0.561141687687    15.994914619570
         O           -1.840913821067    -1.251160167613    -0.759262687687    15.994914619570
         C            0.357176178933    -0.002803167613    -0.067044687687    12.000000000000
         C            1.038342178933    -1.220177167613    -0.005883687687    12.000000000000
         C            1.026930178933     1.221857832387    -0.065905687687    12.000000000000
         C            2.431189178933    -1.201823167613     0.063187312313    12.000000000000
         C            2.420701178933     1.220123832387    -0.001137687687    12.000000000000
         C            3.121048178933     0.013492832387     0.069461312313    12.000000000000
         H            0.486657178933    -2.155449167613    -0.030653687687     1.007825032230
         H            0.465777178933     2.148895832387    -0.139243687687     1.007825032230
         H            2.978952178933    -2.139410167613     0.108580312313     1.007825032230
         H            2.960058178933     2.163688832387    -0.008169687687     1.007825032230
         H            4.206883178933     0.019627832387     0.119890312313     1.007825032230
         H           -2.246632821067     0.693722832387     1.707670312313     1.007825032230

  Basis Set: AUG-CC-PVTZ
    Blend: AUG-CC-PVTZ
  Basis Set: (AUG-CC-PVTZ AUX)
    Blend: AUG-CC-PVTZ-JKFIT
	 Reference Energy          =    -852.9561034087046210 [Eh]
	 Singles Energy            =      -0.0000000000000000 [Eh]
	 Same-Spin Energy          =      -0.5325974755742838 [Eh]
	 Opposite-Spin Energy      =      -1.5537990538398319 [Eh]
	 Correlation Energy        =      -2.0863965294141158 [Eh]
	 Total Energy              =    -855.0424999381186808 [Eh]

	 ================> DF-SCS-MP2 Energies <==================
	-----------------------------------------------------------
	 SCS Same-Spin Scale       =       0.3333333333333333 [-]
	 SCS Opposite-Spin Scale   =       1.2000000000000000 [-]
	 SCS Same-Spin Energy      =      -0.1775324918580946 [Eh]
	 SCS Opposite-Spin Energy  =      -1.8645588646077982 [Eh]
	 SCS Correlation Energy    =      -2.0420913564658929 [Eh]
	 SCS Total Energy          =    -854.9981947651705241 [Eh]
	-----------------------------------------------------------

  Dipole Moment: [D]
     X:     3.6173      Y:     1.2802      Z:     1.9720     Total:     4.3143

*** Psi4 exiting successfully. Buy a developer a beer!
