                               Psi4 1.3.2 release

  ==> Input File <==

--------------------------------------------------------------------------
#psi4
#
memory 32 gb

molecule  {
0 1
  S       -1.4659670    -0.0143510    -0.1375590
  O       -1.8394920    -0.1365420     1.4591290
  O       -1.9435910     1.2980210    -0.5718830
  O       -1.8964450    -1.2505210    -0.7700040
  C        0.5015260    -0.0007859    -0.0710269
  C        0.9828110    -1.2195380    -0.0166250
  C        0.9713990     1.2224970    -0.0766470
  C        2.3756580    -1.2011840     0.0524460
  C        2.3651700     1.2207630    -0.0118790
  C        3.0655170     0.0141320     0.0587200
  H        0.4311260    -2.1548100    -0.0413950
  H        0.4102460     2.1495350    -0.1499850
  H        2.9234210    -2.1387710     0.0978390
  H        2.9045270     2.1643280    -0.0189110
  H        4.1513520     0.0202670     0.1091490
  H       -2.3021640     0.6943620     1.6969290
units angstrom
no_reorient  #important for SAPT in psi4, default
symmetry c1  #important for SAPT in psi4, default
}

set PROPERTIES_ORIGIN ["COM"]
properties('MP2/aug-cc-pvtz', properties = ['dipole'])
--------------------------------------------------------------------------

    Molecular point group: c1
  Charge       = 0
  Multiplicity = 1
  Basis Set: AUG-CC-PVTZ
    Blend: AUG-CC-PVTZ
  Basis Set: (AUG-CC-PVTZ AUX)
    Blend: AUG-CC-PVTZ-JKFIT

    Orbital Energies [Eh]
    ---------------------

    Doubly Occupied:

       1A    -92.218602     2A    -20.628633     3A    -20.564990
       4A    -20.560743     5A    -11.297638     6A    -11.269745
       7A    -11.269407     8A    -11.265898     9A    -11.265719
      10A    -11.265331    11A     -9.182187    12A     -6.867503
      13A     -6.866125    14A     -6.865762    15A     -1.488483
      16A     -1.378085    17A     -1.350064    18A     -1.214326
      19A     -1.067162    20A     -1.060174    21A     -0.904432
      22A     -0.875073    23A     -0.832836    24A     -0.758353
      25A     -0.731853    26A     -0.686681    27A     -0.680406
      28A     -0.671590    29A     -0.650181    30A     -0.634265
      31A     -0.623473    32A     -0.577881    33A     -0.560529
      34A     -0.546705    35A     -0.544782    36A     -0.517127
      37A     -0.504650    38A     -0.483735    39A     -0.438806
      40A     -0.383564    41A     -0.373212

  @DF-RHF Final Energy:  -852.92195716075207

   => Energetics <=

    Nuclear Repulsion Energy =            633.0209183550531407
    One-Electron Energy =               -2428.0323316390445143
    Two-Electron Energy =                 942.0894561232391879
    Total Energy =                       -852.9219571607520720
  Basis Set: (AUG-CC-PVTZ AUX)
    Blend: AUG-CC-PVTZ-RI
    Molecular point group: c1

    Geometry (in Angstrom), charge = 0, multiplicity = 1:

       Center              X                  Y                   Z               Mass
    ------------   -----------------  -----------------  -----------------  -----------------
         S           -1.428098097986    -0.009846173943    -0.127457756662    31.972071174400
         O           -1.801623097986    -0.132037173943     1.469230243338    15.994914619570
         O           -1.905722097986     1.302525826057    -0.561781756662    15.994914619570
         O           -1.858576097986    -1.246016173943    -0.759902756662    15.994914619570
         C            0.539394902014     0.003718926057    -0.060925656662    12.000000000000
         C            1.020679902014    -1.215033173943    -0.006523756662    12.000000000000
         C            1.009267902014     1.227001826057    -0.066545756662    12.000000000000
         C            2.413526902014    -1.196679173943     0.062547243338    12.000000000000
         C            2.403038902014     1.225267826057    -0.001777756662    12.000000000000
         C            3.103385902014     0.018636826057     0.068821243338    12.000000000000
         H            0.468994902014    -2.150305173943    -0.031293756662     1.007825032230
         H            0.448114902014     2.154039826057    -0.139883756662     1.007825032230
         H            2.961289902014    -2.134266173943     0.107940243338     1.007825032230
         H            2.942395902014     2.168832826057    -0.008809756662     1.007825032230
         H            4.189220902014     0.024771826057     0.119250243338     1.007825032230
         H           -2.264295097986     0.698866826057     1.707030243338     1.007825032230

  Basis Set: AUG-CC-PVTZ
    Blend: AUG-CC-PVTZ
  Basis Set: (AUG-CC-PVTZ AUX)
    Blend: AUG-CC-PVTZ-JKFIT
	 Reference Energy          =    -852.9219571607520720 [Eh]
	 Singles Energy            =      -0.0000000000000000 [Eh]
	 Same-Spin Energy          =      -0.5339886689229654 [Eh]
	 Opposite-Spin Energy      =      -1.5557232249897224 [Eh]
	 Correlation Energy        =      -2.0897118939126877 [Eh]
	 Total Energy              =    -855.0116690546647078 [Eh]

	 ================> DF-SCS-MP2 Energies <==================
	-----------------------------------------------------------
	 SCS Same-Spin Scale       =       0.3333333333333333 [-]
	 SCS Opposite-Spin Scale   =       1.2000000000000000 [-]
	 SCS Same-Spin Energy      =      -0.1779962229743218 [Eh]
	 SCS Opposite-Spin Energy  =      -1.8668678699876669 [Eh]
	 SCS Correlation Energy    =      -2.0448640929619888 [Eh]
	 SCS Total Energy          =    -854.9668212537141017 [Eh]
	-----------------------------------------------------------

  Dipole Moment: [D]
     X:     3.7883      Y:     1.0459      Z:     1.9307     Total:     4.3787

*** Psi4 exiting successfully. Buy a developer a beer!
