                               Psi4 1.3.2 release

  ==> Input File <==

--------------------------------------------------------------------------
#psi4
#
memory 32 gb

molecule  {
0 1
  S       -1.4652501     0.0473505    -0.1394596
  O       -1.8394920    -0.1365420     1.4591290
  O       -1.9435910     1.2980210    -0.5718830
  O       -1.8964450    -1.2505210    -0.7700040
  C        0.3016450    -0.0021640    -0.0777860
  C        0.9828110    -1.2195380    -0.0166250
  C        0.9713990     1.2224970    -0.0766470
  C        2.3756580    -1.2011840     0.0524460
  C        2.3651700     1.2207630    -0.0118790
  C        3.0655170     0.0141320     0.0587200
  H        0.4311260    -2.1548100    -0.0413950
  H        0.4102460     2.1495350    -0.1499850
  H        2.9234210    -2.1387710     0.0978390
  H        2.9045270     2.1643280    -0.0189110
  H        4.1513520     0.0202670     0.1091490
  H       -2.3021640     0.6943620     1.6969290
units angstrom
no_reorient  #important for SAPT in psi4, default
symmetry c1  #important for SAPT in psi4, default
}

set PROPERTIES_ORIGIN ["COM"]
properties('MP2/aug-cc-pvtz', properties = ['dipole'])
--------------------------------------------------------------------------

    Molecular point group: c1
  Charge       = 0
  Multiplicity = 1
  Basis Set: AUG-CC-PVTZ
    Blend: AUG-CC-PVTZ
  Basis Set: (AUG-CC-PVTZ AUX)
    Blend: AUG-CC-PVTZ-JKFIT

    Orbital Energies [Eh]
    ---------------------

    Doubly Occupied:

       1A    -92.231850     2A    -20.632952     3A    -20.583571
       4A    -20.551997     5A    -11.291733     6A    -11.277458
       7A    -11.276425     8A    -11.272577     9A    -11.265686
      10A    -11.265309    11A     -9.195515    12A     -6.881108
      13A     -6.880066    14A     -6.879270    15A     -1.507497
      16A     -1.394979    17A     -1.338011    18A     -1.189106
      19A     -1.067808    20A     -1.048998    21A     -0.928017
      22A     -0.861794    23A     -0.830909    24A     -0.757848
      25A     -0.737987    26A     -0.700536    27A     -0.686040
      28A     -0.663089    29A     -0.648008    30A     -0.633158
      31A     -0.621185    32A     -0.579606    33A     -0.556393
      34A     -0.537900    35A     -0.531177    36A     -0.527089
      37A     -0.507254    38A     -0.481480    39A     -0.474960
      40A     -0.376483    41A     -0.366868

  @DF-RHF Final Energy:  -852.94952454291376

   => Energetics <=

    Nuclear Repulsion Energy =            634.1339727272039681
    One-Electron Energy =               -2430.0875960163170930
    Two-Electron Energy =                 943.0040987461994746
    Total Energy =                       -852.9495245429137640
  Basis Set: (AUG-CC-PVTZ AUX)
    Blend: AUG-CC-PVTZ-RI
    Molecular point group: c1

    Geometry (in Angstrom), charge = 0, multiplicity = 1:

       Center              X                  Y                   Z               Mass
    ------------   -----------------  -----------------  -----------------  -----------------
         S           -1.412345789060     0.039474687237    -0.128460433007    31.972071174400
         O           -1.786587689060    -0.144417812763     1.470128166993    15.994914619570
         O           -1.890686689060     1.290145187237    -0.560883833007    15.994914619570
         O           -1.843540689060    -1.258396812763    -0.759004833007    15.994914619570
         C            0.354549310940    -0.010039812763    -0.066786833007    12.000000000000
         C            1.035715310940    -1.227413812763    -0.005625833007    12.000000000000
         C            1.024303310940     1.214621187237    -0.065647833007    12.000000000000
         C            2.428562310940    -1.209059812763     0.063445166993    12.000000000000
         C            2.418074310940     1.212887187237    -0.000879833007    12.000000000000
         C            3.118421310940     0.006256187237     0.069719166993    12.000000000000
         H            0.484030310940    -2.162685812763    -0.030395833007     1.007825032230
         H            0.463150310940     2.141659187237    -0.138985833007     1.007825032230
         H            2.976325310940    -2.146646812763     0.108838166993     1.007825032230
         H            2.957431310940     2.156452187237    -0.007911833007     1.007825032230
         H            4.204256310940     0.012391187237     0.120148166993     1.007825032230
         H           -2.249259689060     0.686486187237     1.707928166993     1.007825032230

  Basis Set: AUG-CC-PVTZ
    Blend: AUG-CC-PVTZ
  Basis Set: (AUG-CC-PVTZ AUX)
    Blend: AUG-CC-PVTZ-JKFIT
	 Reference Energy          =    -852.9495245429137640 [Eh]
	 Singles Energy            =      -0.0000000000000000 [Eh]
	 Same-Spin Energy          =      -0.5327505115935381 [Eh]
	 Opposite-Spin Energy      =      -1.5542291621675786 [Eh]
	 Correlation Energy        =      -2.0869796737611166 [Eh]
	 Total Energy              =    -855.0365042166748708 [Eh]

	 ================> DF-SCS-MP2 Energies <==================
	-----------------------------------------------------------
	 SCS Same-Spin Scale       =       0.3333333333333333 [-]
	 SCS Opposite-Spin Scale   =       1.2000000000000000 [-]
	 SCS Same-Spin Energy      =      -0.1775835038645127 [Eh]
	 SCS Opposite-Spin Energy  =      -1.8650749946010943 [Eh]
	 SCS Correlation Energy    =      -2.0426584984656069 [Eh]
	 SCS Total Energy          =    -854.9921830413793487 [Eh]
	-----------------------------------------------------------

  Dipole Moment: [D]
     X:     3.7831      Y:     1.5916      Z:     1.9719     Total:     4.5534

*** Psi4 exiting successfully. Buy a developer a beer!
