                               Psi4 1.3.2 release

  ==> Input File <==

--------------------------------------------------------------------------
#psi4
#
memory 32 gb

molecule  {
0 1
  S       -1.4659670    -0.0143510    -0.1375590
  O       -1.7919281    -0.2409913     1.4581376
  O       -1.9435910     1.2980210    -0.5718830
  O       -1.8964450    -1.2505210    -0.7700040
  C        0.3016450    -0.0021640    -0.0777860
  C        0.9828110    -1.2195380    -0.0166250
  C        0.9713990     1.2224970    -0.0766470
  C        2.3756580    -1.2011840     0.0524460
  C        2.3651700     1.2207630    -0.0118790
  C        3.0655170     0.0141320     0.0587200
  H        0.4311260    -2.1548100    -0.0413950
  H        0.4102460     2.1495350    -0.1499850
  H        2.9234210    -2.1387710     0.0978390
  H        2.9045270     2.1643280    -0.0189110
  H        4.1513520     0.0202670     0.1091490
  H       -2.3021640     0.6943620     1.6969290
units angstrom
no_reorient  #important for SAPT in psi4, default
symmetry c1  #important for SAPT in psi4, default
}

set PROPERTIES_ORIGIN ["COM"]
properties('MP2/aug-cc-pvtz', properties = ['dipole'])
--------------------------------------------------------------------------

    Molecular point group: c1
  Charge       = 0
  Multiplicity = 1
  Basis Set: AUG-CC-PVTZ
    Blend: AUG-CC-PVTZ
  Basis Set: (AUG-CC-PVTZ AUX)
    Blend: AUG-CC-PVTZ-JKFIT

    Orbital Energies [Eh]
    ---------------------

    Doubly Occupied:

       1A    -92.231636     2A    -20.643935     3A    -20.576095
       4A    -20.559756     5A    -11.289472     6A    -11.275511
       7A    -11.274656     8A    -11.270864     9A    -11.264386
      10A    -11.264072    11A     -9.194836    12A     -6.880419
      13A     -6.879190    14A     -6.878903    15A     -1.493847
      16A     -1.371765    17A     -1.356026    18A     -1.187446
      19A     -1.065547    20A     -1.047575    21A     -0.922249
      22A     -0.860203    23A     -0.824211    24A     -0.750968
      25A     -0.725964    26A     -0.697263    27A     -0.683141
      28A     -0.658766    29A     -0.645868    30A     -0.626823
      31A     -0.619880    32A     -0.581066    33A     -0.552650
      34A     -0.536716    35A     -0.527632    36A     -0.522342
      37A     -0.508442    38A     -0.487195    39A     -0.480371
      40A     -0.374523    41A     -0.365624

  @DF-RHF Final Energy:  -852.93906649631731

   => Energetics <=

    Nuclear Repulsion Energy =            633.9878687372547574
    One-Electron Energy =               -2429.9382021763685771
    Two-Electron Energy =                 943.0112669427965102
    Total Energy =                       -852.9390664963173094
  Basis Set: (AUG-CC-PVTZ AUX)
    Blend: AUG-CC-PVTZ-RI
    Molecular point group: c1

    Geometry (in Angstrom), charge = 0, multiplicity = 1:

       Center              X                  Y                   Z               Mass
    ------------   -----------------  -----------------  -----------------  -----------------
         S           -1.417732576138     0.000832019916    -0.126844058892    31.972071174400
         O           -1.743693676138    -0.225808280084     1.468852541108    15.994914619570
         O           -1.895356576138     1.313204019916    -0.561168058892    15.994914619570
         O           -1.848210576138    -1.235337980084    -0.759289058892    15.994914619570
         C            0.349879423862     0.013019019916    -0.067071058892    12.000000000000
         C            1.031045423862    -1.204354980084    -0.005910058892    12.000000000000
         C            1.019633423862     1.237680019916    -0.065932058892    12.000000000000
         C            2.423892423862    -1.186000980084     0.063160941108    12.000000000000
         C            2.413404423862     1.235946019916    -0.001164058892    12.000000000000
         C            3.113751423862     0.029315019916     0.069434941108    12.000000000000
         H            0.479360423862    -2.139626980084    -0.030680058892     1.007825032230
         H            0.458480423862     2.164718019916    -0.139270058892     1.007825032230
         H            2.971655423862    -2.123587980084     0.108553941108     1.007825032230
         H            2.952761423862     2.179511019916    -0.008196058892     1.007825032230
         H            4.199586423862     0.035450019916     0.119863941108     1.007825032230
         H           -2.253929576138     0.709545019916     1.707643941108     1.007825032230

  Basis Set: AUG-CC-PVTZ
    Blend: AUG-CC-PVTZ
  Basis Set: (AUG-CC-PVTZ AUX)
    Blend: AUG-CC-PVTZ-JKFIT
	 Reference Energy          =    -852.9390664963173094 [Eh]
	 Singles Energy            =      -0.0000000000000000 [Eh]
	 Same-Spin Energy          =      -0.5347383585184506 [Eh]
	 Opposite-Spin Energy      =      -1.5585220441418939 [Eh]
	 Correlation Energy        =      -2.0932604026603445 [Eh]
	 Total Energy              =    -855.0323268989776579 [Eh]

	 ================> DF-SCS-MP2 Energies <==================
	-----------------------------------------------------------
	 SCS Same-Spin Scale       =       0.3333333333333333 [-]
	 SCS Opposite-Spin Scale   =       1.2000000000000000 [-]
	 SCS Same-Spin Energy      =      -0.1782461195061502 [Eh]
	 SCS Opposite-Spin Energy  =      -1.8702264529702726 [Eh]
	 SCS Correlation Energy    =      -2.0484725724764230 [Eh]
	 SCS Total Energy          =    -854.9875390687936942 [Eh]
	-----------------------------------------------------------

  Dipole Moment: [D]
     X:     3.5889      Y:     1.2381      Z:     2.0489     Total:     4.3140

*** Psi4 exiting successfully. Buy a developer a beer!
