                               Psi4 1.3.2 release

  ==> Input File <==

--------------------------------------------------------------------------
#psi4
#
memory 32 gb

molecule  {
0 1
  S       -1.4659670    -0.0143510    -0.1375590
  O       -1.8114889    -0.1367451     1.4654065
  O       -1.9435910     1.2980210    -0.5718830
  O       -1.8964450    -1.2505210    -0.7700040
  C        0.3016450    -0.0021640    -0.0777860
  C        0.9828110    -1.2195380    -0.0166250
  C        0.9713990     1.2224970    -0.0766470
  C        2.3756580    -1.2011840     0.0524460
  C        2.3651700     1.2207630    -0.0118790
  C        3.0655170     0.0141320     0.0587200
  H        0.4311260    -2.1548100    -0.0413950
  H        0.4102460     2.1495350    -0.1499850
  H        2.9234210    -2.1387710     0.0978390
  H        2.9045270     2.1643280    -0.0189110
  H        4.1513520     0.0202670     0.1091490
  H       -2.3021640     0.6943620     1.6969290
units angstrom
no_reorient  #important for SAPT in psi4, default
symmetry c1  #important for SAPT in psi4, default
}

set PROPERTIES_ORIGIN ["COM"]
properties('MP2/aug-cc-pvtz', properties = ['dipole'])
--------------------------------------------------------------------------

    Molecular point group: c1
  Charge       = 0
  Multiplicity = 1
  Basis Set: AUG-CC-PVTZ
    Blend: AUG-CC-PVTZ
  Basis Set: (AUG-CC-PVTZ AUX)
    Blend: AUG-CC-PVTZ-JKFIT

    Orbital Energies [Eh]
    ---------------------

    Doubly Occupied:

       1A    -92.233327     2A    -20.634423     3A    -20.570411
       4A    -20.565748     5A    -11.290674     6A    -11.276364
       7A    -11.275781     8A    -11.271770     9A    -11.265034
      10A    -11.264723    11A     -9.196263    12A     -6.881882
      13A     -6.880606    14A     -6.880353    15A     -1.497194
      16A     -1.382760    17A     -1.356682    18A     -1.188376
      19A     -1.066987    20A     -1.048351    21A     -0.928070
      22A     -0.860973    23A     -0.831071    24A     -0.757314
      25A     -0.735599    26A     -0.697563    27A     -0.684605
      28A     -0.660495    29A     -0.646460    30A     -0.629972
      31A     -0.620628    32A     -0.581318    33A     -0.552987
      34A     -0.537975    35A     -0.528294    36A     -0.521596
      37A     -0.509733    38A     -0.489583    39A     -0.481531
      40A     -0.375707    41A     -0.366329

  @DF-RHF Final Energy:  -852.95588414781923

   => Energetics <=

    Nuclear Repulsion Energy =            634.2040934572202104
    One-Electron Energy =               -2430.2689328125434258
    Two-Electron Energy =                 943.1089552075040956
    Total Energy =                       -852.9558841478192335
  Basis Set: (AUG-CC-PVTZ AUX)
    Blend: AUG-CC-PVTZ-RI
    Molecular point group: c1

    Geometry (in Angstrom), charge = 0, multiplicity = 1:

       Center              X                  Y                   Z               Mass
    ------------   -----------------  -----------------  -----------------  -----------------
         S           -1.415752412403    -0.009720950553    -0.127579898540    31.972071174400
         O           -1.761274312403    -0.132115050553     1.475385601460    15.994914619570
         O           -1.893376412403     1.302651049447    -0.561903898540    15.994914619570
         O           -1.846230412403    -1.245890950553    -0.760024898540    15.994914619570
         C            0.351859587597     0.002466049447    -0.067806898540    12.000000000000
         C            1.033025587597    -1.214907950553    -0.006645898540    12.000000000000
         C            1.021613587597     1.227127049447    -0.066667898540    12.000000000000
         C            2.425872587597    -1.196553950553     0.062425101460    12.000000000000
         C            2.415384587597     1.225393049447    -0.001899898540    12.000000000000
         C            3.115731587597     0.018762049447     0.068699101460    12.000000000000
         H            0.481340587597    -2.150179950553    -0.031415898540     1.007825032230
         H            0.460460587597     2.154165049447    -0.140005898540     1.007825032230
         H            2.973635587597    -2.134140950553     0.107818101460     1.007825032230
         H            2.954741587597     2.168958049447    -0.008931898540     1.007825032230
         H            4.201566587597     0.024897049447     0.119128101460     1.007825032230
         H           -2.251949412403     0.698992049447     1.706908101460     1.007825032230

  Basis Set: AUG-CC-PVTZ
    Blend: AUG-CC-PVTZ
  Basis Set: (AUG-CC-PVTZ AUX)
    Blend: AUG-CC-PVTZ-JKFIT
	 Reference Energy          =    -852.9558841478192335 [Eh]
	 Singles Energy            =      -0.0000000000000000 [Eh]
	 Same-Spin Energy          =      -0.5329681065642596 [Eh]
	 Opposite-Spin Energy      =      -1.5544824483450790 [Eh]
	 Correlation Energy        =      -2.0874505549093385 [Eh]
	 Total Energy              =    -855.0433347027285436 [Eh]

	 ================> DF-SCS-MP2 Energies <==================
	-----------------------------------------------------------
	 SCS Same-Spin Scale       =       0.3333333333333333 [-]
	 SCS Opposite-Spin Scale   =       1.2000000000000000 [-]
	 SCS Same-Spin Energy      =      -0.1776560355214199 [Eh]
	 SCS Opposite-Spin Energy  =      -1.8653789380140946 [Eh]
	 SCS Correlation Energy    =      -2.0430349735355144 [Eh]
	 SCS Total Energy          =    -854.9989191213547883 [Eh]
	-----------------------------------------------------------

  Dipole Moment: [D]
     X:     3.6814      Y:     1.0478      Z:     1.9661     Total:     4.3031

*** Psi4 exiting successfully. Buy a developer a beer!
