                               Psi4 1.3.2 release

  ==> Input File <==

--------------------------------------------------------------------------
#psi4
#
memory 32 gb

molecule  {
0 1
  S       -1.4573616     0.1704973    -0.1430332
  O       -1.8394920    -0.1365420     1.4591290
  O       -1.9435910     1.2980210    -0.5718830
  O       -1.8964450    -1.2505210    -0.7700040
  C        0.3016450    -0.0021640    -0.0777860
  C        0.9828110    -1.2195380    -0.0166250
  C        0.9713990     1.2224970    -0.0766470
  C        2.3756580    -1.2011840     0.0524460
  C        2.3651700     1.2207630    -0.0118790
  C        3.0655170     0.0141320     0.0587200
  H        0.4311260    -2.1548100    -0.0413950
  H        0.4102460     2.1495350    -0.1499850
  H        2.9234210    -2.1387710     0.0978390
  H        2.9045270     2.1643280    -0.0189110
  H        4.1513520     0.0202670     0.1091490
  H       -2.3021640     0.6943620     1.6969290
units angstrom
no_reorient  #important for SAPT in psi4, default
symmetry c1  #important for SAPT in psi4, default
}

set PROPERTIES_ORIGIN ["COM"]
properties('MP2/aug-cc-pvtz', properties = ['dipole'])
--------------------------------------------------------------------------

    Molecular point group: c1
  Charge       = 0
  Multiplicity = 1
  Basis Set: AUG-CC-PVTZ
    Blend: AUG-CC-PVTZ
  Basis Set: (AUG-CC-PVTZ AUX)
    Blend: AUG-CC-PVTZ-JKFIT

    Orbital Energies [Eh]
    ---------------------

    Doubly Occupied:

       1A    -92.221261     2A    -20.631119     3A    -20.609178
       4A    -20.525830     5A    -11.293289     6A    -11.278636
       7A    -11.276753     8A    -11.273136     9A    -11.266381
      10A    -11.265921    11A     -9.191022    12A     -6.877142
      13A     -6.875016    14A     -6.873540    15A     -1.570490
      16A     -1.408073    17A     -1.274490    18A     -1.189453
      19A     -1.069444    20A     -1.049181    21A     -0.927227
      22A     -0.862816    23A     -0.829188    24A     -0.761988
      25A     -0.748172    26A     -0.717880    27A     -0.701412
      28A     -0.669268    29A     -0.654130    30A     -0.639724
      31A     -0.621257    32A     -0.584598    33A     -0.569279
      34A     -0.542323    35A     -0.535566    36A     -0.530779
      37A     -0.490122    38A     -0.449180    39A     -0.445162
      40A     -0.376599    41A     -0.366953

  @DF-RHF Final Energy:  -852.88800165799944

   => Energetics <=

    Nuclear Repulsion Energy =            634.6888785210414881
    One-Electron Energy =               -2431.0678058360049363
    Two-Electron Energy =                 943.4909256569640092
    Total Energy =                       -852.8880016579994390
  Basis Set: (AUG-CC-PVTZ AUX)
    Blend: AUG-CC-PVTZ-RI
    Molecular point group: c1

    Geometry (in Angstrom), charge = 0, multiplicity = 1:

       Center              X                  Y                   Z               Mass
    ------------   -----------------  -----------------  -----------------  -----------------
         S           -1.406053527498     0.137702725023    -0.131310914837    31.972071174400
         O           -1.788183927498    -0.169336574977     1.470851285163    15.994914619570
         O           -1.892282927498     1.265226425023    -0.560160714837    15.994914619570
         O           -1.845136927498    -1.283315574977    -0.758281714837    15.994914619570
         C            0.352953072502    -0.034958574977    -0.066063714837    12.000000000000
         C            1.034119072502    -1.252332574977    -0.004902714837    12.000000000000
         C            1.022707072502     1.189702425023    -0.064924714837    12.000000000000
         C            2.426966072502    -1.233978574977     0.064168285163    12.000000000000
         C            2.416478072502     1.187968425023    -0.000156714837    12.000000000000
         C            3.116825072502    -0.018662574977     0.070442285163    12.000000000000
         H            0.482434072502    -2.187604574977    -0.029672714837     1.007825032230
         H            0.461554072502     2.116740425023    -0.138262714837     1.007825032230
         H            2.974729072502    -2.171565574977     0.109561285163     1.007825032230
         H            2.955835072502     2.131533425023    -0.007188714837     1.007825032230
         H            4.202660072502    -0.012527574977     0.120871285163     1.007825032230
         H           -2.250855927498     0.661567425023     1.708651285163     1.007825032230

  Basis Set: AUG-CC-PVTZ
    Blend: AUG-CC-PVTZ
  Basis Set: (AUG-CC-PVTZ AUX)
    Blend: AUG-CC-PVTZ-JKFIT
	 Reference Energy          =    -852.8880016579994390 [Eh]
	 Singles Energy            =      -0.0000000000000000 [Eh]
	 Same-Spin Energy          =      -0.5320985425237790 [Eh]
	 Opposite-Spin Energy      =      -1.5543496085126325 [Eh]
	 Correlation Energy        =      -2.0864481510364117 [Eh]
	 Total Energy              =    -854.9744498090358320 [Eh]

	 ================> DF-SCS-MP2 Energies <==================
	-----------------------------------------------------------
	 SCS Same-Spin Scale       =       0.3333333333333333 [-]
	 SCS Opposite-Spin Scale   =       1.2000000000000000 [-]
	 SCS Same-Spin Energy      =      -0.1773661808412597 [Eh]
	 SCS Opposite-Spin Energy  =      -1.8652195302151588 [Eh]
	 SCS Correlation Energy    =      -2.0425857110564185 [Eh]
	 SCS Total Energy          =    -854.9305873690558428 [Eh]
	-----------------------------------------------------------

  Dipole Moment: [D]
     X:     3.9380      Y:     2.6661      Z:     2.0071     Total:     5.1619

*** Psi4 exiting successfully. Buy a developer a beer!
