                               Psi4 1.3.2 release

  ==> Input File <==

--------------------------------------------------------------------------
#psi4
#
memory 32 gb

molecule  {
0 1
  S       -1.4659670    -0.0143510    -0.1375590
  O       -1.8394920    -0.1365420     1.4591290
  O       -1.8460615     1.3275966    -0.5777716
  O       -1.8964450    -1.2505210    -0.7700040
  C        0.3016450    -0.0021640    -0.0777860
  C        0.9828110    -1.2195380    -0.0166250
  C        0.9713990     1.2224970    -0.0766470
  C        2.3756580    -1.2011840     0.0524460
  C        2.3651700     1.2207630    -0.0118790
  C        3.0655170     0.0141320     0.0587200
  H        0.4311260    -2.1548100    -0.0413950
  H        0.4102460     2.1495350    -0.1499850
  H        2.9234210    -2.1387710     0.0978390
  H        2.9045270     2.1643280    -0.0189110
  H        4.1513520     0.0202670     0.1091490
  H       -2.3021640     0.6943620     1.6969290
units angstrom
no_reorient  #important for SAPT in psi4, default
symmetry c1  #important for SAPT in psi4, default
}

set PROPERTIES_ORIGIN ["COM"]
properties('MP2/aug-cc-pvtz', properties = ['dipole'])
--------------------------------------------------------------------------

    Molecular point group: c1
  Charge       = 0
  Multiplicity = 1
  Basis Set: AUG-CC-PVTZ
    Blend: AUG-CC-PVTZ
  Basis Set: (AUG-CC-PVTZ AUX)
    Blend: AUG-CC-PVTZ-JKFIT

    Orbital Energies [Eh]
    ---------------------

    Doubly Occupied:

       1A    -92.234549     2A    -20.636397     3A    -20.570772
       4A    -20.569561     5A    -11.287023     6A    -11.273568
       7A    -11.273387     8A    -11.269859     9A    -11.262945
      10A    -11.262685    11A     -9.197333    12A     -6.882957
      13A     -6.881773    14A     -6.881362    15A     -1.499049
      16A     -1.386661    17A     -1.360399    18A     -1.185872
      19A     -1.064212    20A     -1.046142    21A     -0.927305
      22A     -0.858719    23A     -0.832131    24A     -0.758731
      25A     -0.738206    26A     -0.696536    27A     -0.685462
      28A     -0.659317    29A     -0.644732    30A     -0.631269
      31A     -0.618737    32A     -0.583351    33A     -0.550644
      34A     -0.538318    35A     -0.526125    36A     -0.521951
      37A     -0.512419    38A     -0.492051    39A     -0.480047
      40A     -0.373534    41A     -0.364256

  @DF-RHF Final Energy:  -852.95472410521268

   => Energetics <=

    Nuclear Repulsion Energy =            634.7972632892231104
    One-Electron Energy =               -2431.4632792972552124
    Two-Electron Energy =                 943.7112919028194256
    Total Energy =                       -852.9547241052126765
  Basis Set: (AUG-CC-PVTZ AUX)
    Blend: AUG-CC-PVTZ-RI
    Molecular point group: c1

    Geometry (in Angstrom), charge = 0, multiplicity = 1:

       Center              X                  Y                   Z               Mass
    ------------   -----------------  -----------------  -----------------  -----------------
         S           -1.422790655006    -0.012735484816    -0.126348309340    31.972071174400
         O           -1.796315655006    -0.134926484816     1.470339690660    15.994914619570
         O           -1.802885155006     1.329212115184    -0.566560909340    15.994914619570
         O           -1.853268655006    -1.248905484816    -0.758793309340    15.994914619570
         C            0.344821344994    -0.000548484816    -0.066575309340    12.000000000000
         C            1.025987344994    -1.217922484816    -0.005414309340    12.000000000000
         C            1.014575344994     1.224112515184    -0.065436309340    12.000000000000
         C            2.418834344994    -1.199568484816     0.063656690660    12.000000000000
         C            2.408346344994     1.222378515184    -0.000668309340    12.000000000000
         C            3.108693344994     0.015747515184     0.069930690660    12.000000000000
         H            0.474302344994    -2.153194484816    -0.030184309340     1.007825032230
         H            0.453422344994     2.151150515184    -0.138774309340     1.007825032230
         H            2.966597344994    -2.137155484816     0.109049690660     1.007825032230
         H            2.947703344994     2.165943515184    -0.007700309340     1.007825032230
         H            4.194528344994     0.021882515184     0.120359690660     1.007825032230
         H           -2.258987655006     0.695977515184     1.708139690660     1.007825032230

  Basis Set: AUG-CC-PVTZ
    Blend: AUG-CC-PVTZ
  Basis Set: (AUG-CC-PVTZ AUX)
    Blend: AUG-CC-PVTZ-JKFIT
	 Reference Energy          =    -852.9547241052126765 [Eh]
	 Singles Energy            =      -0.0000000000000000 [Eh]
	 Same-Spin Energy          =      -0.5330857467913495 [Eh]
	 Opposite-Spin Energy      =      -1.5546293990866147 [Eh]
	 Correlation Energy        =      -2.0877151458779641 [Eh]
	 Total Energy              =    -855.0424392510906273 [Eh]

	 ================> DF-SCS-MP2 Energies <==================
	-----------------------------------------------------------
	 SCS Same-Spin Scale       =       0.3333333333333333 [-]
	 SCS Opposite-Spin Scale   =       1.2000000000000000 [-]
	 SCS Same-Spin Energy      =      -0.1776952489304498 [Eh]
	 SCS Opposite-Spin Energy  =      -1.8655552789039376 [Eh]
	 SCS Correlation Energy    =      -2.0432505278343873 [Eh]
	 SCS Total Energy          =    -854.9979746330470789 [Eh]
	-----------------------------------------------------------

  Dipole Moment: [D]
     X:     3.4186      Y:     1.0038      Z:     1.9828     Total:     4.0775

*** Psi4 exiting successfully. Buy a developer a beer!
