                               Psi4 1.3.2 release

  ==> Input File <==

--------------------------------------------------------------------------
#psi4
#
memory 32 gb

molecule  {
0 1
  S       -1.4659670    -0.0143510    -0.1375590
  O       -1.8394920    -0.1365420     1.4591290
  O       -1.9147674     1.3195122    -0.5356412
  O       -1.8964450    -1.2505210    -0.7700040
  C        0.3016450    -0.0021640    -0.0777860
  C        0.9828110    -1.2195380    -0.0166250
  C        0.9713990     1.2224970    -0.0766470
  C        2.3756580    -1.2011840     0.0524460
  C        2.3651700     1.2207630    -0.0118790
  C        3.0655170     0.0141320     0.0587200
  H        0.4311260    -2.1548100    -0.0413950
  H        0.4102460     2.1495350    -0.1499850
  H        2.9234210    -2.1387710     0.0978390
  H        2.9045270     2.1643280    -0.0189110
  H        4.1513520     0.0202670     0.1091490
  H       -2.3021640     0.6943620     1.6969290
units angstrom
no_reorient  #important for SAPT in psi4, default
symmetry c1  #important for SAPT in psi4, default
}

set PROPERTIES_ORIGIN ["COM"]
properties('MP2/aug-cc-pvtz', properties = ['dipole'])
--------------------------------------------------------------------------

    Molecular point group: c1
  Charge       = 0
  Multiplicity = 1
  Basis Set: AUG-CC-PVTZ
    Blend: AUG-CC-PVTZ
  Basis Set: (AUG-CC-PVTZ AUX)
    Blend: AUG-CC-PVTZ-JKFIT

    Orbital Energies [Eh]
    ---------------------

    Doubly Occupied:

       1A    -92.233934     2A    -20.630998     3A    -20.569711
       4A    -20.568604     5A    -11.290300     6A    -11.276102
       7A    -11.275751     8A    -11.271843     9A    -11.264808
      10A    -11.264553    11A     -9.196744    12A     -6.882389
      13A     -6.881127    14A     -6.880811    15A     -1.497987
      16A     -1.382573    17A     -1.358887    18A     -1.188178
      19A     -1.066670    20A     -1.048197    21A     -0.928106
      22A     -0.860785    23A     -0.832050    24A     -0.758846
      25A     -0.735929    26A     -0.696940    27A     -0.685086
      28A     -0.660638    29A     -0.646378    30A     -0.630491
      31A     -0.620564    32A     -0.580155    33A     -0.552253
      34A     -0.538218    35A     -0.528085    36A     -0.520793
      37A     -0.511575    38A     -0.491227    39A     -0.481487
      40A     -0.375774    41A     -0.366162

  @DF-RHF Final Energy:  -852.95637827487974

   => Energetics <=

    Nuclear Repulsion Energy =            634.3818037216454968
    One-Electron Energy =               -2430.6129460550100703
    Two-Electron Energy =                 943.2747640584847204
    Total Energy =                       -852.9563782748797394
  Basis Set: (AUG-CC-PVTZ AUX)
    Blend: AUG-CC-PVTZ-RI
    Molecular point group: c1

    Geometry (in Angstrom), charge = 0, multiplicity = 1:

       Center              X                  Y                   Z               Mass
    ------------   -----------------  -----------------  -----------------  -----------------
         S           -1.415835472623    -0.011917091105    -0.130613221318    31.972071174400
         O           -1.789360472623    -0.134108091105     1.466074778682    15.994914619570
         O           -1.864635872623     1.321946108895    -0.528695421318    15.994914619570
         O           -1.846313472623    -1.248087091105    -0.763058221318    15.994914619570
         C            0.351776527377     0.000269908895    -0.070840221318    12.000000000000
         C            1.032942527377    -1.217104091105    -0.009679221318    12.000000000000
         C            1.021530527377     1.224930908895    -0.069701221318    12.000000000000
         C            2.425789527377    -1.198750091105     0.059391778682    12.000000000000
         C            2.415301527377     1.223196908895    -0.004933221318    12.000000000000
         C            3.115648527377     0.016565908895     0.065665778682    12.000000000000
         H            0.481257527377    -2.152376091105    -0.034449221318     1.007825032230
         H            0.460377527377     2.151968908895    -0.143039221318     1.007825032230
         H            2.973552527377    -2.136337091105     0.104784778682     1.007825032230
         H            2.954658527377     2.166761908895    -0.011965221318     1.007825032230
         H            4.201483527377     0.022700908895     0.116094778682     1.007825032230
         H           -2.252032472623     0.696795908895     1.703874778682     1.007825032230

  Basis Set: AUG-CC-PVTZ
    Blend: AUG-CC-PVTZ
  Basis Set: (AUG-CC-PVTZ AUX)
    Blend: AUG-CC-PVTZ-JKFIT
	 Reference Energy          =    -852.9563782748797394 [Eh]
	 Singles Energy            =      -0.0000000000000000 [Eh]
	 Same-Spin Energy          =      -0.5328410757399329 [Eh]
	 Opposite-Spin Energy      =      -1.5541365723506599 [Eh]
	 Correlation Energy        =      -2.0869776480905928 [Eh]
	 Total Energy              =    -855.0433559229703633 [Eh]

	 ================> DF-SCS-MP2 Energies <==================
	-----------------------------------------------------------
	 SCS Same-Spin Scale       =       0.3333333333333333 [-]
	 SCS Opposite-Spin Scale   =       1.2000000000000000 [-]
	 SCS Same-Spin Energy      =      -0.1776136919133109 [Eh]
	 SCS Opposite-Spin Energy  =      -1.8649638868207918 [Eh]
	 SCS Correlation Energy    =      -2.0425775787341029 [Eh]
	 SCS Total Energy          =    -854.9989558536138929 [Eh]
	-----------------------------------------------------------

  Dipole Moment: [D]
     X:     3.6829      Y:     0.9951      Z:     1.8761     Total:     4.2513

*** Psi4 exiting successfully. Buy a developer a beer!
