                               Psi4 1.3.2 release

  ==> Input File <==

--------------------------------------------------------------------------
#psi4
#
memory 32 gb

molecule  {
0 1
  S       -1.4659670    -0.0143510    -0.1375590
  O       -1.7675358    -0.2928334     1.4547249
  O       -1.9435910     1.2980210    -0.5718830
  O       -1.8964450    -1.2505210    -0.7700040
  C        0.3016450    -0.0021640    -0.0777860
  C        0.9828110    -1.2195380    -0.0166250
  C        0.9713990     1.2224970    -0.0766470
  C        2.3756580    -1.2011840     0.0524460
  C        2.3651700     1.2207630    -0.0118790
  C        3.0655170     0.0141320     0.0587200
  H        0.4311260    -2.1548100    -0.0413950
  H        0.4102460     2.1495350    -0.1499850
  H        2.9234210    -2.1387710     0.0978390
  H        2.9045270     2.1643280    -0.0189110
  H        4.1513520     0.0202670     0.1091490
  H       -2.3021640     0.6943620     1.6969290
units angstrom
no_reorient  #important for SAPT in psi4, default
symmetry c1  #important for SAPT in psi4, default
}

set PROPERTIES_ORIGIN ["COM"]
properties('MP2/aug-cc-pvtz', properties = ['dipole'])
--------------------------------------------------------------------------

    Molecular point group: c1
  Charge       = 0
  Multiplicity = 1
  Basis Set: AUG-CC-PVTZ
    Blend: AUG-CC-PVTZ
  Basis Set: (AUG-CC-PVTZ AUX)
    Blend: AUG-CC-PVTZ-JKFIT

    Orbital Energies [Eh]
    ---------------------

    Doubly Occupied:

       1A    -92.231113     2A    -20.648210     3A    -20.579251
       4A    -20.557221     5A    -11.288580     6A    -11.274772
       7A    -11.273802     8A    -11.270113     9A    -11.263846
      10A    -11.263538    11A     -9.194419    12A     -6.880007
      13A     -6.878763    14A     -6.878465    15A     -1.492749
      16A     -1.369024    17A     -1.353850    18A     -1.186719
      19A     -1.064632    20A     -1.046941    21A     -0.919997
      22A     -0.859590    23A     -0.821662    24A     -0.749293
      25A     -0.719351    26A     -0.696854    27A     -0.682494
      28A     -0.657021    29A     -0.645386    30A     -0.624200
      31A     -0.619237    32A     -0.581216    33A     -0.552519
      34A     -0.536133    35A     -0.527126    36A     -0.522987
      37A     -0.507837    38A     -0.485717    39A     -0.479248
      40A     -0.373581    41A     -0.365038

  @DF-RHF Final Energy:  -852.92441917914732

   => Energetics <=

    Nuclear Repulsion Energy =            634.0113212686424049
    One-Electron Energy =               -2430.0264822066969828
    Two-Electron Energy =                 943.0907417589072566
    Total Energy =                       -852.9244191791473213
  Basis Set: (AUG-CC-PVTZ AUX)
    Blend: AUG-CC-PVTZ-RI
    Molecular point group: c1

    Geometry (in Angstrom), charge = 0, multiplicity = 1:

       Center              X                  Y                   Z               Mass
    ------------   -----------------  -----------------  -----------------  -----------------
         S           -1.420201838534     0.006080059177    -0.126498587093    31.972071174400
         O           -1.721770638534    -0.272402340823     1.465785312907    15.994914619570
         O           -1.897825838534     1.318452059177    -0.560822587093    15.994914619570
         O           -1.850679838534    -1.230089940823    -0.758943587093    15.994914619570
         C            0.347410161466     0.018267059177    -0.066725587093    12.000000000000
         C            1.028576161466    -1.199106940823    -0.005564587093    12.000000000000
         C            1.017164161466     1.242928059177    -0.065586587093    12.000000000000
         C            2.421423161466    -1.180752940823     0.063506412907    12.000000000000
         C            2.410935161466     1.241194059177    -0.000818587093    12.000000000000
         C            3.111282161466     0.034563059177     0.069780412907    12.000000000000
         H            0.476891161466    -2.134378940823    -0.030334587093     1.007825032230
         H            0.456011161466     2.169966059177    -0.138924587093     1.007825032230
         H            2.969186161466    -2.118339940823     0.108899412907     1.007825032230
         H            2.950292161466     2.184759059177    -0.007850587093     1.007825032230
         H            4.197117161466     0.040698059177     0.120209412907     1.007825032230
         H           -2.256398838534     0.714793059177     1.707989412907     1.007825032230

  Basis Set: AUG-CC-PVTZ
    Blend: AUG-CC-PVTZ
  Basis Set: (AUG-CC-PVTZ AUX)
    Blend: AUG-CC-PVTZ-JKFIT
	 Reference Energy          =    -852.9244191791473213 [Eh]
	 Singles Energy            =      -0.0000000000000000 [Eh]
	 Same-Spin Energy          =      -0.5358288537875480 [Eh]
	 Opposite-Spin Energy      =      -1.5611191475636512 [Eh]
	 Correlation Energy        =      -2.0969480013511994 [Eh]
	 Total Energy              =    -855.0213671804984870 [Eh]

	 ================> DF-SCS-MP2 Energies <==================
	-----------------------------------------------------------
	 SCS Same-Spin Scale       =       0.3333333333333333 [-]
	 SCS Opposite-Spin Scale   =       1.2000000000000000 [-]
	 SCS Same-Spin Energy      =      -0.1786096179291826 [Eh]
	 SCS Opposite-Spin Energy  =      -1.8733429770763814 [Eh]
	 SCS Correlation Energy    =      -2.0519525950055639 [Eh]
	 SCS Total Energy          =    -854.9763717741528808 [Eh]
	-----------------------------------------------------------

  Dipole Moment: [D]
     X:     3.5044      Y:     1.3240      Z:     2.0822     Total:     4.2859

*** Psi4 exiting successfully. Buy a developer a beer!
