                               Psi4 1.3.2 release

  ==> Input File <==

--------------------------------------------------------------------------
#psi4
#
memory 32 gb

molecule  {
0 1
  S       -1.4659670    -0.0143510    -0.1375590
  O       -1.8626057    -0.0840622     1.4567064
  O       -1.9435910     1.2980210    -0.5718830
  O       -1.8964450    -1.2505210    -0.7700040
  C        0.3016450    -0.0021640    -0.0777860
  C        0.9828110    -1.2195380    -0.0166250
  C        0.9713990     1.2224970    -0.0766470
  C        2.3756580    -1.2011840     0.0524460
  C        2.3651700     1.2207630    -0.0118790
  C        3.0655170     0.0141320     0.0587200
  H        0.4311260    -2.1548100    -0.0413950
  H        0.4102460     2.1495350    -0.1499850
  H        2.9234210    -2.1387710     0.0978390
  H        2.9045270     2.1643280    -0.0189110
  H        4.1513520     0.0202670     0.1091490
  H       -2.3021640     0.6943620     1.6969290
units angstrom
no_reorient  #important for SAPT in psi4, default
symmetry c1  #important for SAPT in psi4, default
}

set PROPERTIES_ORIGIN ["COM"]
properties('MP2/aug-cc-pvtz', properties = ['dipole'])
--------------------------------------------------------------------------

    Molecular point group: c1
  Charge       = 0
  Multiplicity = 1
  Basis Set: AUG-CC-PVTZ
    Blend: AUG-CC-PVTZ
  Basis Set: (AUG-CC-PVTZ AUX)
    Blend: AUG-CC-PVTZ-JKFIT

    Orbital Energies [Eh]
    ---------------------

    Doubly Occupied:

       1A    -92.234478     2A    -20.625672     3A    -20.568097
       4A    -20.565935     5A    -11.292670     6A    -11.277991
       7A    -11.277539     8A    -11.273380     9A    -11.266181
      10A    -11.265875    11A     -9.197144    12A     -6.882814
      13A     -6.881480    14A     -6.881239    15A     -1.500107
      16A     -1.391434    17A     -1.355339    18A     -1.189894
      19A     -1.068814    20A     -1.049713    21A     -0.933614
      22A     -0.862303    23A     -0.838736    24A     -0.765760
      25A     -0.737632    26A     -0.697389    27A     -0.684943
      28A     -0.661656    29A     -0.647575    30A     -0.629806
      31A     -0.621891    32A     -0.581048    33A     -0.553441
      34A     -0.539364    35A     -0.529556    36A     -0.520797
      37A     -0.509663    38A     -0.489784    39A     -0.481762
      40A     -0.377567    41A     -0.367549

  @DF-RHF Final Energy:  -852.95752774443190

   => Energetics <=

    Nuclear Repulsion Energy =            634.1759983278877826
    One-Electron Energy =               -2430.1117946709814532
    Two-Electron Energy =                 942.9782685986617707
    Total Energy =                       -852.9575277444318999
  Basis Set: (AUG-CC-PVTZ AUX)
    Blend: AUG-CC-PVTZ-RI
    Molecular point group: c1

    Geometry (in Angstrom), charge = 0, multiplicity = 1:

       Center              X                  Y                   Z               Mass
    ------------   -----------------  -----------------  -----------------  -----------------
         S           -1.410577796150    -0.015054105026    -0.126699176764    31.972071174400
         O           -1.807216496150    -0.084765305026     1.467566223236    15.994914619570
         O           -1.888201796150     1.297317894974    -0.561023176764    15.994914619570
         O           -1.841055796150    -1.251224105026    -0.759144176764    15.994914619570
         C            0.357034203850    -0.002867105026    -0.066926176764    12.000000000000
         C            1.038200203850    -1.220241105026    -0.005765176764    12.000000000000
         C            1.026788203850     1.221793894974    -0.065787176764    12.000000000000
         C            2.431047203850    -1.201887105026     0.063305823236    12.000000000000
         C            2.420559203850     1.220059894974    -0.001019176764    12.000000000000
         C            3.120906203850     0.013428894974     0.069579823236    12.000000000000
         H            0.486515203850    -2.155513105026    -0.030535176764     1.007825032230
         H            0.465635203850     2.148831894974    -0.139125176764     1.007825032230
         H            2.978810203850    -2.139474105026     0.108698823236     1.007825032230
         H            2.959916203850     2.163624894974    -0.008051176764     1.007825032230
         H            4.206741203850     0.019563894974     0.120008823236     1.007825032230
         H           -2.246774796150     0.693658894974     1.707788823236     1.007825032230

  Basis Set: AUG-CC-PVTZ
    Blend: AUG-CC-PVTZ
  Basis Set: (AUG-CC-PVTZ AUX)
    Blend: AUG-CC-PVTZ-JKFIT
	 Reference Energy          =    -852.9575277444318999 [Eh]
	 Singles Energy            =      -0.0000000000000000 [Eh]
	 Same-Spin Energy          =      -0.5317974944723047 [Eh]
	 Opposite-Spin Energy      =      -1.5519594142029995 [Eh]
	 Correlation Energy        =      -2.0837569086753041 [Eh]
	 Total Energy              =    -855.0412846531072546 [Eh]

	 ================> DF-SCS-MP2 Energies <==================
	-----------------------------------------------------------
	 SCS Same-Spin Scale       =       0.3333333333333333 [-]
	 SCS Opposite-Spin Scale   =       1.2000000000000000 [-]
	 SCS Same-Spin Energy      =      -0.1772658314907682 [Eh]
	 SCS Opposite-Spin Energy  =      -1.8623512970435994 [Eh]
	 SCS Correlation Energy    =      -2.0396171285343678 [Eh]
	 SCS Total Energy          =    -854.9971448729662598 [Eh]
	-----------------------------------------------------------

  Dipole Moment: [D]
     X:     3.8746      Y:     0.9455      Z:     1.9212     Total:     4.4269

*** Psi4 exiting successfully. Buy a developer a beer!
