                               Psi4 1.4a3.dev225

  ==> Input File <==

--------------------------------------------------------------------------
#psi4
#
memory 32 gb

molecule  {
0 1
  S       -1.4659490    -0.0144420    -0.1375240
  O       -1.8389560    -0.1357530     1.4593660
  O       -1.9437900     1.2976660    -0.5724050
  O       -1.8964760    -1.2508500    -0.7695120
  C        0.3016350    -0.0022080    -0.0778240
  C        0.9828550    -1.2195450    -0.0166360
  C        0.9713380     1.2224880    -0.0767040
  C        2.3757070    -1.2011200     0.0524330
  C        2.3651070     1.2208170    -0.0119400
  C        3.0655130     0.0142220     0.0587080
  H        0.4312050    -2.1548360    -0.0414070
  H        0.4101370     2.1494950    -0.1500750
  H        2.9234940    -2.1386920     0.0978740
  H        2.9044060     2.1644160    -0.0189600
  H        4.1513480     0.0204100     0.1091410
  H       -2.3140570     0.7107843     1.7008154
units angstrom
no_reorient  #important for SAPT in psi4, default
symmetry c1  #important for SAPT in psi4, default
}

set PROPERTIES_ORIGIN ["COM"]
properties('MP2/aug-cc-pvtz', properties = ['dipole'])
--------------------------------------------------------------------------

    Molecular point group: c1
  Charge       = 0
  Multiplicity = 1
  Basis Set: AUG-CC-PVTZ
    Blend: AUG-CC-PVTZ
  Basis Set: (AUG-CC-PVTZ AUX)
    Blend: AUG-CC-PVTZ-JKFIT

    Orbital Energies [Eh]
    ---------------------

    Doubly Occupied:

       1A    -92.232907     2A    -20.633930     3A    -20.569087
       4A    -20.564936     5A    -11.291346     6A    -11.276965
       7A    -11.276364     8A    -11.272358     9A    -11.265426
      10A    -11.265106    11A     -9.195797    12A     -6.881415
      13A     -6.880146    14A     -6.879894    15A     -1.495943
      16A     -1.380127    17A     -1.355816    18A     -1.188865
      19A     -1.067355    20A     -1.048817    21A     -0.927639
      22A     -0.861404    23A     -0.831137    24A     -0.757783
      25A     -0.733812    26A     -0.697064    27A     -0.683930
      28A     -0.660507    29A     -0.646793    30A     -0.628640
      31A     -0.621053    32A     -0.580298    33A     -0.552910
      34A     -0.538058    35A     -0.528710    36A     -0.520632
      37A     -0.509049    38A     -0.488855    39A     -0.481379
      40A     -0.376337    41A     -0.366742

  @DF-RHF Final Energy:  -852.95552423821778

   => Energetics <=

    Nuclear Repulsion Energy =            633.9346790312569055
    One-Electron Energy =               -2429.7497364912210287
    Two-Electron Energy =                 942.8595332217462328
    Total Energy =                       -852.9555242382177767
  Basis Set: (AUG-CC-PVTZ AUX)
    Blend: AUG-CC-PVTZ-RI
    Molecular point group: c1

    Geometry (in Angstrom), charge = 0, multiplicity = 1:

       Center              X                  Y                   Z               Mass
    ------------   -----------------  -----------------  -----------------  -----------------
         S           -1.412854443331    -0.009942272061    -0.126946873134    31.972071174400
         O           -1.785861443331    -0.131253272061     1.469943126866    15.994914619570
         O           -1.890695443331     1.302165727939    -0.561827873134    15.994914619570
         O           -1.843381443331    -1.246350272061    -0.758934873134    15.994914619570
         C            0.354729556669     0.002291727939    -0.067246873134    12.000000000000
         C            1.035949556669    -1.215045272061    -0.006058873134    12.000000000000
         C            1.024432556669     1.226987727939    -0.066126873134    12.000000000000
         C            2.428801556669    -1.196620272061     0.063010126866    12.000000000000
         C            2.418201556669     1.225316727939    -0.001362873134    12.000000000000
         C            3.118607556669     0.018721727939     0.069285126866    12.000000000000
         H            0.484299556669    -2.150336272061    -0.030829873134     1.007825032230
         H            0.463231556669     2.153994727939    -0.139497873134     1.007825032230
         H            2.976588556669    -2.134192272061     0.108451126866     1.007825032230
         H            2.957500556669     2.168915727939    -0.008382873134     1.007825032230
         H            4.204442556669     0.024909727939     0.119718126866     1.007825032230
         H           -2.260962443331     0.715284027939     1.711392526866     1.007825032230

  Basis Set: AUG-CC-PVTZ
    Blend: AUG-CC-PVTZ
  Basis Set: (AUG-CC-PVTZ AUX)
    Blend: AUG-CC-PVTZ-JKFIT
	 Reference Energy          =    -852.9555242382177767 [Eh]
	 Singles Energy            =      -0.0000000000000000 [Eh]
	 Same-Spin Energy          =      -0.5329626974320708 [Eh]
	 Opposite-Spin Energy      =      -1.5544995660225842 [Eh]
	 Correlation Energy        =      -2.0874622634546549 [Eh]
	 Total Energy              =    -855.0429865016724307 [Eh]

	 ================> DF-SCS-MP2 Energies <==================
	-----------------------------------------------------------
	 SCS Same-Spin Scale       =       0.3333333333333333 [-]
	 SCS Opposite-Spin Scale   =       1.2000000000000000 [-]
	 SCS Same-Spin Energy      =      -0.1776542324773569 [Eh]
	 SCS Opposite-Spin Energy  =      -1.8653994792271009 [Eh]
	 SCS Correlation Energy    =      -2.0430537117044580 [Eh]
	 SCS Total Energy          =    -854.9985779499222645 [Eh]
	-----------------------------------------------------------

  Dipole Moment: [D]
     X:     3.7498      Y:     1.0686      Z:     1.9842     Total:     4.3749

*** Psi4 exiting successfully. Buy a developer a beer!
