                               Psi4 1.3.2 release

  ==> Input File <==

--------------------------------------------------------------------------
#psi4
#
memory 32 gb

molecule  {
0 1
  S       -1.4659670    -0.0143510    -0.1375590
  O       -1.8951484    -0.1360241     1.4451169
  O       -1.9435910     1.2980210    -0.5718830
  O       -1.8964450    -1.2505210    -0.7700040
  C        0.3016450    -0.0021640    -0.0777860
  C        0.9828110    -1.2195380    -0.0166250
  C        0.9713990     1.2224970    -0.0766470
  C        2.3756580    -1.2011840     0.0524460
  C        2.3651700     1.2207630    -0.0118790
  C        3.0655170     0.0141320     0.0587200
  H        0.4311260    -2.1548100    -0.0413950
  H        0.4102460     2.1495350    -0.1499850
  H        2.9234210    -2.1387710     0.0978390
  H        2.9045270     2.1643280    -0.0189110
  H        4.1513520     0.0202670     0.1091490
  H       -2.3021640     0.6943620     1.6969290
units angstrom
no_reorient  #important for SAPT in psi4, default
symmetry c1  #important for SAPT in psi4, default
}

set PROPERTIES_ORIGIN ["COM"]
properties('MP2/aug-cc-pvtz', properties = ['dipole'])
--------------------------------------------------------------------------

    Molecular point group: c1
  Charge       = 0
  Multiplicity = 1
  Basis Set: AUG-CC-PVTZ
    Blend: AUG-CC-PVTZ
  Basis Set: (AUG-CC-PVTZ AUX)
    Blend: AUG-CC-PVTZ-JKFIT

    Orbital Energies [Eh]
    ---------------------

    Doubly Occupied:

       1A    -92.233197     2A    -20.629527     3A    -20.567465
       4A    -20.564072     5A    -11.293174     6A    -11.278583
       7A    -11.277969     8A    -11.273911     9A    -11.266568
      10A    -11.266250    11A     -9.195985    12A     -6.881622
      13A     -6.880336    14A     -6.880085    15A     -1.497814
      16A     -1.385040    17A     -1.354963    18A     -1.190309
      19A     -1.068857    20A     -1.050148    21A     -0.930251
      22A     -0.862703    23A     -0.835591    24A     -0.763630
      25A     -0.735498    26A     -0.697327    27A     -0.683849
      28A     -0.662170    29A     -0.647950    30A     -0.628324
      31A     -0.622292    32A     -0.580455    33A     -0.553225
      34A     -0.539094    35A     -0.529949    36A     -0.519964
      37A     -0.508795    38A     -0.488609    39A     -0.481858
      40A     -0.378068    41A     -0.367951

  @DF-RHF Final Energy:  -852.95832522601472

   => Energetics <=

    Nuclear Repulsion Energy =            633.8077029699542209
    One-Electron Energy =               -2429.4251999967536904
    Two-Electron Energy =                 942.6591718007846339
    Total Energy =                       -852.9583252260147219
  Basis Set: (AUG-CC-PVTZ AUX)
    Blend: AUG-CC-PVTZ-RI
    Molecular point group: c1

    Geometry (in Angstrom), charge = 0, multiplicity = 1:

       Center              X                  Y                   Z               Mass
    ------------   -----------------  -----------------  -----------------  -----------------
         S           -1.407283458783    -0.009793938265    -0.125525957488    31.972071174400
         O           -1.836464858783    -0.131467038265     1.457149942512    15.994914619570
         O           -1.884907458783     1.302578061735    -0.559849957488    15.994914619570
         O           -1.837761458783    -1.245963938265    -0.757970957488    15.994914619570
         C            0.360328541217     0.002393061735    -0.065752957488    12.000000000000
         C            1.041494541217    -1.214980938265    -0.004591957488    12.000000000000
         C            1.030082541217     1.227054061735    -0.064613957488    12.000000000000
         C            2.434341541217    -1.196626938265     0.064479042512    12.000000000000
         C            2.423853541217     1.225320061735     0.000154042512    12.000000000000
         C            3.124200541217     0.018689061735     0.070753042512    12.000000000000
         H            0.489809541217    -2.150252938265    -0.029361957488     1.007825032230
         H            0.468929541217     2.154092061735    -0.137951957488     1.007825032230
         H            2.982104541217    -2.134213938265     0.109872042512     1.007825032230
         H            2.963210541217     2.168885061735    -0.006877957488     1.007825032230
         H            4.210035541217     0.024824061735     0.121182042512     1.007825032230
         H           -2.243480458783     0.698919061735     1.708962042512     1.007825032230

  Basis Set: AUG-CC-PVTZ
    Blend: AUG-CC-PVTZ
  Basis Set: (AUG-CC-PVTZ AUX)
    Blend: AUG-CC-PVTZ-JKFIT
	 Reference Energy          =    -852.9583252260147219 [Eh]
	 Singles Energy            =      -0.0000000000000000 [Eh]
	 Same-Spin Energy          =      -0.5322561930819063 [Eh]
	 Opposite-Spin Energy      =      -1.5529408767402457 [Eh]
	 Correlation Energy        =      -2.0851970698221520 [Eh]
	 Total Energy              =    -855.0435222958368513 [Eh]

	 ================> DF-SCS-MP2 Energies <==================
	-----------------------------------------------------------
	 SCS Same-Spin Scale       =       0.3333333333333333 [-]
	 SCS Opposite-Spin Scale   =       1.2000000000000000 [-]
	 SCS Same-Spin Energy      =      -0.1774187310273021 [Eh]
	 SCS Opposite-Spin Energy  =      -1.8635290520882948 [Eh]
	 SCS Correlation Energy    =      -2.0409477831155969 [Eh]
	 SCS Total Energy          =    -854.9992730091303201 [Eh]
	-----------------------------------------------------------

  Dipole Moment: [D]
     X:     3.9579      Y:     1.0508      Z:     1.9772     Total:     4.5473

*** Psi4 exiting successfully. Buy a developer a beer!
