                               Psi4 1.3.2 release

  ==> Input File <==

--------------------------------------------------------------------------
#psi4
#
memory 32 gb

molecule  {
0 1
  S       -1.4659670    -0.0143510    -0.1375590
  O       -2.0048254    -0.1345445     1.4113275
  O       -1.9435910     1.2980210    -0.5718830
  O       -1.8964450    -1.2505210    -0.7700040
  C        0.3016450    -0.0021640    -0.0777860
  C        0.9828110    -1.2195380    -0.0166250
  C        0.9713990     1.2224970    -0.0766470
  C        2.3756580    -1.2011840     0.0524460
  C        2.3651700     1.2207630    -0.0118790
  C        3.0655170     0.0141320     0.0587200
  H        0.4311260    -2.1548100    -0.0413950
  H        0.4102460     2.1495350    -0.1499850
  H        2.9234210    -2.1387710     0.0978390
  H        2.9045270     2.1643280    -0.0189110
  H        4.1513520     0.0202670     0.1091490
  H       -2.3021640     0.6943620     1.6969290
units angstrom
no_reorient  #important for SAPT in psi4, default
symmetry c1  #important for SAPT in psi4, default
}

set PROPERTIES_ORIGIN ["COM"]
properties('MP2/aug-cc-pvtz', properties = ['dipole'])
--------------------------------------------------------------------------

    Molecular point group: c1
  Charge       = 0
  Multiplicity = 1
  Basis Set: AUG-CC-PVTZ
    Blend: AUG-CC-PVTZ
  Basis Set: (AUG-CC-PVTZ AUX)
    Blend: AUG-CC-PVTZ-JKFIT

    Orbital Energies [Eh]
    ---------------------

    Doubly Occupied:

       1A    -92.232734     2A    -20.624136     3A    -20.563508
       4A    -20.561706     5A    -11.296381     6A    -11.281325
       7A    -11.280685     8A    -11.276576     9A    -11.268503
      10A    -11.268179    11A     -9.195382    12A     -6.881052
      13A     -6.879736    14A     -6.879477    15A     -1.498416
      16A     -1.386640    17A     -1.352593    18A     -1.192712
      19A     -1.071074    20A     -1.052401    21A     -0.932177
      22A     -0.864877    23A     -0.841170    24A     -0.770898
      25A     -0.734186    26A     -0.696566    27A     -0.682659
      28A     -0.664110    29A     -0.649871    30A     -0.625744
      31A     -0.624283    32A     -0.579585    33A     -0.553174
      34A     -0.540343    35A     -0.532046    36A     -0.518025
      37A     -0.507072    38A     -0.487173    39A     -0.481491
      40A     -0.380909    41A     -0.369998

  @DF-RHF Final Energy:  -852.95697075884186

   => Energetics <=

    Nuclear Repulsion Energy =            633.3256447847383015
    One-Electron Energy =               -2428.4060882119097187
    Two-Electron Energy =                 942.1234726683294411
    Total Energy =                       -852.9569707588418623
  Basis Set: (AUG-CC-PVTZ AUX)
    Blend: AUG-CC-PVTZ-RI
    Molecular point group: c1

    Geometry (in Angstrom), charge = 0, multiplicity = 1:

       Center              X                  Y                   Z               Mass
    ------------   -----------------  -----------------  -----------------  -----------------
         S           -1.396180721780    -0.009943719985    -0.122105415153    31.972071174400
         O           -1.935039121780    -0.130137219985     1.426781084847    15.994914619570
         O           -1.873804721780     1.302428280015    -0.556429415153    15.994914619570
         O           -1.826658721780    -1.246113719985    -0.754550415153    15.994914619570
         C            0.371431278220     0.002243280015    -0.062332415153    12.000000000000
         C            1.052597278220    -1.215130719985    -0.001171415153    12.000000000000
         C            1.041185278220     1.226904280015    -0.061193415153    12.000000000000
         C            2.445444278220    -1.196776719985     0.067899584847    12.000000000000
         C            2.434956278220     1.225170280015     0.003574584847    12.000000000000
         C            3.135303278220     0.018539280015     0.074173584847    12.000000000000
         H            0.500912278220    -2.150402719985    -0.025941415153     1.007825032230
         H            0.480032278220     2.153942280015    -0.134531415153     1.007825032230
         H            2.993207278220    -2.134363719985     0.113292584847     1.007825032230
         H            2.974313278220     2.168735280015    -0.003457415153     1.007825032230
         H            4.221138278220     0.024674280015     0.124602584847     1.007825032230
         H           -2.232377721780     0.698769280015     1.712382584847     1.007825032230

  Basis Set: AUG-CC-PVTZ
    Blend: AUG-CC-PVTZ
  Basis Set: (AUG-CC-PVTZ AUX)
    Blend: AUG-CC-PVTZ-JKFIT
	 Reference Energy          =    -852.9569707588418623 [Eh]
	 Singles Energy            =      -0.0000000000000000 [Eh]
	 Same-Spin Energy          =      -0.5316428955104318 [Eh]
	 Opposite-Spin Energy      =      -1.5516099354560229 [Eh]
	 Correlation Energy        =      -2.0832528309664546 [Eh]
	 Total Energy              =    -855.0402235898083063 [Eh]

	 ================> DF-SCS-MP2 Energies <==================
	-----------------------------------------------------------
	 SCS Same-Spin Scale       =       0.3333333333333333 [-]
	 SCS Opposite-Spin Scale   =       1.2000000000000000 [-]
	 SCS Same-Spin Energy      =      -0.1772142985034773 [Eh]
	 SCS Opposite-Spin Energy  =      -1.8619319225472273 [Eh]
	 SCS Correlation Energy    =      -2.0391462210507045 [Eh]
	 SCS Total Energy          =    -854.9961169798925766 [Eh]
	-----------------------------------------------------------

  Dipole Moment: [D]
     X:     4.3182      Y:     1.0521      Z:     2.0164     Total:     4.8806

*** Psi4 exiting successfully. Buy a developer a beer!
