                               Psi4 1.3.2 release

  ==> Input File <==

--------------------------------------------------------------------------
#psi4
#
memory 32 gb

molecule  {
0 1
  S       -1.4655178    -0.0452009    -0.1365812
  O       -1.8394920    -0.1365420     1.4591290
  O       -1.9435910     1.2980210    -0.5718830
  O       -1.8964450    -1.2505210    -0.7700040
  C        0.3016450    -0.0021640    -0.0777860
  C        0.9828110    -1.2195380    -0.0166250
  C        0.9713990     1.2224970    -0.0766470
  C        2.3756580    -1.2011840     0.0524460
  C        2.3651700     1.2207630    -0.0118790
  C        3.0655170     0.0141320     0.0587200
  H        0.4311260    -2.1548100    -0.0413950
  H        0.4102460     2.1495350    -0.1499850
  H        2.9234210    -2.1387710     0.0978390
  H        2.9045270     2.1643280    -0.0189110
  H        4.1513520     0.0202670     0.1091490
  H       -2.3021640     0.6943620     1.6969290
units angstrom
no_reorient  #important for SAPT in psi4, default
symmetry c1  #important for SAPT in psi4, default
}

set PROPERTIES_ORIGIN ["COM"]
properties('MP2/aug-cc-pvtz', properties = ['dipole'])
--------------------------------------------------------------------------

    Molecular point group: c1
  Charge       = 0
  Multiplicity = 1
  Basis Set: AUG-CC-PVTZ
    Blend: AUG-CC-PVTZ
  Basis Set: (AUG-CC-PVTZ AUX)
    Blend: AUG-CC-PVTZ-JKFIT

    Orbital Energies [Eh]
    ---------------------

    Doubly Occupied:

       1A    -92.233006     2A    -20.632322     3A    -20.571659
       4A    -20.562184     5A    -11.291545     6A    -11.277016
       7A    -11.276637     8A    -11.272508     9A    -11.265542
      10A    -11.265259    11A     -9.196052    12A     -6.881649
      13A     -6.880350    14A     -6.880198    15A     -1.498822
      16A     -1.390059    17A     -1.347313    18A     -1.189041
      19A     -1.067702    20A     -1.048951    21A     -0.929341
      22A     -0.861513    23A     -0.833513    24A     -0.760693
      25A     -0.735610    26A     -0.696787    27A     -0.685433
      28A     -0.660393    29A     -0.646900    30A     -0.628103
      31A     -0.621164    32A     -0.582176    33A     -0.553724
      34A     -0.539063    35A     -0.528945    36A     -0.521428
      37A     -0.508986    38A     -0.487324    39A     -0.480061
      40A     -0.376572    41A     -0.366901

  @DF-RHF Final Energy:  -852.95559285802995

   => Energetics <=

    Nuclear Repulsion Energy =            634.0856166839646448
    One-Electron Energy =               -2430.0175228140710715
    Two-Electron Energy =                 942.9763132720764816
    Total Energy =                       -852.9555928580299451
  Basis Set: (AUG-CC-PVTZ AUX)
    Blend: AUG-CC-PVTZ-RI
    Molecular point group: c1

    Geometry (in Angstrom), charge = 0, multiplicity = 1:

       Center              X                  Y                   Z               Mass
    ------------   -----------------  -----------------  -----------------  -----------------
         S           -1.412559319949    -0.034348931537    -0.126164477416    31.972071174400
         O           -1.786533519949    -0.125690031537     1.469545722584    15.994914619570
         O           -1.890632519949     1.308872968463    -0.561466277416    15.994914619570
         O           -1.843486519949    -1.239669031537    -0.759587277416    15.994914619570
         C            0.354603480051     0.008687968463    -0.067369277416    12.000000000000
         C            1.035769480051    -1.208686031537    -0.006208277416    12.000000000000
         C            1.024357480051     1.233348968463    -0.066230277416    12.000000000000
         C            2.428616480051    -1.190332031537     0.062862722584    12.000000000000
         C            2.418128480051     1.231614968463    -0.001462277416    12.000000000000
         C            3.118475480051     0.024983968463     0.069136722584    12.000000000000
         H            0.484084480051    -2.143958031537    -0.030978277416     1.007825032230
         H            0.463204480051     2.160386968463    -0.139568277416     1.007825032230
         H            2.976379480051    -2.127919031537     0.108255722584     1.007825032230
         H            2.957485480051     2.175179968463    -0.008494277416     1.007825032230
         H            4.204310480051     0.031118968463     0.119565722584     1.007825032230
         H           -2.249205519949     0.705213968463     1.707345722584     1.007825032230

  Basis Set: AUG-CC-PVTZ
    Blend: AUG-CC-PVTZ
  Basis Set: (AUG-CC-PVTZ AUX)
    Blend: AUG-CC-PVTZ-JKFIT
	 Reference Energy          =    -852.9555928580299451 [Eh]
	 Singles Energy            =      -0.0000000000000000 [Eh]
	 Same-Spin Energy          =      -0.5325784003748786 [Eh]
	 Opposite-Spin Energy      =      -1.5536748676423926 [Eh]
	 Correlation Energy        =      -2.0862532680172712 [Eh]
	 Total Energy              =    -855.0418461260471759 [Eh]

	 ================> DF-SCS-MP2 Energies <==================
	-----------------------------------------------------------
	 SCS Same-Spin Scale       =       0.3333333333333333 [-]
	 SCS Opposite-Spin Scale   =       1.2000000000000000 [-]
	 SCS Same-Spin Energy      =      -0.1775261334582929 [Eh]
	 SCS Opposite-Spin Energy  =      -1.8644098411708709 [Eh]
	 SCS Correlation Energy    =      -2.0419359746291637 [Eh]
	 SCS Total Energy          =    -854.9975288326590999 [Eh]
	-----------------------------------------------------------

  Dipole Moment: [D]
     X:     3.7869      Y:     0.7758      Z:     1.9697     Total:     4.3384

*** Psi4 exiting successfully. Buy a developer a beer!
