                               Psi4 1.3.2 release

  ==> Input File <==

--------------------------------------------------------------------------
#psi4
#
memory 32 gb

molecule  {
0 1
  S       -1.4659670    -0.0143510    -0.1375590
  O       -1.8394920    -0.1365420     1.4591290
  O       -2.0387936     1.2620517    -0.5638784
  O       -1.8964450    -1.2505210    -0.7700040
  C        0.3016450    -0.0021640    -0.0777860
  C        0.9828110    -1.2195380    -0.0166250
  C        0.9713990     1.2224970    -0.0766470
  C        2.3756580    -1.2011840     0.0524460
  C        2.3651700     1.2207630    -0.0118790
  C        3.0655170     0.0141320     0.0587200
  H        0.4311260    -2.1548100    -0.0413950
  H        0.4102460     2.1495350    -0.1499850
  H        2.9234210    -2.1387710     0.0978390
  H        2.9045270     2.1643280    -0.0189110
  H        4.1513520     0.0202670     0.1091490
  H       -2.3021640     0.6943620     1.6969290
units angstrom
no_reorient  #important for SAPT in psi4, default
symmetry c1  #important for SAPT in psi4, default
}

set PROPERTIES_ORIGIN ["COM"]
properties('MP2/aug-cc-pvtz', properties = ['dipole'])
--------------------------------------------------------------------------

    Molecular point group: c1
  Charge       = 0
  Multiplicity = 1
  Basis Set: AUG-CC-PVTZ
    Blend: AUG-CC-PVTZ
  Basis Set: (AUG-CC-PVTZ AUX)
    Blend: AUG-CC-PVTZ-JKFIT

    Orbital Energies [Eh]
    ---------------------

    Doubly Occupied:

       1A    -92.231959     2A    -20.629092     3A    -20.567813
       4A    -20.560753     5A    -11.295810     6A    -11.280419
       7A    -11.279430     8A    -11.274952     9A    -11.267983
      10A    -11.267623    11A     -9.194989    12A     -6.880610
      13A     -6.879234    14A     -6.879141    15A     -1.495881
      16A     -1.380543    17A     -1.351595    18A     -1.191979
      19A     -1.070806    20A     -1.051595    21A     -0.930451
      22A     -0.864247    23A     -0.832956    24A     -0.760049
      25A     -0.733426    26A     -0.698499    27A     -0.683159
      28A     -0.662691    29A     -0.648994    30A     -0.627588
      31A     -0.623415    32A     -0.578998    33A     -0.555293
      34A     -0.538739    35A     -0.531417    36A     -0.519335
      37A     -0.506047    38A     -0.487659    39A     -0.481112
      40A     -0.379251    41A     -0.369318

  @DF-RHF Final Energy:  -852.95683714118536

   => Energetics <=

    Nuclear Repulsion Energy =            633.4494859918497696
    One-Electron Energy =               -2428.7229420157837012
    Two-Electron Energy =                 942.3166188827485712
    Total Energy =                       -852.9568371411853605
  Basis Set: (AUG-CC-PVTZ AUX)
    Blend: AUG-CC-PVTZ-RI
    Molecular point group: c1

    Geometry (in Angstrom), charge = 0, multiplicity = 1:

       Center              X                  Y                   Z               Mass
    ------------   -----------------  -----------------  -----------------  -----------------
         S           -1.403280148535    -0.006100294333    -0.127754734988    31.972071174400
         O           -1.776805148535    -0.128291294333     1.468933265012    15.994914619570
         O           -1.976106748535     1.270302405667    -0.554074134988    15.994914619570
         O           -1.833758148535    -1.242270294333    -0.760199734988    15.994914619570
         C            0.364331851465     0.006086705667    -0.067981734988    12.000000000000
         C            1.045497851465    -1.211287294333    -0.006820734988    12.000000000000
         C            1.034085851465     1.230747705667    -0.066842734988    12.000000000000
         C            2.438344851465    -1.192933294333     0.062250265012    12.000000000000
         C            2.427856851465     1.229013705667    -0.002074734988    12.000000000000
         C            3.128203851465     0.022382705667     0.068524265012    12.000000000000
         H            0.493812851465    -2.146559294333    -0.031590734988     1.007825032230
         H            0.472932851465     2.157785705667    -0.140180734988     1.007825032230
         H            2.986107851465    -2.130520294333     0.107643265012     1.007825032230
         H            2.967213851465     2.172578705667    -0.009106734988     1.007825032230
         H            4.214038851465     0.028517705667     0.118953265012     1.007825032230
         H           -2.239477148535     0.702612705667     1.706733265012     1.007825032230

  Basis Set: AUG-CC-PVTZ
    Blend: AUG-CC-PVTZ
  Basis Set: (AUG-CC-PVTZ AUX)
    Blend: AUG-CC-PVTZ-JKFIT
	 Reference Energy          =    -852.9568371411853605 [Eh]
	 Singles Energy            =      -0.0000000000000000 [Eh]
	 Same-Spin Energy          =      -0.5324710147355272 [Eh]
	 Opposite-Spin Energy      =      -1.5534864345269326 [Eh]
	 Correlation Energy        =      -2.0859574492624597 [Eh]
	 Total Energy              =    -855.0427945904477838 [Eh]

	 ================> DF-SCS-MP2 Energies <==================
	-----------------------------------------------------------
	 SCS Same-Spin Scale       =       0.3333333333333333 [-]
	 SCS Opposite-Spin Scale   =       1.2000000000000000 [-]
	 SCS Same-Spin Energy      =      -0.1774903382451757 [Eh]
	 SCS Opposite-Spin Energy  =      -1.8641837214323189 [Eh]
	 SCS Correlation Energy    =      -2.0416740596774945 [Eh]
	 SCS Total Energy          =    -854.9985112008628221 [Eh]
	-----------------------------------------------------------

  Dipole Moment: [D]
     X:     4.1124      Y:     1.1080      Z:     1.9483     Total:     4.6835

*** Psi4 exiting successfully. Buy a developer a beer!
