                               Psi4 1.3.2 release

  ==> Input File <==

--------------------------------------------------------------------------
#psi4
#
memory 32 gb

molecule  {
0 1
  S       -1.4417823    -0.0663317    -0.1348477
  O       -1.8394920    -0.1365420     1.4591290
  O       -1.9435910     1.2980210    -0.5718830
  O       -1.8964450    -1.2505210    -0.7700040
  C        0.3016450    -0.0021640    -0.0777860
  C        0.9828110    -1.2195380    -0.0166250
  C        0.9713990     1.2224970    -0.0766470
  C        2.3756580    -1.2011840     0.0524460
  C        2.3651700     1.2207630    -0.0118790
  C        3.0655170     0.0141320     0.0587200
  H        0.4311260    -2.1548100    -0.0413950
  H        0.4102460     2.1495350    -0.1499850
  H        2.9234210    -2.1387710     0.0978390
  H        2.9045270     2.1643280    -0.0189110
  H        4.1513520     0.0202670     0.1091490
  H       -2.3021640     0.6943620     1.6969290
units angstrom
no_reorient  #important for SAPT in psi4, default
symmetry c1  #important for SAPT in psi4, default
}

set PROPERTIES_ORIGIN ["COM"]
properties('MP2/aug-cc-pvtz', properties = ['dipole'])
--------------------------------------------------------------------------

    Molecular point group: c1
  Charge       = 0
  Multiplicity = 1
  Basis Set: AUG-CC-PVTZ
    Blend: AUG-CC-PVTZ
  Basis Set: (AUG-CC-PVTZ AUX)
    Blend: AUG-CC-PVTZ-JKFIT

    Orbital Energies [Eh]
    ---------------------

    Doubly Occupied:

       1A    -92.232050     2A    -20.629632     3A    -20.573890
       4A    -20.554783     5A    -11.292587     6A    -11.279798
       7A    -11.279572     8A    -11.275228     9A    -11.267371
      10A    -11.267113    11A     -9.195495    12A     -6.881019
      13A     -6.879835    14A     -6.879502    15A     -1.496835
      16A     -1.391190    17A     -1.331405    18A     -1.192181
      19A     -1.072909    20A     -1.051230    21A     -0.933442
      22A     -0.864088    23A     -0.834504    24A     -0.762860
      25A     -0.734198    26A     -0.696739    27A     -0.684850
      28A     -0.661093    29A     -0.648259    30A     -0.624736
      31A     -0.622566    32A     -0.581666    33A     -0.555339
      34A     -0.539200    35A     -0.531219    36A     -0.520974
      37A     -0.505911    38A     -0.481485    39A     -0.476293
      40A     -0.379494    41A     -0.368890

  @DF-RHF Final Energy:  -852.95077916985758

   => Energetics <=

    Nuclear Repulsion Energy =            634.4131286676396257
    One-Electron Energy =               -2430.6649501922488525
    Two-Electron Energy =                 943.3010423547515302
    Total Energy =                       -852.9507791698575829
  Basis Set: (AUG-CC-PVTZ AUX)
    Blend: AUG-CC-PVTZ-RI
    Molecular point group: c1

    Geometry (in Angstrom), charge = 0, multiplicity = 1:

       Center              X                  Y                   Z               Mass
    ------------   -----------------  -----------------  -----------------  -----------------
         S           -1.393626699768    -0.051203912916    -0.124781751243    31.972071174400
         O           -1.791336399768    -0.121414212916     1.469194948757    15.994914619570
         O           -1.895435399768     1.313148787084    -0.561817051243    15.994914619570
         O           -1.848289399768    -1.235393212916    -0.759938051243    15.994914619570
         C            0.349800600232     0.012963787084    -0.067720051243    12.000000000000
         C            1.030966600232    -1.204410212916    -0.006559051243    12.000000000000
         C            1.019554600232     1.237624787084    -0.066581051243    12.000000000000
         C            2.423813600232    -1.186056212916     0.062511948757    12.000000000000
         C            2.413325600232     1.235890787084    -0.001813051243    12.000000000000
         C            3.113672600232     0.029259787084     0.068785948757    12.000000000000
         H            0.479281600232    -2.139682212916    -0.031329051243     1.007825032230
         H            0.458401600232     2.164662787084    -0.139919051243     1.007825032230
         H            2.971576600232    -2.123643212916     0.107904948757     1.007825032230
         H            2.952682600232     2.179455787084    -0.008845051243     1.007825032230
         H            4.199507600232     0.035394787084     0.119214948757     1.007825032230
         H           -2.254008399768     0.709489787084     1.706994948757     1.007825032230

  Basis Set: AUG-CC-PVTZ
    Blend: AUG-CC-PVTZ
  Basis Set: (AUG-CC-PVTZ AUX)
    Blend: AUG-CC-PVTZ-JKFIT
	 Reference Energy          =    -852.9507791698575829 [Eh]
	 Singles Energy            =      -0.0000000000000000 [Eh]
	 Same-Spin Energy          =      -0.5327975264255292 [Eh]
	 Opposite-Spin Energy      =      -1.5540821694520370 [Eh]
	 Correlation Energy        =      -2.0868796958775664 [Eh]
	 Total Energy              =    -855.0376588657351249 [Eh]

	 ================> DF-SCS-MP2 Energies <==================
	-----------------------------------------------------------
	 SCS Same-Spin Scale       =       0.3333333333333333 [-]
	 SCS Opposite-Spin Scale   =       1.2000000000000000 [-]
	 SCS Same-Spin Energy      =      -0.1775991754751764 [Eh]
	 SCS Opposite-Spin Energy  =      -1.8648986033424444 [Eh]
	 SCS Correlation Energy    =      -2.0424977788176206 [Eh]
	 SCS Total Energy          =    -854.9932769486752022 [Eh]
	-----------------------------------------------------------

  Dipole Moment: [D]
     X:     4.0947      Y:     0.5824      Z:     1.9782     Total:     4.5847

*** Psi4 exiting successfully. Buy a developer a beer!
