                               Psi4 1.3.2 release

  ==> Input File <==

--------------------------------------------------------------------------
#psi4
#
memory 32 gb

molecule  {
0 1
  S       -1.4659670    -0.0143510    -0.1375590
  O       -1.8394920    -0.1365420     1.4591290
  O       -1.9435910     1.2980210    -0.5718830
  O       -1.8964450    -1.2505210    -0.7700040
  C        0.1017640    -0.0035421    -0.0845451
  C        0.9828110    -1.2195380    -0.0166250
  C        0.9713990     1.2224970    -0.0766470
  C        2.3756580    -1.2011840     0.0524460
  C        2.3651700     1.2207630    -0.0118790
  C        3.0655170     0.0141320     0.0587200
  H        0.4311260    -2.1548100    -0.0413950
  H        0.4102460     2.1495350    -0.1499850
  H        2.9234210    -2.1387710     0.0978390
  H        2.9045270     2.1643280    -0.0189110
  H        4.1513520     0.0202670     0.1091490
  H       -2.3021640     0.6943620     1.6969290
units angstrom
no_reorient  #important for SAPT in psi4, default
symmetry c1  #important for SAPT in psi4, default
}

set PROPERTIES_ORIGIN ["COM"]
properties('MP2/aug-cc-pvtz', properties = ['dipole'])
--------------------------------------------------------------------------

    Molecular point group: c1
  Charge       = 0
  Multiplicity = 1
  Basis Set: AUG-CC-PVTZ
    Blend: AUG-CC-PVTZ
  Basis Set: (AUG-CC-PVTZ AUX)
    Blend: AUG-CC-PVTZ-JKFIT

    Orbital Energies [Eh]
    ---------------------

    Doubly Occupied:

       1A    -92.223972     2A    -20.624189     3A    -20.561483
       4A    -20.557012     5A    -11.300752     6A    -11.300032
       7A    -11.288619     8A    -11.287148     9A    -11.269340
      10A    -11.269022    11A     -9.189981    12A     -6.875463
      13A     -6.874969    14A     -6.873902    15A     -1.497552
      16A     -1.378181    17A     -1.351037    18A     -1.178013
      19A     -1.088970    20A     -1.045867    21A     -0.952316
      22A     -0.853042    23A     -0.829015    24A     -0.762062
      25A     -0.732783    26A     -0.709314    27A     -0.685616
      28A     -0.658848    29A     -0.643647    30A     -0.626277
      31A     -0.610982    32A     -0.578922    33A     -0.558117
      34A     -0.530296    35A     -0.521300    36A     -0.514591
      37A     -0.498346    38A     -0.495384    39A     -0.480677
      40A     -0.372889    41A     -0.369240

  @DF-RHF Final Energy:  -852.90631620521140

   => Energetics <=

    Nuclear Repulsion Energy =            636.0625696993698739
    One-Electron Energy =               -2433.8994351258907045
    Two-Electron Energy =                 944.9305492213095476
    Total Energy =                       -852.9063162052113967
  Basis Set: (AUG-CC-PVTZ AUX)
    Blend: AUG-CC-PVTZ-RI
    Molecular point group: c1

    Geometry (in Angstrom), charge = 0, multiplicity = 1:

       Center              X                  Y                   Z               Mass
    ------------   -----------------  -----------------  -----------------  -----------------
         S           -1.397737150618    -0.009636847286    -0.126431082394    31.972071174400
         O           -1.771262150618    -0.131827847286     1.470256917606    15.994914619570
         O           -1.875361150618     1.302735152714    -0.560755082394    15.994914619570
         O           -1.828215150618    -1.245806847286    -0.758876082394    15.994914619570
         C            0.169993849382     0.001172052714    -0.073417182394    12.000000000000
         C            1.051040849382    -1.214823847286    -0.005497082394    12.000000000000
         C            1.039628849382     1.227211152714    -0.065519082394    12.000000000000
         C            2.443887849382    -1.196469847286     0.063573917606    12.000000000000
         C            2.433399849382     1.225477152714    -0.000751082394    12.000000000000
         C            3.133746849382     0.018846152714     0.069847917606    12.000000000000
         H            0.499355849382    -2.150095847286    -0.030267082394     1.007825032230
         H            0.478475849382     2.154249152714    -0.138857082394     1.007825032230
         H            2.991650849382    -2.134056847286     0.108966917606     1.007825032230
         H            2.972756849382     2.169042152714    -0.007783082394     1.007825032230
         H            4.219581849382     0.024981152714     0.120276917606     1.007825032230
         H           -2.233934150618     0.699076152714     1.708056917606     1.007825032230

  Basis Set: AUG-CC-PVTZ
    Blend: AUG-CC-PVTZ
  Basis Set: (AUG-CC-PVTZ AUX)
    Blend: AUG-CC-PVTZ-JKFIT
	 Reference Energy          =    -852.9063162052113967 [Eh]
	 Singles Energy            =      -0.0000000000000000 [Eh]
	 Same-Spin Energy          =      -0.5345621701516633 [Eh]
	 Opposite-Spin Energy      =      -1.5578465328951421 [Eh]
	 Correlation Energy        =      -2.0924087030468055 [Eh]
	 Total Energy              =    -854.9987249082581684 [Eh]

	 ================> DF-SCS-MP2 Energies <==================
	-----------------------------------------------------------
	 SCS Same-Spin Scale       =       0.3333333333333333 [-]
	 SCS Opposite-Spin Scale   =       1.2000000000000000 [-]
	 SCS Same-Spin Energy      =      -0.1781873900505544 [Eh]
	 SCS Opposite-Spin Energy  =      -1.8694158394741704 [Eh]
	 SCS Correlation Energy    =      -2.0476032295247251 [Eh]
	 SCS Total Energy          =    -854.9539194347361217 [Eh]
	-----------------------------------------------------------

  Dipole Moment: [D]
     X:     4.3952      Y:     1.0482      Z:     2.0005     Total:     4.9415

*** Psi4 exiting successfully. Buy a developer a beer!
