                               Psi4 1.4a3.dev225

  ==> Input File <==

--------------------------------------------------------------------------
#psi4
#
memory 32 gb

molecule  {
0 1
  S       -1.4659490    -0.0144420    -0.1375240
  O       -1.8389560    -0.1357530     1.4593660
  O       -1.9437900     1.2976660    -0.5724050
  O       -1.8964760    -1.2508500    -0.7695120
  C        0.3016350    -0.0022080    -0.0778240
  C        0.9828550    -1.2195450    -0.0166360
  C        0.9713380     1.2224880    -0.0767040
  C        2.3757070    -1.2011200     0.0524330
  C        2.3651070     1.2208170    -0.0119400
  C        3.0655130     0.0142220     0.0587080
  H        0.4312050    -2.1548360    -0.0414070
  H        0.4101370     2.1494950    -0.1500750
  H        2.9234940    -2.1386920     0.0978740
  H        2.9044060     2.1644160    -0.0189600
  H        4.1513480     0.0204100     0.1091410
  H       -2.2950590     0.6769337     1.6911606
units angstrom
no_reorient  #important for SAPT in psi4, default
symmetry c1  #important for SAPT in psi4, default
}

set PROPERTIES_ORIGIN ["COM"]
properties('MP2/aug-cc-pvtz', properties = ['dipole'])
--------------------------------------------------------------------------

    Molecular point group: c1
  Charge       = 0
  Multiplicity = 1
  Basis Set: AUG-CC-PVTZ
    Blend: AUG-CC-PVTZ
  Basis Set: (AUG-CC-PVTZ AUX)
    Blend: AUG-CC-PVTZ-JKFIT

    Orbital Energies [Eh]
    ---------------------

    Doubly Occupied:

       1A    -92.233677     2A    -20.631423     3A    -20.569766
       4A    -20.565438     5A    -11.291668     6A    -11.277259
       7A    -11.276675     8A    -11.272625     9A    -11.265663
      10A    -11.265356    11A     -9.196558    12A     -6.882187
      13A     -6.880902    14A     -6.880649    15A     -1.498983
      16A     -1.387196    17A     -1.356372    18A     -1.189188
      19A     -1.067915    20A     -1.049086    21A     -0.930176
      22A     -0.861697    23A     -0.834051    24A     -0.761150
      25A     -0.737460    26A     -0.697975    27A     -0.684762
      28A     -0.661597    29A     -0.647112    30A     -0.630300
      31A     -0.621314    32A     -0.581737    33A     -0.553279
      34A     -0.538631    35A     -0.528980    36A     -0.521511
      37A     -0.509772    38A     -0.489626    39A     -0.481993
      40A     -0.376690    41A     -0.366995

  @DF-RHF Final Energy:  -852.95799993242827

   => Energetics <=

    Nuclear Repulsion Energy =            634.2055561396774692
    One-Electron Energy =               -2430.2163232183179389
    Two-Electron Energy =                 943.0527671462123180
    Total Energy =                       -852.9579999324282653
  Basis Set: (AUG-CC-PVTZ AUX)
    Blend: AUG-CC-PVTZ-RI
    Molecular point group: c1

    Geometry (in Angstrom), charge = 0, multiplicity = 1:

       Center              X                  Y                   Z               Mass
    ------------   -----------------  -----------------  -----------------  -----------------
         S           -1.412975621835    -0.009726356434    -0.126885290114    31.972071174400
         O           -1.785982621835    -0.131037356434     1.470004709886    15.994914619570
         O           -1.890816621835     1.302381643566    -0.561766290114    15.994914619570
         O           -1.843502621835    -1.246134356434    -0.758873290114    15.994914619570
         C            0.354608378165     0.002507643566    -0.067185290114    12.000000000000
         C            1.035828378165    -1.214829356434    -0.005997290114    12.000000000000
         C            1.024311378165     1.227203643566    -0.066065290114    12.000000000000
         C            2.428680378165    -1.196404356434     0.063071709886    12.000000000000
         C            2.418080378165     1.225532643566    -0.001301290114    12.000000000000
         C            3.118486378165     0.018937643566     0.069346709886    12.000000000000
         H            0.484178378165    -2.150120356434    -0.030768290114     1.007825032230
         H            0.463110378165     2.154210643566    -0.139436290114     1.007825032230
         H            2.976467378165    -2.133976356434     0.108512709886     1.007825032230
         H            2.957379378165     2.169131643566    -0.008321290114     1.007825032230
         H            4.204321378165     0.025125643566     0.119779709886     1.007825032230
         H           -2.242085621835     0.681649343566     1.701799309886     1.007825032230

  Basis Set: AUG-CC-PVTZ
    Blend: AUG-CC-PVTZ
  Basis Set: (AUG-CC-PVTZ AUX)
    Blend: AUG-CC-PVTZ-JKFIT
	 Reference Energy          =    -852.9579999324282653 [Eh]
	 Singles Energy            =      -0.0000000000000000 [Eh]
	 Same-Spin Energy          =      -0.5324499270682872 [Eh]
	 Opposite-Spin Energy      =      -1.5533411296066446 [Eh]
	 Correlation Energy        =      -2.0857910566749318 [Eh]
	 Total Energy              =    -855.0437909891031723 [Eh]

	 ================> DF-SCS-MP2 Energies <==================
	-----------------------------------------------------------
	 SCS Same-Spin Scale       =       0.3333333333333333 [-]
	 SCS Opposite-Spin Scale   =       1.2000000000000000 [-]
	 SCS Same-Spin Energy      =      -0.1774833090227624 [Eh]
	 SCS Opposite-Spin Energy  =      -1.8640093555279735 [Eh]
	 SCS Correlation Energy    =      -2.0414926645507361 [Eh]
	 SCS Total Energy          =    -854.9994925969790529 [Eh]
	-----------------------------------------------------------

  Dipole Moment: [D]
     X:     3.7908      Y:     1.0280      Z:     1.9492     Total:     4.3847

*** Psi4 exiting successfully. Buy a developer a beer!
