                               Psi4 1.4a3.dev225

  ==> Input File <==

--------------------------------------------------------------------------
#psi4
#
memory 32 gb

molecule  {
0 1
  S       -1.4659490    -0.0144420    -0.1375240
  O       -1.8389560    -0.1357530     1.4593660
  O       -1.9437900     1.2976660    -0.5724050
  O       -1.8964760    -1.2508500    -0.7695120
  C        0.2516647    -0.0025539    -0.0795117
  C        0.9828550    -1.2195450    -0.0166360
  C        0.9713380     1.2224880    -0.0767040
  C        2.3757070    -1.2011200     0.0524330
  C        2.3651070     1.2208170    -0.0119400
  C        3.0655130     0.0142220     0.0587080
  H        0.4312050    -2.1548360    -0.0414070
  H        0.4101370     2.1494950    -0.1500750
  H        2.9234940    -2.1386920     0.0978740
  H        2.9044060     2.1644160    -0.0189600
  H        4.1513480     0.0204100     0.1091410
  H       -2.3045580     0.6938590     1.6959880
units angstrom
no_reorient  #important for SAPT in psi4, default
symmetry c1  #important for SAPT in psi4, default
}

set PROPERTIES_ORIGIN ["COM"]
properties('MP2/aug-cc-pvtz', properties = ['dipole'])
--------------------------------------------------------------------------

    Molecular point group: c1
  Charge       = 0
  Multiplicity = 1
  Basis Set: AUG-CC-PVTZ
    Blend: AUG-CC-PVTZ
  Basis Set: (AUG-CC-PVTZ AUX)
    Blend: AUG-CC-PVTZ-JKFIT

    Orbital Energies [Eh]
    ---------------------

    Doubly Occupied:

       1A    -92.233318     2A    -20.631830     3A    -20.568617
       4A    -20.564342     5A    -11.290846     6A    -11.281992
       7A    -11.281365     8A    -11.275560     9A    -11.265827
      10A    -11.265519    11A     -9.196567    12A     -6.882198
      13A     -6.881065    14A     -6.880684    15A     -1.498205
      16A     -1.383294    17A     -1.355890    18A     -1.184880
      19A     -1.071433    20A     -1.046894    21A     -0.935081
      22A     -0.858810    23A     -0.832298    24A     -0.760176
      25A     -0.735349    26A     -0.700479    27A     -0.685408
      28A     -0.660062    29A     -0.646208    30A     -0.628934
      31A     -0.618045    32A     -0.581160    33A     -0.553417
      34A     -0.536028    35A     -0.524385    36A     -0.521097
      37A     -0.508450    38A     -0.491689    39A     -0.485620
      40A     -0.375312    41A     -0.366671

  @DF-RHF Final Energy:  -852.95367806267222

   => Energetics <=

    Nuclear Repulsion Energy =            634.4605885059798993
    One-Electron Energy =               -2430.7385251847276777
    Two-Electron Energy =                 943.3242586160754399
    Total Energy =                       -852.9536780626722248
  Basis Set: (AUG-CC-PVTZ AUX)
    Blend: AUG-CC-PVTZ-RI
    Molecular point group: c1

    Geometry (in Angstrom), charge = 0, multiplicity = 1:

       Center              X                  Y                   Z               Mass
    ------------   -----------------  -----------------  -----------------  -----------------
         S           -1.409119910365    -0.009808043988    -0.126787904931    31.972071174400
         O           -1.782126910365    -0.131119043988     1.470102095069    15.994914619570
         O           -1.886960910365     1.302299956012    -0.561668904931    15.994914619570
         O           -1.839646910365    -1.246216043988    -0.758775904931    15.994914619570
         C            0.308493789635     0.002080056012    -0.068775604931    12.000000000000
         C            1.039684089635    -1.214911043988    -0.005899904931    12.000000000000
         C            1.028167089635     1.227121956012    -0.065967904931    12.000000000000
         C            2.432536089635    -1.196486043988     0.063169095069    12.000000000000
         C            2.421936089635     1.225450956012    -0.001203904931    12.000000000000
         C            3.122342089635     0.018855956012     0.069444095069    12.000000000000
         H            0.488034089635    -2.150202043988    -0.030670904931     1.007825032230
         H            0.466966089635     2.154128956012    -0.139338904931     1.007825032230
         H            2.980323089635    -2.134058043988     0.108610095069     1.007825032230
         H            2.961235089635     2.169049956012    -0.008223904931     1.007825032230
         H            4.208177089635     0.025043956012     0.119877095069     1.007825032230
         H           -2.247728910365     0.698492956012     1.706724095069     1.007825032230

  Basis Set: AUG-CC-PVTZ
    Blend: AUG-CC-PVTZ
  Basis Set: (AUG-CC-PVTZ AUX)
    Blend: AUG-CC-PVTZ-JKFIT
	 Reference Energy          =    -852.9536780626722248 [Eh]
	 Singles Energy            =      -0.0000000000000000 [Eh]
	 Same-Spin Energy          =      -0.5328652495501845 [Eh]
	 Opposite-Spin Energy      =      -1.5543004805348173 [Eh]
	 Correlation Energy        =      -2.0871657300850019 [Eh]
	 Total Energy              =    -855.0408437927571867 [Eh]

	 ================> DF-SCS-MP2 Energies <==================
	-----------------------------------------------------------
	 SCS Same-Spin Scale       =       0.3333333333333333 [-]
	 SCS Opposite-Spin Scale   =       1.2000000000000000 [-]
	 SCS Same-Spin Energy      =      -0.1776217498500615 [Eh]
	 SCS Opposite-Spin Energy  =      -1.8651605766417807 [Eh]
	 SCS Correlation Energy    =      -2.0427823264918423 [Eh]
	 SCS Total Energy          =    -854.9964603891640991 [Eh]
	-----------------------------------------------------------

  Dipole Moment: [D]
     X:     3.8745      Y:     1.0485      Z:     1.9757     Total:     4.4737

*** Psi4 exiting successfully. Buy a developer a beer!
