                               Psi4 1.4a3.dev225

  ==> Input File <==

--------------------------------------------------------------------------
#psi4
#
memory 32 gb

molecule  {
0 1
  S       -1.4659490    -0.0144420    -0.1375240
  O       -1.8389560    -0.1357530     1.4593660
  O       -1.9437900     1.2976660    -0.5724050
  O       -1.8964760    -1.2508500    -0.7695120
  C        0.2816469    -0.0023463    -0.0784991
  C        0.9828550    -1.2195450    -0.0166360
  C        0.9713380     1.2224880    -0.0767040
  C        2.3757070    -1.2011200     0.0524330
  C        2.3651070     1.2208170    -0.0119400
  C        3.0655130     0.0142220     0.0587080
  H        0.4312050    -2.1548360    -0.0414070
  H        0.4101370     2.1494950    -0.1500750
  H        2.9234940    -2.1386920     0.0978740
  H        2.9044060     2.1644160    -0.0189600
  H        4.1513480     0.0204100     0.1091410
  H       -2.3045580     0.6938590     1.6959880
units angstrom
no_reorient  #important for SAPT in psi4, default
symmetry c1  #important for SAPT in psi4, default
}

set PROPERTIES_ORIGIN ["COM"]
properties('MP2/aug-cc-pvtz', properties = ['dipole'])
--------------------------------------------------------------------------

    Molecular point group: c1
  Charge       = 0
  Multiplicity = 1
  Basis Set: AUG-CC-PVTZ
    Blend: AUG-CC-PVTZ
  Basis Set: (AUG-CC-PVTZ AUX)
    Blend: AUG-CC-PVTZ-JKFIT

    Orbital Energies [Eh]
    ---------------------

    Doubly Occupied:

       1A    -92.233482     2A    -20.632461     3A    -20.569194
       4A    -20.564943     5A    -11.291239     6A    -11.278975
       7A    -11.278368     8A    -11.273644     9A    -11.265604
      10A    -11.265294    11A     -9.196483    12A     -6.882114
      13A     -6.880889    14A     -6.880592    15A     -1.497782
      16A     -1.383553    17A     -1.356096    18A     -1.187259
      19A     -1.069040    20A     -1.048019    21A     -0.931359
      22A     -0.860413    23A     -0.832481    24A     -0.759698
      25A     -0.735626    26A     -0.698689    27A     -0.684837
      28A     -0.660587    29A     -0.646654    30A     -0.629278
      31A     -0.619937    32A     -0.581122    33A     -0.553156
      34A     -0.537385    35A     -0.527046    36A     -0.521094
      37A     -0.509173    38A     -0.489868    39A     -0.483942
      40A     -0.376009    41A     -0.366725

  @DF-RHF Final Energy:  -852.95640014167952

   => Energetics <=

    Nuclear Repulsion Energy =            634.2177309242027832
    One-Electron Energy =               -2430.2680519454129353
    Two-Electron Energy =                 943.0939208795305149
    Total Energy =                       -852.9564001416795236
  Basis Set: (AUG-CC-PVTZ AUX)
    Blend: AUG-CC-PVTZ-RI
    Molecular point group: c1

    Geometry (in Angstrom), charge = 0, multiplicity = 1:

       Center              X                  Y                   Z               Mass
    ------------   -----------------  -----------------  -----------------  -----------------
         S           -1.411396985215    -0.009823810701    -0.126864809428    31.972071174400
         O           -1.784403985215    -0.131134810701     1.470025190572    15.994914619570
         O           -1.889237985215     1.302284189299    -0.561745809428    15.994914619570
         O           -1.841923985215    -1.246231810701    -0.758852809428    15.994914619570
         C            0.336198914785     0.002271889299    -0.067839909428    12.000000000000
         C            1.037407014785    -1.214926810701    -0.005976809428    12.000000000000
         C            1.025890014785     1.227106189299    -0.066044809428    12.000000000000
         C            2.430259014785    -1.196501810701     0.063092190572    12.000000000000
         C            2.419659014785     1.225435189299    -0.001280809428    12.000000000000
         C            3.120065014785     0.018840189299     0.069367190572    12.000000000000
         H            0.485757014785    -2.150217810701    -0.030747809428     1.007825032230
         H            0.464689014785     2.154113189299    -0.139415809428     1.007825032230
         H            2.978046014785    -2.134073810701     0.108533190572     1.007825032230
         H            2.958958014785     2.169034189299    -0.008300809428     1.007825032230
         H            4.205900014785     0.025028189299     0.119800190572     1.007825032230
         H           -2.250005985215     0.698477189299     1.706647190572     1.007825032230

  Basis Set: AUG-CC-PVTZ
    Blend: AUG-CC-PVTZ
  Basis Set: (AUG-CC-PVTZ AUX)
    Blend: AUG-CC-PVTZ-JKFIT
	 Reference Energy          =    -852.9564001416795236 [Eh]
	 Singles Energy            =      -0.0000000000000000 [Eh]
	 Same-Spin Energy          =      -0.5327451419827363 [Eh]
	 Opposite-Spin Energy      =      -1.5540224776840899 [Eh]
	 Correlation Energy        =      -2.0867676196668263 [Eh]
	 Total Energy              =    -855.0431677613463535 [Eh]

	 ================> DF-SCS-MP2 Energies <==================
	-----------------------------------------------------------
	 SCS Same-Spin Scale       =       0.3333333333333333 [-]
	 SCS Opposite-Spin Scale   =       1.2000000000000000 [-]
	 SCS Same-Spin Energy      =      -0.1775817139942454 [Eh]
	 SCS Opposite-Spin Energy  =      -1.8648269732209077 [Eh]
	 SCS Correlation Energy    =      -2.0424086872151532 [Eh]
	 SCS Total Energy          =    -854.9988088288946528 [Eh]
	-----------------------------------------------------------

  Dipole Moment: [D]
     X:     3.8073      Y:     1.0483      Z:     1.9704     Total:     4.4133

*** Psi4 exiting successfully. Buy a developer a beer!
