                               Psi4 1.3.2 release

  ==> Input File <==

--------------------------------------------------------------------------
#psi4
#
memory 32 gb

molecule  {
0 1
  S       -1.4538159    -0.0403267    -0.1364464
  O       -1.8394920    -0.1365420     1.4591290
  O       -1.9435910     1.2980210    -0.5718830
  O       -1.8964450    -1.2505210    -0.7700040
  C        0.3016450    -0.0021640    -0.0777860
  C        0.9828110    -1.2195380    -0.0166250
  C        0.9713990     1.2224970    -0.0766470
  C        2.3756580    -1.2011840     0.0524460
  C        2.3651700     1.2207630    -0.0118790
  C        3.0655170     0.0141320     0.0587200
  H        0.4311260    -2.1548100    -0.0413950
  H        0.4102460     2.1495350    -0.1499850
  H        2.9234210    -2.1387710     0.0978390
  H        2.9045270     2.1643280    -0.0189110
  H        4.1513520     0.0202670     0.1091490
  H       -2.3021640     0.6943620     1.6969290
units angstrom
no_reorient  #important for SAPT in psi4, default
symmetry c1  #important for SAPT in psi4, default
}

set PROPERTIES_ORIGIN ["COM"]
properties('MP2/aug-cc-pvtz', properties = ['dipole'])
--------------------------------------------------------------------------

    Molecular point group: c1
  Charge       = 0
  Multiplicity = 1
  Basis Set: AUG-CC-PVTZ
    Blend: AUG-CC-PVTZ
  Basis Set: (AUG-CC-PVTZ AUX)
    Blend: AUG-CC-PVTZ-JKFIT

    Orbital Energies [Eh]
    ---------------------

    Doubly Occupied:

       1A    -92.232898     2A    -20.631164     3A    -20.569591
       4A    -20.562115     5A    -11.292053     6A    -11.278469
       7A    -11.278061     8A    -11.273873     9A    -11.266466
      10A    -11.266183    11A     -9.195939    12A     -6.881524
      13A     -6.880241    14A     -6.880043    15A     -1.495680
      16A     -1.386206    17A     -1.346071    18A     -1.190622
      19A     -1.070265    20A     -1.050114    21A     -0.931163
      22A     -0.862828    23A     -0.833508    24A     -0.761065
      25A     -0.734606    26A     -0.696863    27A     -0.684294
      28A     -0.661103    29A     -0.647521    30A     -0.626536
      31A     -0.622168    32A     -0.581253    33A     -0.553748
      34A     -0.538767    35A     -0.529948    36A     -0.519958
      37A     -0.507489    38A     -0.486618    39A     -0.480820
      40A     -0.378025    41A     -0.367899

  @DF-RHF Final Energy:  -852.95526554159710

   => Energetics <=

    Nuclear Repulsion Energy =            634.2325905727950612
    One-Electron Energy =               -2430.3081941555778940
    Two-Electron Energy =                 943.1203380411857324
    Total Energy =                       -852.9552655415971003
  Basis Set: (AUG-CC-PVTZ AUX)
    Blend: AUG-CC-PVTZ-RI
    Molecular point group: c1

    Geometry (in Angstrom), charge = 0, multiplicity = 1:

       Center              X                  Y                   Z               Mass
    ------------   -----------------  -----------------  -----------------  -----------------
         S           -1.403225300101    -0.030461026194    -0.126056954204    31.972071174400
         O           -1.788901400101    -0.126676326194     1.469518445796    15.994914619570
         O           -1.893000400101     1.307886673806    -0.561493554204    15.994914619570
         O           -1.845854400101    -1.240655326194    -0.759614554204    15.994914619570
         C            0.352235599899     0.007701673806    -0.067396554204    12.000000000000
         C            1.033401599899    -1.209672326194    -0.006235554204    12.000000000000
         C            1.021989599899     1.232362673806    -0.066257554204    12.000000000000
         C            2.426248599899    -1.191318326194     0.062835445796    12.000000000000
         C            2.415760599899     1.230628673806    -0.001489554204    12.000000000000
         C            3.116107599899     0.023997673806     0.069109445796    12.000000000000
         H            0.481716599899    -2.144944326194    -0.031005554204     1.007825032230
         H            0.460836599899     2.159400673806    -0.139595554204     1.007825032230
         H            2.974011599899    -2.128905326194     0.108228445796     1.007825032230
         H            2.955117599899     2.174193673806    -0.008521554204     1.007825032230
         H            4.201942599899     0.030132673806     0.119538445796     1.007825032230
         H           -2.251573400101     0.704227673806     1.707318445796     1.007825032230

  Basis Set: AUG-CC-PVTZ
    Blend: AUG-CC-PVTZ
  Basis Set: (AUG-CC-PVTZ AUX)
    Blend: AUG-CC-PVTZ-JKFIT
	 Reference Energy          =    -852.9552655415971003 [Eh]
	 Singles Energy            =      -0.0000000000000000 [Eh]
	 Same-Spin Energy          =      -0.5327730586033210 [Eh]
	 Opposite-Spin Energy      =      -1.5540083028596430 [Eh]
	 Correlation Energy        =      -2.0867813614629638 [Eh]
	 Total Energy              =    -855.0420469030600543 [Eh]

	 ================> DF-SCS-MP2 Energies <==================
	-----------------------------------------------------------
	 SCS Same-Spin Scale       =       0.3333333333333333 [-]
	 SCS Opposite-Spin Scale   =       1.2000000000000000 [-]
	 SCS Same-Spin Energy      =      -0.1775910195344403 [Eh]
	 SCS Opposite-Spin Energy  =      -1.8648099634315716 [Eh]
	 SCS Correlation Energy    =      -2.0424009829660119 [Eh]
	 SCS Total Energy          =    -854.9976665245631011 [Eh]
	-----------------------------------------------------------

  Dipole Moment: [D]
     X:     3.9331      Y:     0.8165      Z:     1.9704     Total:     4.4741

*** Psi4 exiting successfully. Buy a developer a beer!
