                               Psi4 1.4a3.dev225

  ==> Input File <==

--------------------------------------------------------------------------
#psi4
#
memory 32 gb

molecule  {
0 1
  S       -1.4659490    -0.0144420    -0.1375240
  O       -1.8389560    -0.1357530     1.4593660
  O       -1.9437900     1.2976660    -0.5724050
  O       -1.8964760    -1.2508500    -0.7695120
  C        0.3016350    -0.0022080    -0.0778240
  C        0.9828550    -1.2195450    -0.0166360
  C        0.9713380     1.2224880    -0.0767040
  C        2.3757070    -1.2011200     0.0524330
  C        2.3651070     1.2208170    -0.0119400
  C        3.0655130     0.0142220     0.0587080
  H        0.4312050    -2.1548360    -0.0414070
  H        0.4101370     2.1494950    -0.1500750
  H        2.9234940    -2.1386920     0.0978740
  H        2.9044060     2.1644160    -0.0189600
  H        4.1513480     0.0204100     0.1091410
  H       -2.2808106     0.6515458     1.6839194
units angstrom
no_reorient  #important for SAPT in psi4, default
symmetry c1  #important for SAPT in psi4, default
}

set PROPERTIES_ORIGIN ["COM"]
properties('MP2/aug-cc-pvtz', properties = ['dipole'])
--------------------------------------------------------------------------

    Molecular point group: c1
  Charge       = 0
  Multiplicity = 1
  Basis Set: AUG-CC-PVTZ
    Blend: AUG-CC-PVTZ
  Basis Set: (AUG-CC-PVTZ AUX)
    Blend: AUG-CC-PVTZ-JKFIT

    Orbital Energies [Eh]
    ---------------------

    Doubly Occupied:

       1A    -92.234257     2A    -20.629290     3A    -20.570281
       4A    -20.565817     5A    -11.291910     6A    -11.277479
       7A    -11.276907     8A    -11.272824     9A    -11.265840
      10A    -11.265542    11A     -9.197131    12A     -6.882768
      13A     -6.881471    14A     -6.881216    15A     -1.501684
      16A     -1.392856    17A     -1.356783    18A     -1.189432
      19A     -1.068354    20A     -1.049286    21A     -0.932321
      22A     -0.861920    23A     -0.836486    24A     -0.764063
      25A     -0.739691    26A     -0.698629    27A     -0.685377
      28A     -0.662356    29A     -0.647352    30A     -0.631414
      31A     -0.621509    32A     -0.582854    33A     -0.553555
      34A     -0.539063    35A     -0.529181    36A     -0.522170
      37A     -0.510307    38A     -0.490189    39A     -0.482454
      40A     -0.376953    41A     -0.367184

  @DF-RHF Final Energy:  -852.95783693097485

   => Energetics <=

    Nuclear Repulsion Energy =            634.4188459095959161
    One-Electron Energy =               -2430.5810519759488670
    Two-Electron Energy =                 943.2043691353782151
    Total Energy =                       -852.9578369309748496
  Basis Set: (AUG-CC-PVTZ AUX)
    Blend: AUG-CC-PVTZ-RI
    Molecular point group: c1

    Geometry (in Angstrom), charge = 0, multiplicity = 1:

       Center              X                  Y                   Z               Mass
    ------------   -----------------  -----------------  -----------------  -----------------
         S           -1.413066505076    -0.009564420033    -0.126839102210    31.972071174400
         O           -1.786073505076    -0.130875420033     1.470050897790    15.994914619570
         O           -1.890907505076     1.302543579967    -0.561720102210    15.994914619570
         O           -1.843593505076    -1.245972420033    -0.758827102210    15.994914619570
         C            0.354517494924     0.002669579967    -0.067139102210    12.000000000000
         C            1.035737494924    -1.214667420033    -0.005951102210    12.000000000000
         C            1.024220494924     1.227365579967    -0.066019102210    12.000000000000
         C            2.428589494924    -1.196242420033     0.063117897790    12.000000000000
         C            2.417989494924     1.225694579967    -0.001255102210    12.000000000000
         C            3.118395494924     0.019099579967     0.069392897790    12.000000000000
         H            0.484087494924    -2.149958420033    -0.030722102210     1.007825032230
         H            0.463019494924     2.154372579967    -0.139390102210     1.007825032230
         H            2.976376494924    -2.133814420033     0.108558897790     1.007825032230
         H            2.957288494924     2.169293579967    -0.008275102210     1.007825032230
         H            4.204230494924     0.025287579967     0.119825897790     1.007825032230
         H           -2.227928105076     0.656423379967     1.694604297790     1.007825032230

  Basis Set: AUG-CC-PVTZ
    Blend: AUG-CC-PVTZ
  Basis Set: (AUG-CC-PVTZ AUX)
    Blend: AUG-CC-PVTZ-JKFIT
	 Reference Energy          =    -852.9578369309748496 [Eh]
	 Singles Energy            =      -0.0000000000000000 [Eh]
	 Same-Spin Energy          =      -0.5320648906289851 [Eh]
	 Opposite-Spin Energy      =      -1.5525004117237513 [Eh]
	 Correlation Energy        =      -2.0845653023527362 [Eh]
	 Total Energy              =    -855.0424022333276071 [Eh]

	 ================> DF-SCS-MP2 Energies <==================
	-----------------------------------------------------------
	 SCS Same-Spin Scale       =       0.3333333333333333 [-]
	 SCS Opposite-Spin Scale   =       1.2000000000000000 [-]
	 SCS Same-Spin Energy      =      -0.1773549635429950 [Eh]
	 SCS Opposite-Spin Energy  =      -1.8630004940685014 [Eh]
	 SCS Correlation Energy    =      -2.0403554576114966 [Eh]
	 SCS Total Energy          =    -854.9981923885862898 [Eh]
	-----------------------------------------------------------

  Dipole Moment: [D]
     X:     3.8214      Y:     0.9983      Z:     1.9222     Total:     4.3926

*** Psi4 exiting successfully. Buy a developer a beer!
