                               Psi4 1.4a3.dev225

  ==> Input File <==

--------------------------------------------------------------------------
#psi4
#
memory 32 gb

molecule  {
0 1
  S       -1.4659490    -0.0144420    -0.1375240
  O       -1.8276140    -0.1320643     1.4108093
  O       -1.9437900     1.2976660    -0.5724050
  O       -1.8964760    -1.2508500    -0.7695120
  C        0.3016350    -0.0022080    -0.0778240
  C        0.9828550    -1.2195450    -0.0166360
  C        0.9713380     1.2224880    -0.0767040
  C        2.3757070    -1.2011200     0.0524330
  C        2.3651070     1.2208170    -0.0119400
  C        3.0655130     0.0142220     0.0587080
  H        0.4312050    -2.1548360    -0.0414070
  H        0.4101370     2.1494950    -0.1500750
  H        2.9234940    -2.1386920     0.0978740
  H        2.9044060     2.1644160    -0.0189600
  H        4.1513480     0.0204100     0.1091410
  H       -2.3045580     0.6938590     1.6959880
units angstrom
no_reorient  #important for SAPT in psi4, default
symmetry c1  #important for SAPT in psi4, default
}

set PROPERTIES_ORIGIN ["COM"]
properties('MP2/aug-cc-pvtz', properties = ['dipole'])
--------------------------------------------------------------------------

    Molecular point group: c1
  Charge       = 0
  Multiplicity = 1
  Basis Set: AUG-CC-PVTZ
    Blend: AUG-CC-PVTZ
  Basis Set: (AUG-CC-PVTZ AUX)
    Blend: AUG-CC-PVTZ-JKFIT

    Orbital Energies [Eh]
    ---------------------

    Doubly Occupied:

       1A    -92.230584     2A    -20.637093     3A    -20.565015
       4A    -20.561231     5A    -11.289171     6A    -11.275413
       7A    -11.274827     8A    -11.271025     9A    -11.264378
      10A    -11.264061    11A     -9.193730    12A     -6.879553
      13A     -6.878121    14A     -6.877851    15A     -1.507490
      16A     -1.387540    17A     -1.353428    18A     -1.187541
      19A     -1.066172    20A     -1.047583    21A     -0.930035
      22A     -0.860182    23A     -0.836480    24A     -0.763334
      25A     -0.737287    26A     -0.699367    27A     -0.686878
      28A     -0.659746    29A     -0.646290    30A     -0.626115
      31A     -0.619850    32A     -0.585740    33A     -0.551535
      34A     -0.538986    35A     -0.527494    36A     -0.520933
      37A     -0.506588    38A     -0.486128    39A     -0.479698
      40A     -0.374810    41A     -0.365665

  @DF-RHF Final Energy:  -852.95905577935764

   => Energetics <=

    Nuclear Repulsion Energy =            636.1386019809332311
    One-Electron Energy =               -2434.1654196347612924
    Two-Electron Energy =                 945.0677618744703068
    Total Energy =                       -852.9590557793576409
  Basis Set: (AUG-CC-PVTZ AUX)
    Blend: AUG-CC-PVTZ-RI
    Molecular point group: c1

    Geometry (in Angstrom), charge = 0, multiplicity = 1:

       Center              X                  Y                   Z               Mass
    ------------   -----------------  -----------------  -----------------  -----------------
         S           -1.414063197131    -0.010207725865    -0.122000627428    31.972071174400
         O           -1.775728197131    -0.127830025865     1.426332672572    15.994914619570
         O           -1.891904197131     1.301900274135    -0.556881627428    15.994914619570
         O           -1.844590197131    -1.246615725865    -0.753988627428    15.994914619570
         C            0.353520802869     0.002026274135    -0.062300627428    12.000000000000
         C            1.034740802869    -1.215310725865    -0.001112627428    12.000000000000
         C            1.023223802869     1.226722274135    -0.061180627428    12.000000000000
         C            2.427592802869    -1.196885725865     0.067956372572    12.000000000000
         C            2.416992802869     1.225051274135     0.003583372572    12.000000000000
         C            3.117398802869     0.018456274135     0.074231372572    12.000000000000
         H            0.483090802869    -2.150601725865    -0.025883627428     1.007825032230
         H            0.462022802869     2.153729274135    -0.134551627428     1.007825032230
         H            2.975379802869    -2.134457725865     0.113397372572     1.007825032230
         H            2.956291802869     2.168650274135    -0.003436627428     1.007825032230
         H            4.203233802869     0.024644274135     0.124664372572     1.007825032230
         H           -2.252672197131     0.698093274135     1.711511372572     1.007825032230

  Basis Set: AUG-CC-PVTZ
    Blend: AUG-CC-PVTZ
  Basis Set: (AUG-CC-PVTZ AUX)
    Blend: AUG-CC-PVTZ-JKFIT
	 Reference Energy          =    -852.9590557793576409 [Eh]
	 Singles Energy            =      -0.0000000000000000 [Eh]
	 Same-Spin Energy          =      -0.5322486277927331 [Eh]
	 Opposite-Spin Energy      =      -1.5520414415817554 [Eh]
	 Correlation Energy        =      -2.0842900693744886 [Eh]
	 Total Energy              =    -855.0433458487320877 [Eh]

	 ================> DF-SCS-MP2 Energies <==================
	-----------------------------------------------------------
	 SCS Same-Spin Scale       =       0.3333333333333333 [-]
	 SCS Opposite-Spin Scale   =       1.2000000000000000 [-]
	 SCS Same-Spin Energy      =      -0.1774162092642443 [Eh]
	 SCS Opposite-Spin Energy  =      -1.8624497298981064 [Eh]
	 SCS Correlation Energy    =      -2.0398659391623508 [Eh]
	 SCS Total Energy          =    -854.9989217185200232 [Eh]
	-----------------------------------------------------------

  Dipole Moment: [D]
     X:     3.6058      Y:     1.0523      Z:     2.2733     Total:     4.3906

*** Psi4 exiting successfully. Buy a developer a beer!
