                               Psi4 1.3.2 release

  ==> Input File <==

--------------------------------------------------------------------------
#psi4
#
memory 32 gb

molecule  {
0 1
  S       -1.4659670    -0.0143510    -0.1375590
  O       -1.8394920    -0.1365420     1.4591290
  O       -1.8853970     1.3393783    -0.4989144
  O       -1.8964450    -1.2505210    -0.7700040
  C        0.3016450    -0.0021640    -0.0777860
  C        0.9828110    -1.2195380    -0.0166250
  C        0.9713990     1.2224970    -0.0766470
  C        2.3756580    -1.2011840     0.0524460
  C        2.3651700     1.2207630    -0.0118790
  C        3.0655170     0.0141320     0.0587200
  H        0.4311260    -2.1548100    -0.0413950
  H        0.4102460     2.1495350    -0.1499850
  H        2.9234210    -2.1387710     0.0978390
  H        2.9045270     2.1643280    -0.0189110
  H        4.1513520     0.0202670     0.1091490
  H       -2.3021640     0.6943620     1.6969290
units angstrom
no_reorient  #important for SAPT in psi4, default
symmetry c1  #important for SAPT in psi4, default
}

set PROPERTIES_ORIGIN ["COM"]
properties('MP2/aug-cc-pvtz', properties = ['dipole'])
--------------------------------------------------------------------------

    Molecular point group: c1
  Charge       = 0
  Multiplicity = 1
  Basis Set: AUG-CC-PVTZ
    Blend: AUG-CC-PVTZ
  Basis Set: (AUG-CC-PVTZ AUX)
    Blend: AUG-CC-PVTZ-JKFIT

    Orbital Energies [Eh]
    ---------------------

    Doubly Occupied:

       1A    -92.234533     2A    -20.629233     3A    -20.571931
       4A    -20.569899     5A    -11.289075     6A    -11.275067
       7A    -11.274951     8A    -11.271174     9A    -11.264046
      10A    -11.263848    11A     -9.197281    12A     -6.882947
      13A     -6.881699    14A     -6.881319    15A     -1.498606
      16A     -1.381730    17A     -1.361300    18A     -1.187302
      19A     -1.065687    20A     -1.047415    21A     -0.927370
      22A     -0.860001    23A     -0.831529    24A     -0.758244
      25A     -0.736152    26A     -0.696347    27A     -0.685813
      28A     -0.660204    29A     -0.645775    30A     -0.631418
      31A     -0.619924    32A     -0.579311    33A     -0.551421
      34A     -0.538167    35A     -0.527304    36A     -0.520441
      37A     -0.513500    38A     -0.493036    39A     -0.481026
      40A     -0.375014    41A     -0.365427

  @DF-RHF Final Energy:  -852.95497326076145

   => Energetics <=

    Nuclear Repulsion Energy =            634.7182077921443124
    One-Electron Energy =               -2431.2934254433594106
    Two-Electron Energy =                 943.6202443904536494
    Total Energy =                       -852.9549732607614487
  Basis Set: (AUG-CC-PVTZ AUX)
    Blend: AUG-CC-PVTZ-RI
    Molecular point group: c1

    Geometry (in Angstrom), charge = 0, multiplicity = 1:

       Center              X                  Y                   Z               Mass
    ------------   -----------------  -----------------  -----------------  -----------------
         S           -1.418808674177    -0.013928160733    -0.134331120252    31.972071174400
         O           -1.792333674177    -0.136119160733     1.462356879748    15.994914619570
         O           -1.838238674177     1.339801139267    -0.495686520252    15.994914619570
         O           -1.849286674177    -1.250098160733    -0.766776120252    15.994914619570
         C            0.348803325823    -0.001741160733    -0.074558120252    12.000000000000
         C            1.029969325823    -1.219115160733    -0.013397120252    12.000000000000
         C            1.018557325823     1.222919839267    -0.073419120252    12.000000000000
         C            2.422816325823    -1.200761160733     0.055673879748    12.000000000000
         C            2.412328325823     1.221185839267    -0.008651120252    12.000000000000
         C            3.112675325823     0.014554839267     0.061947879748    12.000000000000
         H            0.478284325823    -2.154387160733    -0.038167120252     1.007825032230
         H            0.457404325823     2.149957839267    -0.146757120252     1.007825032230
         H            2.970579325823    -2.138348160733     0.101066879748     1.007825032230
         H            2.951685325823     2.164750839267    -0.015683120252     1.007825032230
         H            4.198510325823     0.020689839267     0.112376879748     1.007825032230
         H           -2.255005674177     0.694784839267     1.700156879748     1.007825032230

  Basis Set: AUG-CC-PVTZ
    Blend: AUG-CC-PVTZ
  Basis Set: (AUG-CC-PVTZ AUX)
    Blend: AUG-CC-PVTZ-JKFIT
	 Reference Energy          =    -852.9549732607614487 [Eh]
	 Singles Energy            =      -0.0000000000000000 [Eh]
	 Same-Spin Energy          =      -0.5330071726443586 [Eh]
	 Opposite-Spin Energy      =      -1.5544246280792453 [Eh]
	 Correlation Energy        =      -2.0874318007236039 [Eh]
	 Total Energy              =    -855.0424050614850557 [Eh]

	 ================> DF-SCS-MP2 Energies <==================
	-----------------------------------------------------------
	 SCS Same-Spin Scale       =       0.3333333333333333 [-]
	 SCS Opposite-Spin Scale   =       1.2000000000000000 [-]
	 SCS Same-Spin Energy      =      -0.1776690575481195 [Eh]
	 SCS Opposite-Spin Energy  =      -1.8653095536950943 [Eh]
	 SCS Correlation Energy    =      -2.0429786112432140 [Eh]
	 SCS Total Energy          =    -854.9979518720047054 [Eh]
	-----------------------------------------------------------

  Dipole Moment: [D]
     X:     3.5902      Y:     0.9446      Z:     1.7827     Total:     4.1183

*** Psi4 exiting successfully. Buy a developer a beer!
