                               Psi4 1.3.2 release

  ==> Input File <==

--------------------------------------------------------------------------
#psi4
#
memory 32 gb

molecule  {
0 1
  S       -1.4906068     0.0374808    -0.1383250
  O       -1.8394920    -0.1365420     1.4591290
  O       -1.9435910     1.2980210    -0.5718830
  O       -1.8964450    -1.2505210    -0.7700040
  C        0.3016450    -0.0021640    -0.0777860
  C        0.9828110    -1.2195380    -0.0166250
  C        0.9713990     1.2224970    -0.0766470
  C        2.3756580    -1.2011840     0.0524460
  C        2.3651700     1.2207630    -0.0118790
  C        3.0655170     0.0141320     0.0587200
  H        0.4311260    -2.1548100    -0.0413950
  H        0.4102460     2.1495350    -0.1499850
  H        2.9234210    -2.1387710     0.0978390
  H        2.9045270     2.1643280    -0.0189110
  H        4.1513520     0.0202670     0.1091490
  H       -2.3021640     0.6943620     1.6969290
units angstrom
no_reorient  #important for SAPT in psi4, default
symmetry c1  #important for SAPT in psi4, default
}

set PROPERTIES_ORIGIN ["COM"]
properties('MP2/aug-cc-pvtz', properties = ['dipole'])
--------------------------------------------------------------------------

    Molecular point group: c1
  Charge       = 0
  Multiplicity = 1
  Basis Set: AUG-CC-PVTZ
    Blend: AUG-CC-PVTZ
  Basis Set: (AUG-CC-PVTZ AUX)
    Blend: AUG-CC-PVTZ-JKFIT

    Orbital Energies [Eh]
    ---------------------

    Doubly Occupied:

       1A    -92.232630     2A    -20.635964     3A    -20.583826
       4A    -20.556181     5A    -11.290386     6A    -11.274363
       7A    -11.273388     8A    -11.269696     9A    -11.263697
      10A    -11.263309    11A     -9.196038    12A     -6.881681
      13A     -6.880600    14A     -6.879881    15A     -1.510735
      16A     -1.398188    17A     -1.348296    18A     -1.185799
      19A     -1.062435    20A     -1.046531    21A     -0.924183
      22A     -0.858996    23A     -0.830909    24A     -0.756987
      25A     -0.740130    26A     -0.700638    27A     -0.687299
      28A     -0.661141    29A     -0.646642    30A     -0.635154
      31A     -0.618988    32A     -0.582069    33A     -0.555235
      34A     -0.538699    35A     -0.530781    36A     -0.526080
      37A     -0.509552    38A     -0.487213    39A     -0.474556
      40A     -0.373422    41A     -0.364741

  @DF-RHF Final Energy:  -852.95201492421268

   => Energetics <=

    Nuclear Repulsion Energy =            633.7955527190781595
    One-Electron Energy =               -2429.4210570166960679
    Two-Electron Energy =                 942.6734893734052321
    Total Energy =                       -852.9520149242126763
  Basis Set: (AUG-CC-PVTZ AUX)
    Blend: AUG-CC-PVTZ-RI
    Molecular point group: c1

    Geometry (in Angstrom), charge = 0, multiplicity = 1:

       Center              X                  Y                   Z               Mass
    ------------   -----------------  -----------------  -----------------  -----------------
         S           -1.432571559325     0.031602121611    -0.127555419383    31.972071174400
         O           -1.781456759325    -0.142420678389     1.469898580617    15.994914619570
         O           -1.885555759325     1.292142321611    -0.561113419383    15.994914619570
         O           -1.838409759325    -1.256399678389    -0.759234419383    15.994914619570
         C            0.359680240675    -0.008042678389    -0.067016419383    12.000000000000
         C            1.040846240675    -1.225416678389    -0.005855419383    12.000000000000
         C            1.029434240675     1.216618321611    -0.065877419383    12.000000000000
         C            2.433693240675    -1.207062678389     0.063215580617    12.000000000000
         C            2.423205240675     1.214884321611    -0.001109419383    12.000000000000
         C            3.123552240675     0.008253321611     0.069489580617    12.000000000000
         H            0.489161240675    -2.160688678389    -0.030625419383     1.007825032230
         H            0.468281240675     2.143656321611    -0.139215419383     1.007825032230
         H            2.981456240675    -2.144649678389     0.108608580617     1.007825032230
         H            2.962562240675     2.158449321611    -0.008141419383     1.007825032230
         H            4.209387240675     0.014388321611     0.119918580617     1.007825032230
         H           -2.244128759325     0.688483321611     1.707698580617     1.007825032230

  Basis Set: AUG-CC-PVTZ
    Blend: AUG-CC-PVTZ
  Basis Set: (AUG-CC-PVTZ AUX)
    Blend: AUG-CC-PVTZ-JKFIT
	 Reference Energy          =    -852.9520149242126763 [Eh]
	 Singles Energy            =      -0.0000000000000000 [Eh]
	 Same-Spin Energy          =      -0.5324465650132050 [Eh]
	 Opposite-Spin Energy      =      -1.5536589568142318 [Eh]
	 Correlation Energy        =      -2.0861055218274367 [Eh]
	 Total Energy              =    -855.0381204460401250 [Eh]

	 ================> DF-SCS-MP2 Energies <==================
	-----------------------------------------------------------
	 SCS Same-Spin Scale       =       0.3333333333333333 [-]
	 SCS Opposite-Spin Scale   =       1.2000000000000000 [-]
	 SCS Same-Spin Energy      =      -0.1774821883377350 [Eh]
	 SCS Opposite-Spin Energy  =      -1.8643907481770781 [Eh]
	 SCS Correlation Energy    =      -2.0418729365148129 [Eh]
	 SCS Total Energy          =    -854.9938878607274546 [Eh]
	-----------------------------------------------------------

  Dipole Moment: [D]
     X:     3.4634      Y:     1.5100      Z:     1.9816     Total:     4.2664

*** Psi4 exiting successfully. Buy a developer a beer!
