                               Psi4 1.3.2 release

  ==> Input File <==

--------------------------------------------------------------------------
#psi4
#
memory 32 gb

molecule  {
0 1
  S       -1.4659670    -0.0143510    -0.1375590
  O       -1.8394920    -0.1365420     1.4591290
  O       -1.9194084     1.3060205    -0.5735548
  O       -1.8964450    -1.2505210    -0.7700040
  C        0.3016450    -0.0021640    -0.0777860
  C        0.9828110    -1.2195380    -0.0166250
  C        0.9713990     1.2224970    -0.0766470
  C        2.3756580    -1.2011840     0.0524460
  C        2.3651700     1.2207630    -0.0118790
  C        3.0655170     0.0141320     0.0587200
  H        0.4311260    -2.1548100    -0.0413950
  H        0.4102460     2.1495350    -0.1499850
  H        2.9234210    -2.1387710     0.0978390
  H        2.9045270     2.1643280    -0.0189110
  H        4.1513520     0.0202670     0.1091490
  H       -2.3021640     0.6943620     1.6969290
units angstrom
no_reorient  #important for SAPT in psi4, default
symmetry c1  #important for SAPT in psi4, default
}

set PROPERTIES_ORIGIN ["COM"]
properties('MP2/aug-cc-pvtz', properties = ['dipole'])
--------------------------------------------------------------------------

    Molecular point group: c1
  Charge       = 0
  Multiplicity = 1
  Basis Set: AUG-CC-PVTZ
    Blend: AUG-CC-PVTZ
  Basis Set: (AUG-CC-PVTZ AUX)
    Blend: AUG-CC-PVTZ-JKFIT

    Orbital Energies [Eh]
    ---------------------

    Doubly Occupied:

       1A    -92.233616     2A    -20.633644     3A    -20.569791
       4A    -20.566289     5A    -11.290408     6A    -11.276254
       7A    -11.275762     8A    -11.271854     9A    -11.264917
      10A    -11.264615    11A     -9.196471    12A     -6.882095
      13A     -6.880842    14A     -6.880550    15A     -1.497801
      16A     -1.384357    17A     -1.357202    18A     -1.188262
      19A     -1.066797    20A     -1.048272    21A     -0.928456
      22A     -0.860861    23A     -0.832465    24A     -0.759273
      25A     -0.736312    26A     -0.697254    27A     -0.684658
      28A     -0.660651    29A     -0.646421    30A     -0.629930
      31A     -0.620595    32A     -0.581569    33A     -0.552503
      34A     -0.538288    35A     -0.528183    36A     -0.521376
      37A     -0.510224    38A     -0.489913    39A     -0.481429
      40A     -0.375795    41A     -0.366238

  @DF-RHF Final Energy:  -852.95677008620589

   => Energetics <=

    Nuclear Repulsion Energy =            634.2394614856981434
    One-Electron Energy =               -2430.3280754220859308
    Two-Electron Energy =                 943.1318438501820083
    Total Energy =                       -852.9567700862058928
  Basis Set: (AUG-CC-PVTZ AUX)
    Blend: AUG-CC-PVTZ-RI
    Molecular point group: c1

    Geometry (in Angstrom), charge = 0, multiplicity = 1:

       Center              X                  Y                   Z               Mass
    ------------   -----------------  -----------------  -----------------  -----------------
         S           -1.415365658511    -0.010551309794    -0.126775181167    31.972071174400
         O           -1.788890658511    -0.132742309794     1.469912818833    15.994914619570
         O           -1.868807058511     1.309820190206    -0.562770981167    15.994914619570
         O           -1.845843658511    -1.246721309794    -0.759220181167    15.994914619570
         C            0.352246341489     0.001635690206    -0.067002181167    12.000000000000
         C            1.033412341489    -1.215738309794    -0.005841181167    12.000000000000
         C            1.022000341489     1.226296690206    -0.065863181167    12.000000000000
         C            2.426259341489    -1.197384309794     0.063229818833    12.000000000000
         C            2.415771341489     1.224562690206    -0.001095181167    12.000000000000
         C            3.116118341489     0.017931690206     0.069503818833    12.000000000000
         H            0.481727341489    -2.151010309794    -0.030611181167     1.007825032230
         H            0.460847341489     2.153334690206    -0.139201181167     1.007825032230
         H            2.974022341489    -2.134971309794     0.108622818833     1.007825032230
         H            2.955128341489     2.168127690206    -0.008127181167     1.007825032230
         H            4.201953341489     0.024066690206     0.119932818833     1.007825032230
         H           -2.251562658511     0.698161690206     1.707712818833     1.007825032230

  Basis Set: AUG-CC-PVTZ
    Blend: AUG-CC-PVTZ
  Basis Set: (AUG-CC-PVTZ AUX)
    Blend: AUG-CC-PVTZ-JKFIT
	 Reference Energy          =    -852.9567700862058928 [Eh]
	 Singles Energy            =      -0.0000000000000000 [Eh]
	 Same-Spin Energy          =      -0.5327875851327610 [Eh]
	 Opposite-Spin Energy      =      -1.5540663394844252 [Eh]
	 Correlation Energy        =      -2.0868539246171860 [Eh]
	 Total Energy              =    -855.0436240108231232 [Eh]

	 ================> DF-SCS-MP2 Energies <==================
	-----------------------------------------------------------
	 SCS Same-Spin Scale       =       0.3333333333333333 [-]
	 SCS Opposite-Spin Scale   =       1.2000000000000000 [-]
	 SCS Same-Spin Energy      =      -0.1775958617109203 [Eh]
	 SCS Opposite-Spin Energy  =      -1.8648796073813101 [Eh]
	 SCS Correlation Energy    =      -2.0424754690922304 [Eh]
	 SCS Total Energy          =    -854.9992455552981028 [Eh]
	-----------------------------------------------------------

  Dipole Moment: [D]
     X:     3.6866      Y:     1.0364      Z:     1.9724     Total:     4.3076

*** Psi4 exiting successfully. Buy a developer a beer!
