                               Psi4 1.3.2 release

  ==> Input File <==

--------------------------------------------------------------------------
#psi4
#
memory 32 gb

molecule  {
0 1
  S       -1.4659670    -0.0143510    -0.1375590
  O       -1.8394920    -0.1365420     1.4591290
  O       -1.9435910     1.2980210    -0.5718830
  O       -1.8964450    -1.2505210    -0.7700040
  C        0.3016450    -0.0021640    -0.0777860
  C        0.9828110    -1.2195380    -0.0166250
  C        0.9713990     1.2224970    -0.0766470
  C        2.3756580    -1.2011840     0.0524460
  C        2.3651700     1.2207630    -0.0118790
  C        3.0655170     0.0141320     0.0587200
  H        0.4311260    -2.1548100    -0.0413950
  H        0.4102460     2.1495350    -0.1499850
  H        2.9234210    -2.1387710     0.0978390
  H        2.9045270     2.1643280    -0.0189110
  H        4.1513520     0.0202670     0.1091490
  H       -2.3965566     0.8638799     1.7454441
units angstrom
no_reorient  #important for SAPT in psi4, default
symmetry c1  #important for SAPT in psi4, default
}

set PROPERTIES_ORIGIN ["COM"]
properties('MP2/aug-cc-pvtz', properties = ['dipole'])
--------------------------------------------------------------------------

    Molecular point group: c1
  Charge       = 0
  Multiplicity = 1
  Basis Set: AUG-CC-PVTZ
    Blend: AUG-CC-PVTZ
  Basis Set: (AUG-CC-PVTZ AUX)
    Blend: AUG-CC-PVTZ-JKFIT

    Orbital Energies [Eh]
    ---------------------

    Doubly Occupied:

       1A    -92.229482     2A    -20.640963     3A    -20.566139
       4A    -20.562722     5A    -11.289922     6A    -11.275648
       7A    -11.274969     8A    -11.271160     9A    -11.264355
      10A    -11.263975    11A     -9.192414    12A     -6.877988
      13A     -6.876785    14A     -6.876541    15A     -1.486888
      16A     -1.355998    17A     -1.352392    18A     -1.187431
      19A     -1.065124    20A     -1.047607    21A     -0.919521
      22A     -0.860116    23A     -0.821975    24A     -0.749545
      25A     -0.713523    26A     -0.692133    27A     -0.680003
      28A     -0.654510    29A     -0.645387    30A     -0.619877
      31A     -0.617497    32A     -0.574508    33A     -0.551230
      34A     -0.535487    35A     -0.527493    36A     -0.516652
      37A     -0.505692    38A     -0.485068    39A     -0.478562
      40A     -0.374747    41A     -0.365595

  @DF-RHF Final Energy:  -852.92225547672683

   => Energetics <=

    Nuclear Repulsion Energy =            632.8679064681933824
    One-Electron Energy =               -2427.8850734895950154
    Two-Electron Energy =                 942.0949115446749147
    Total Energy =                       -852.9222554767268321
  Basis Set: (AUG-CC-PVTZ AUX)
    Blend: AUG-CC-PVTZ-RI
    Molecular point group: c1

    Geometry (in Angstrom), charge = 0, multiplicity = 1:

       Center              X                  Y                   Z               Mass
    ------------   -----------------  -----------------  -----------------  -----------------
         S           -1.412315542289    -0.010822778411    -0.127253872484    31.972071174400
         O           -1.785840542289    -0.133013778411     1.469434127516    15.994914619570
         O           -1.889939542289     1.301549221589    -0.561577872484    15.994914619570
         O           -1.842793542289    -1.246992778411    -0.759698872484    15.994914619570
         C            0.355296457711     0.001364221589    -0.067480872484    12.000000000000
         C            1.036462457711    -1.216009778411    -0.006319872484    12.000000000000
         C            1.025050457711     1.226025221589    -0.066341872484    12.000000000000
         C            2.429309457711    -1.197655778411     0.062751127516    12.000000000000
         C            2.418821457711     1.224291221589    -0.001573872484    12.000000000000
         C            3.119168457711     0.017660221589     0.069025127516    12.000000000000
         H            0.484777457711    -2.151281778411    -0.031089872484     1.007825032230
         H            0.463897457711     2.153063221589    -0.139679872484     1.007825032230
         H            2.977072457711    -2.135242778411     0.108144127516     1.007825032230
         H            2.958178457711     2.167856221589    -0.008605872484     1.007825032230
         H            4.205003457711     0.023795221589     0.119454127516     1.007825032230
         H           -2.342905142289     0.867408121589     1.755749227516     1.007825032230

  Basis Set: AUG-CC-PVTZ
    Blend: AUG-CC-PVTZ
  Basis Set: (AUG-CC-PVTZ AUX)
    Blend: AUG-CC-PVTZ-JKFIT
	 Reference Energy          =    -852.9222554767268321 [Eh]
	 Singles Energy            =      -0.0000000000000000 [Eh]
	 Same-Spin Energy          =      -0.5351952513326264 [Eh]
	 Opposite-Spin Energy      =      -1.5601579373283716 [Eh]
	 Correlation Energy        =      -2.0953531886609982 [Eh]
	 Total Energy              =    -855.0176086653877974 [Eh]

	 ================> DF-SCS-MP2 Energies <==================
	-----------------------------------------------------------
	 SCS Same-Spin Scale       =       0.3333333333333333 [-]
	 SCS Opposite-Spin Scale   =       1.2000000000000000 [-]
	 SCS Same-Spin Energy      =      -0.1783984171108755 [Eh]
	 SCS Opposite-Spin Energy  =      -1.8721895247940459 [Eh]
	 SCS Correlation Energy    =      -2.0505879419049213 [Eh]
	 SCS Total Energy          =    -854.9728434186317827 [Eh]
	-----------------------------------------------------------

  Dipole Moment: [D]
     X:     3.5726      Y:     1.2623      Z:     2.1272     Total:     4.3453

*** Psi4 exiting successfully. Buy a developer a beer!
