                               Psi4 1.3.2 release

  ==> Input File <==

--------------------------------------------------------------------------
#psi4
#
memory 32 gb

molecule  {
0 1
  S       -1.4659670    -0.0143510    -0.1375590
  O       -1.7268823    -0.1371307     1.4813025
  O       -1.9435910     1.2980210    -0.5718830
  O       -1.8964450    -1.2505210    -0.7700040
  C        0.3016450    -0.0021640    -0.0777860
  C        0.9828110    -1.2195380    -0.0166250
  C        0.9713990     1.2224970    -0.0766470
  C        2.3756580    -1.2011840     0.0524460
  C        2.3651700     1.2207630    -0.0118790
  C        3.0655170     0.0141320     0.0587200
  H        0.4311260    -2.1548100    -0.0413950
  H        0.4102460     2.1495350    -0.1499850
  H        2.9234210    -2.1387710     0.0978390
  H        2.9045270     2.1643280    -0.0189110
  H        4.1513520     0.0202670     0.1091490
  H       -2.3021640     0.6943620     1.6969290
units angstrom
no_reorient  #important for SAPT in psi4, default
symmetry c1  #important for SAPT in psi4, default
}

set PROPERTIES_ORIGIN ["COM"]
properties('MP2/aug-cc-pvtz', properties = ['dipole'])
--------------------------------------------------------------------------

    Molecular point group: c1
  Charge       = 0
  Multiplicity = 1
  Basis Set: AUG-CC-PVTZ
    Blend: AUG-CC-PVTZ
  Basis Set: (AUG-CC-PVTZ AUX)
    Blend: AUG-CC-PVTZ-JKFIT

    Orbital Energies [Eh]
    ---------------------

    Doubly Occupied:

       1A    -92.233404     2A    -20.639741     3A    -20.573358
       4A    -20.567463     5A    -11.288140     6A    -11.274017
       7A    -11.273479     8A    -11.269518     9A    -11.263445
      10A    -11.263143    11A     -9.196504    12A     -6.882121
      13A     -6.880829    14A     -6.880577    15A     -1.496652
      16A     -1.380026    17A     -1.358405    18A     -1.186343
      19A     -1.064957    20A     -1.046479    21A     -0.925527
      22A     -0.859182    23A     -0.826829    24A     -0.751574
      25A     -0.733787    26A     -0.697631    27A     -0.685229
      28A     -0.658528    29A     -0.644955    30A     -0.631119
      31A     -0.618885    32A     -0.582343    33A     -0.552500
      34A     -0.537068    35A     -0.526605    36A     -0.522932
      37A     -0.510591    38A     -0.490540    39A     -0.480780
      40A     -0.373137    41A     -0.364652

  @DF-RHF Final Energy:  -852.94940554470793

   => Energetics <=

    Nuclear Repulsion Energy =            634.6441723043049024
    One-Electron Energy =               -2431.2011659961171972
    Two-Electron Energy =                 943.6075881471043658
    Total Energy =                       -852.9494055447079290
  Basis Set: (AUG-CC-PVTZ AUX)
    Blend: AUG-CC-PVTZ-RI
    Molecular point group: c1

    Geometry (in Angstrom), charge = 0, multiplicity = 1:

       Center              X                  Y                   Z               Mass
    ------------   -----------------  -----------------  -----------------  -----------------
         S           -1.424317242117    -0.009681915792    -0.129189070083    31.972071174400
         O           -1.685232542117    -0.132461615792     1.489672429917    15.994914619570
         O           -1.901941242117     1.302690084208    -0.563513070083    15.994914619570
         O           -1.854795242117    -1.245851915792    -0.761634070083    15.994914619570
         C            0.343294757883     0.002505084208    -0.069416070083    12.000000000000
         C            1.024460757883    -1.214868915792    -0.008255070083    12.000000000000
         C            1.013048757883     1.227166084208    -0.068277070083    12.000000000000
         C            2.417307757883    -1.196514915792     0.060815929917    12.000000000000
         C            2.406819757883     1.225432084208    -0.003509070083    12.000000000000
         C            3.107166757883     0.018801084208     0.067089929917    12.000000000000
         H            0.472775757883    -2.150140915792    -0.033025070083     1.007825032230
         H            0.451895757883     2.154204084208    -0.141615070083     1.007825032230
         H            2.965070757883    -2.134101915792     0.106208929917     1.007825032230
         H            2.946176757883     2.168997084208    -0.010541070083     1.007825032230
         H            4.193001757883     0.024936084208     0.117518929917     1.007825032230
         H           -2.260514242117     0.699031084208     1.705298929917     1.007825032230

  Basis Set: AUG-CC-PVTZ
    Blend: AUG-CC-PVTZ
  Basis Set: (AUG-CC-PVTZ AUX)
    Blend: AUG-CC-PVTZ-JKFIT
	 Reference Energy          =    -852.9494055447079290 [Eh]
	 Singles Energy            =      -0.0000000000000000 [Eh]
	 Same-Spin Energy          =      -0.5338968246791869 [Eh]
	 Opposite-Spin Energy      =      -1.5565124832049193 [Eh]
	 Correlation Energy        =      -2.0904093078841059 [Eh]
	 Total Energy              =    -855.0398148525920305 [Eh]

	 ================> DF-SCS-MP2 Energies <==================
	-----------------------------------------------------------
	 SCS Same-Spin Scale       =       0.3333333333333333 [-]
	 SCS Opposite-Spin Scale   =       1.2000000000000000 [-]
	 SCS Same-Spin Energy      =      -0.1779656082263956 [Eh]
	 SCS Opposite-Spin Energy  =      -1.8678149798459032 [Eh]
	 SCS Correlation Energy    =      -2.0457805880722990 [Eh]
	 SCS Total Energy          =    -854.9951861327801907 [Eh]
	-----------------------------------------------------------

  Dipole Moment: [D]
     X:     3.4036      Y:     1.0432      Z:     1.9669     Total:     4.0671

*** Psi4 exiting successfully. Buy a developer a beer!
