                               Psi4 1.3.2 release

  ==> Input File <==

--------------------------------------------------------------------------
#psi4
#
memory 32 gb

molecule  {
0 1
  S       -1.4659670    -0.0143510    -0.1375590
  O       -1.8394920    -0.1365420     1.4591290
  O       -1.9994581     1.2502699    -0.6427356
  O       -1.8964450    -1.2505210    -0.7700040
  C        0.3016450    -0.0021640    -0.0777860
  C        0.9828110    -1.2195380    -0.0166250
  C        0.9713990     1.2224970    -0.0766470
  C        2.3756580    -1.2011840     0.0524460
  C        2.3651700     1.2207630    -0.0118790
  C        3.0655170     0.0141320     0.0587200
  H        0.4311260    -2.1548100    -0.0413950
  H        0.4102460     2.1495350    -0.1499850
  H        2.9234210    -2.1387710     0.0978390
  H        2.9045270     2.1643280    -0.0189110
  H        4.1513520     0.0202670     0.1091490
  H       -2.3021640     0.6943620     1.6969290
units angstrom
no_reorient  #important for SAPT in psi4, default
symmetry c1  #important for SAPT in psi4, default
}

set PROPERTIES_ORIGIN ["COM"]
properties('MP2/aug-cc-pvtz', properties = ['dipole'])
--------------------------------------------------------------------------

    Molecular point group: c1
  Charge       = 0
  Multiplicity = 1
  Basis Set: AUG-CC-PVTZ
    Blend: AUG-CC-PVTZ
  Basis Set: (AUG-CC-PVTZ AUX)
    Blend: AUG-CC-PVTZ-JKFIT

    Orbital Energies [Eh]
    ---------------------

    Doubly Occupied:

       1A    -92.231903     2A    -20.636091     3A    -20.568586
       4A    -20.558104     5A    -11.293896     6A    -11.279072
       7A    -11.278000     8A    -11.273757     9A    -11.266979
      10A    -11.266549    11A     -9.194972    12A     -6.880548
      13A     -6.879244    14A     -6.879105    15A     -1.496329
      16A     -1.385860    17A     -1.349750    18A     -1.190673
      19A     -1.069473    20A     -1.050426    21A     -0.930346
      22A     -0.863054    23A     -0.833596    24A     -0.760609
      25A     -0.735273    26A     -0.698558    27A     -0.682963
      28A     -0.661971    29A     -0.648055    30A     -0.627157
      31A     -0.622382    32A     -0.582717    33A     -0.554762
      34A     -0.538780    35A     -0.530325    36A     -0.521323
      37A     -0.504719    38A     -0.485925    39A     -0.480252
      40A     -0.377948    41A     -0.368244

  @DF-RHF Final Energy:  -852.95655308371613

   => Energetics <=

    Nuclear Repulsion Energy =            633.5069879934762866
    One-Electron Energy =               -2428.8505265914272968
    Two-Electron Energy =                 942.3869855142348797
    Total Energy =                       -852.9565530837161305
  Basis Set: (AUG-CC-PVTZ AUX)
    Blend: AUG-CC-PVTZ-RI
    Molecular point group: c1

    Geometry (in Angstrom), charge = 0, multiplicity = 1:

       Center              X                  Y                   Z               Mass
    ------------   -----------------  -----------------  -----------------  -----------------
         S           -1.407262129364    -0.004907608293    -0.119771924076    31.972071174400
         O           -1.780787129364    -0.127098608293     1.476916075924    15.994914619570
         O           -1.940753229364     1.259713291707    -0.624948524076    15.994914619570
         O           -1.837740129364    -1.241077608293    -0.752216924076    15.994914619570
         C            0.360349870636     0.007279391707    -0.059998924076    12.000000000000
         C            1.041515870636    -1.210094608293     0.001162075924    12.000000000000
         C            1.030103870636     1.231940391707    -0.058859924076    12.000000000000
         C            2.434362870636    -1.191740608293     0.070233075924    12.000000000000
         C            2.423874870636     1.230206391707     0.005908075924    12.000000000000
         C            3.124221870636     0.023575391707     0.076507075924    12.000000000000
         H            0.489830870636    -2.145366608293    -0.023607924076     1.007825032230
         H            0.468950870636     2.158978391707    -0.132197924076     1.007825032230
         H            2.982125870636    -2.129327608293     0.115626075924     1.007825032230
         H            2.963231870636     2.173771391707    -0.001123924076     1.007825032230
         H            4.210056870636     0.029710391707     0.126936075924     1.007825032230
         H           -2.243459129364     0.703805391707     1.714716075924     1.007825032230

  Basis Set: AUG-CC-PVTZ
    Blend: AUG-CC-PVTZ
  Basis Set: (AUG-CC-PVTZ AUX)
    Blend: AUG-CC-PVTZ-JKFIT
	 Reference Energy          =    -852.9565530837161305 [Eh]
	 Singles Energy            =      -0.0000000000000000 [Eh]
	 Same-Spin Energy          =      -0.5325332018132081 [Eh]
	 Opposite-Spin Energy      =      -1.5536685881714802 [Eh]
	 Correlation Energy        =      -2.0862017899846883 [Eh]
	 Total Energy              =    -855.0427548737008010 [Eh]

	 ================> DF-SCS-MP2 Energies <==================
	-----------------------------------------------------------
	 SCS Same-Spin Scale       =       0.3333333333333333 [-]
	 SCS Opposite-Spin Scale   =       1.2000000000000000 [-]
	 SCS Same-Spin Energy      =      -0.1775110672710694 [Eh]
	 SCS Opposite-Spin Energy  =      -1.8644023058057761 [Eh]
	 SCS Correlation Energy    =      -2.0419133730768455 [Eh]
	 SCS Total Energy          =    -854.9984664567929258 [Eh]
	-----------------------------------------------------------

  Dipole Moment: [D]
     X:     3.9499      Y:     1.1670      Z:     2.1483     Total:     4.6453

*** Psi4 exiting successfully. Buy a developer a beer!
