                               Psi4 1.3.2 release

  ==> Input File <==

--------------------------------------------------------------------------
#psi4
#
memory 32 gb

molecule  {
0 1
  S       -1.4552060    -0.1990658    -0.1314299
  O       -1.8394920    -0.1365420     1.4591290
  O       -1.9435910     1.2980210    -0.5718830
  O       -1.8964450    -1.2505210    -0.7700040
  C        0.3016450    -0.0021640    -0.0777860
  C        0.9828110    -1.2195380    -0.0166250
  C        0.9713990     1.2224970    -0.0766470
  C        2.3756580    -1.2011840     0.0524460
  C        2.3651700     1.2207630    -0.0118790
  C        3.0655170     0.0141320     0.0587200
  H        0.4311260    -2.1548100    -0.0413950
  H        0.4102460     2.1495350    -0.1499850
  H        2.9234210    -2.1387710     0.0978390
  H        2.9045270     2.1643280    -0.0189110
  H        4.1513520     0.0202670     0.1091490
  H       -2.3021640     0.6943620     1.6969290
units angstrom
no_reorient  #important for SAPT in psi4, default
symmetry c1  #important for SAPT in psi4, default
}

set PROPERTIES_ORIGIN ["COM"]
properties('MP2/aug-cc-pvtz', properties = ['dipole'])
--------------------------------------------------------------------------

    Molecular point group: c1
  Charge       = 0
  Multiplicity = 1
  Basis Set: AUG-CC-PVTZ
    Blend: AUG-CC-PVTZ
  Basis Set: (AUG-CC-PVTZ AUX)
    Blend: AUG-CC-PVTZ-JKFIT

    Orbital Energies [Eh]
    ---------------------

    Doubly Occupied:

       1A    -92.222670     2A    -20.627315     3A    -20.601198
       4A    -20.526176     5A    -11.293258     6A    -11.277882
       7A    -11.277231     8A    -11.273119     9A    -11.266130
      10A    -11.265930    11A     -9.191598    12A     -6.877506
      13A     -6.875620    14A     -6.874586    15A     -1.557803
      16A     -1.415117    17A     -1.265683    18A     -1.189396
      19A     -1.069656    20A     -1.049100    21A     -0.932149
      22A     -0.862204    23A     -0.838860    24A     -0.771133
      25A     -0.747357    26A     -0.702937    27A     -0.696738
      28A     -0.658425    29A     -0.650270    30A     -0.643261
      31A     -0.621058    32A     -0.584374    33A     -0.574823
      34A     -0.541481    35A     -0.532836    36A     -0.530769
      37A     -0.487426    38A     -0.449113    39A     -0.444396
      40A     -0.377241    41A     -0.367272

  @DF-RHF Final Energy:  -852.89511369181616

   => Energetics <=

    Nuclear Repulsion Energy =            634.6356129881449988
    One-Electron Energy =               -2431.0392620470470320
    Two-Electron Energy =                 943.5085353670857558
    Total Energy =                       -852.8951136918161637
  Basis Set: (AUG-CC-PVTZ AUX)
    Blend: AUG-CC-PVTZ-RI
    Molecular point group: c1

    Geometry (in Angstrom), charge = 0, multiplicity = 1:

       Center              X                  Y                   Z               Mass
    ------------   -----------------  -----------------  -----------------  -----------------
         S           -1.404334113285    -0.157079259984    -0.122055543273    31.972071174400
         O           -1.788620113285    -0.094555459984     1.468503356727    15.994914619570
         O           -1.892719113285     1.340007540016    -0.562508643273    15.994914619570
         O           -1.845573113285    -1.208534459984    -0.760629643273    15.994914619570
         C            0.352516886715     0.039822540016    -0.068411643273    12.000000000000
         C            1.033682886715    -1.177551459984    -0.007250643273    12.000000000000
         C            1.022270886715     1.264483540016    -0.067272643273    12.000000000000
         C            2.426529886715    -1.159197459984     0.061820356727    12.000000000000
         C            2.416041886715     1.262749540016    -0.002504643273    12.000000000000
         C            3.116388886715     0.056118540016     0.068094356727    12.000000000000
         H            0.481997886715    -2.112823459984    -0.032020643273     1.007825032230
         H            0.461117886715     2.191521540016    -0.140610643273     1.007825032230
         H            2.974292886715    -2.096784459984     0.107213356727     1.007825032230
         H            2.955398886715     2.206314540016    -0.009536643273     1.007825032230
         H            4.202223886715     0.062253540016     0.118523356727     1.007825032230
         H           -2.251292113285     0.736348540016     1.706303356727     1.007825032230

  Basis Set: AUG-CC-PVTZ
    Blend: AUG-CC-PVTZ
  Basis Set: (AUG-CC-PVTZ AUX)
    Blend: AUG-CC-PVTZ-JKFIT
	 Reference Energy          =    -852.8951136918161637 [Eh]
	 Singles Energy            =      -0.0000000000000000 [Eh]
	 Same-Spin Energy          =      -0.5311001440502560 [Eh]
	 Opposite-Spin Energy      =      -1.5520502151572446 [Eh]
	 Correlation Energy        =      -2.0831503592075005 [Eh]
	 Total Energy              =    -854.9782640510236433 [Eh]

	 ================> DF-SCS-MP2 Energies <==================
	-----------------------------------------------------------
	 SCS Same-Spin Scale       =       0.3333333333333333 [-]
	 SCS Opposite-Spin Scale   =       1.2000000000000000 [-]
	 SCS Same-Spin Energy      =      -0.1770333813500853 [Eh]
	 SCS Opposite-Spin Energy  =      -1.8624602581886935 [Eh]
	 SCS Correlation Energy    =      -2.0394936395387790 [Eh]
	 SCS Total Energy          =    -854.9346073313549823 [Eh]
	-----------------------------------------------------------

  Dipole Moment: [D]
     X:     4.0277      Y:    -0.6136      Z:     2.0017     Total:     4.5394

*** Psi4 exiting successfully. Buy a developer a beer!
