                               Psi4 1.3.2 release

  ==> Input File <==

--------------------------------------------------------------------------
#psi4
#
memory 32 gb

molecule  {
0 1
  S       -1.4659670    -0.0143510    -0.1375590
  O       -1.9502819    -0.1353580     1.4291766
  O       -1.9435910     1.2980210    -0.5718830
  O       -1.8964450    -1.2505210    -0.7700040
  C        0.3016450    -0.0021640    -0.0777860
  C        0.9828110    -1.2195380    -0.0166250
  C        0.9713990     1.2224970    -0.0766470
  C        2.3756580    -1.2011840     0.0524460
  C        2.3651700     1.2207630    -0.0118790
  C        3.0655170     0.0141320     0.0587200
  H        0.4311260    -2.1548100    -0.0413950
  H        0.4102460     2.1495350    -0.1499850
  H        2.9234210    -2.1387710     0.0978390
  H        2.9045270     2.1643280    -0.0189110
  H        4.1513520     0.0202670     0.1091490
  H       -2.3021640     0.6943620     1.6969290
units angstrom
no_reorient  #important for SAPT in psi4, default
symmetry c1  #important for SAPT in psi4, default
}

set PROPERTIES_ORIGIN ["COM"]
properties('MP2/aug-cc-pvtz', properties = ['dipole'])
--------------------------------------------------------------------------

    Molecular point group: c1
  Charge       = 0
  Multiplicity = 1
  Basis Set: AUG-CC-PVTZ
    Blend: AUG-CC-PVTZ
  Basis Set: (AUG-CC-PVTZ AUX)
    Blend: AUG-CC-PVTZ-JKFIT

    Orbital Energies [Eh]
    ---------------------

    Doubly Occupied:

       1A    -92.233022     2A    -20.626637     3A    -20.565492
       4A    -20.562923     5A    -11.294800     6A    -11.279986
       7A    -11.279356     8A    -11.275271     9A    -11.267553
      10A    -11.267231    11A     -9.195729    12A     -6.881382
      13A     -6.880081    14A     -6.879830    15A     -1.498175
      16A     -1.386097    17A     -1.353796    18A     -1.191537
      19A     -1.070005    20A     -1.051297    21A     -0.931382
      22A     -0.863811    23A     -0.838515    24A     -0.767495
      25A     -0.734939    26A     -0.697024    27A     -0.683279
      28A     -0.663175    29A     -0.648923    30A     -0.627045
      31A     -0.623341    32A     -0.579978    33A     -0.553245
      34A     -0.539782    35A     -0.531015    36A     -0.518929
      37A     -0.508028    38A     -0.487915    39A     -0.481803
      40A     -0.379531    41A     -0.368992

  @DF-RHF Final Energy:  -852.95815844732283

   => Energetics <=

    Nuclear Repulsion Energy =            633.5615526488544447
    One-Electron Energy =               -2428.9027269880293716
    Two-Electron Energy =                 942.3830158918519828
    Total Energy =                       -852.9581584473228304
  Basis Set: (AUG-CC-PVTZ AUX)
    Blend: AUG-CC-PVTZ-RI
    Molecular point group: c1

    Geometry (in Angstrom), charge = 0, multiplicity = 1:

       Center              X                  Y                   Z               Mass
    ------------   -----------------  -----------------  -----------------  -----------------
         S           -1.401702227070    -0.009861368384    -0.123912301402    31.972071174400
         O           -1.886017127070    -0.130868368384     1.442823298598    15.994914619570
         O           -1.879326227070     1.302510631616    -0.558236301402    15.994914619570
         O           -1.832180227070    -1.246031368384    -0.756357301402    15.994914619570
         C            0.365909772930     0.002325631616    -0.064139301402    12.000000000000
         C            1.047075772930    -1.215048368384    -0.002978301402    12.000000000000
         C            1.035663772930     1.226986631616    -0.063000301402    12.000000000000
         C            2.439922772930    -1.196694368384     0.066092698598    12.000000000000
         C            2.429434772930     1.225252631616     0.001767698598    12.000000000000
         C            3.129781772930     0.018621631616     0.072366698598    12.000000000000
         H            0.495390772930    -2.150320368384    -0.027748301402     1.007825032230
         H            0.474510772930     2.154024631616    -0.136338301402     1.007825032230
         H            2.987685772930    -2.134281368384     0.111485698598     1.007825032230
         H            2.968791772930     2.168817631616    -0.005264301402     1.007825032230
         H            4.215616772930     0.024756631616     0.122795698598     1.007825032230
         H           -2.237899227070     0.698851631616     1.710575698598     1.007825032230

  Basis Set: AUG-CC-PVTZ
    Blend: AUG-CC-PVTZ
  Basis Set: (AUG-CC-PVTZ AUX)
    Blend: AUG-CC-PVTZ-JKFIT
	 Reference Energy          =    -852.9581584473228304 [Eh]
	 Singles Energy            =      -0.0000000000000000 [Eh]
	 Same-Spin Energy          =      -0.5319019414545453 [Eh]
	 Opposite-Spin Energy      =      -1.5521744762759484 [Eh]
	 Correlation Energy        =      -2.0840764177304938 [Eh]
	 Total Energy              =    -855.0422348650532740 [Eh]

	 ================> DF-SCS-MP2 Energies <==================
	-----------------------------------------------------------
	 SCS Same-Spin Scale       =       0.3333333333333333 [-]
	 SCS Opposite-Spin Scale   =       1.2000000000000000 [-]
	 SCS Same-Spin Energy      =      -0.1773006471515151 [Eh]
	 SCS Opposite-Spin Energy  =      -1.8626093715311380 [Eh]
	 SCS Correlation Energy    =      -2.0399100186826531 [Eh]
	 SCS Total Energy          =    -854.9980684660055203 [Eh]
	-----------------------------------------------------------

  Dipole Moment: [D]
     X:     4.1396      Y:     1.0519      Z:     1.9930     Total:     4.7133

*** Psi4 exiting successfully. Buy a developer a beer!
