                               Psi4 1.3.2 release

  ==> Input File <==

--------------------------------------------------------------------------
#psi4
#
memory 32 gb

molecule  {
0 1
  S       -1.4659670    -0.0143510    -0.1375590
  O       -1.7940605    -0.1216800     1.2649252
  O       -1.9435910     1.2980210    -0.5718830
  O       -1.8964450    -1.2505210    -0.7700040
  C        0.3016450    -0.0021640    -0.0777860
  C        0.9828110    -1.2195380    -0.0166250
  C        0.9713990     1.2224970    -0.0766470
  C        2.3756580    -1.2011840     0.0524460
  C        2.3651700     1.2207630    -0.0118790
  C        3.0655170     0.0141320     0.0587200
  H        0.4311260    -2.1548100    -0.0413950
  H        0.4102460     2.1495350    -0.1499850
  H        2.9234210    -2.1387710     0.0978390
  H        2.9045270     2.1643280    -0.0189110
  H        4.1513520     0.0202670     0.1091490
  H       -2.3021640     0.6943620     1.6969290
units angstrom
no_reorient  #important for SAPT in psi4, default
symmetry c1  #important for SAPT in psi4, default
}

set PROPERTIES_ORIGIN ["COM"]
properties('MP2/aug-cc-pvtz', properties = ['dipole'])
--------------------------------------------------------------------------

    Molecular point group: c1
  Charge       = 0
  Multiplicity = 1
  Basis Set: AUG-CC-PVTZ
    Blend: AUG-CC-PVTZ
  Basis Set: (AUG-CC-PVTZ AUX)
    Blend: AUG-CC-PVTZ-JKFIT

    Orbital Energies [Eh]
    ---------------------

    Doubly Occupied:

       1A    -92.218210     2A    -20.650140     3A    -20.550754
       4A    -20.547601     5A    -11.281144     6A    -11.269700
       7A    -11.269125     8A    -11.266113     9A    -11.260490
      10A    -11.260170    11A     -9.183794    12A     -6.870623
      13A     -6.867988    14A     -6.867672    15A     -1.559187
      16A     -1.391031    17A     -1.344749    18A     -1.182588
      19A     -1.061339    20A     -1.043003    21A     -0.936407
      22A     -0.855953    23A     -0.850285    24A     -0.770983
      25A     -0.745315    26A     -0.708161    27A     -0.701224
      28A     -0.655102    29A     -0.644488    30A     -0.615545
      31A     -0.615270    32A     -0.593824    33A     -0.546528
      34A     -0.538764    35A     -0.522940    36A     -0.517955
      37A     -0.496781    38A     -0.476337    39A     -0.469874
      40A     -0.369043    41A     -0.361658

  @DF-RHF Final Energy:  -852.93867472148429

   => Energetics <=

    Nuclear Repulsion Energy =            642.9309703840780230
    One-Electron Energy =               -2447.8635709532227338
    Two-Electron Energy =                 951.9939258476603072
    Total Energy =                       -852.9386747214842899
  Basis Set: (AUG-CC-PVTZ AUX)
    Blend: AUG-CC-PVTZ-RI
    Molecular point group: c1

    Geometry (in Angstrom), charge = 0, multiplicity = 1:

       Center              X                  Y                   Z               Mass
    ------------   -----------------  -----------------  -----------------  -----------------
         S           -1.417516710675    -0.011246009072    -0.107284931064    31.972071174400
         O           -1.745610210675    -0.118575009072     1.295199268936    15.994914619570
         O           -1.895140710675     1.301125990928    -0.541608931064    15.994914619570
         O           -1.847994710675    -1.247416009072    -0.739729931064    15.994914619570
         C            0.350095289325     0.000940990928    -0.047511931064    12.000000000000
         C            1.031261289325    -1.216433009072     0.013649068936    12.000000000000
         C            1.019849289325     1.225601990928    -0.046372931064    12.000000000000
         C            2.424108289325    -1.198079009072     0.082720068936    12.000000000000
         C            2.413620289325     1.223867990928     0.018395068936    12.000000000000
         C            3.113967289325     0.017236990928     0.088994068936    12.000000000000
         H            0.479576289325    -2.151705009072    -0.011120931064     1.007825032230
         H            0.458696289325     2.152639990928    -0.119710931064     1.007825032230
         H            2.971871289325    -2.135666009072     0.128113068936     1.007825032230
         H            2.952977289325     2.167432990928     0.011363068936     1.007825032230
         H            4.199802289325     0.023371990928     0.139423068936     1.007825032230
         H           -2.253713710675     0.697466990928     1.727203068936     1.007825032230

  Basis Set: AUG-CC-PVTZ
    Blend: AUG-CC-PVTZ
  Basis Set: (AUG-CC-PVTZ AUX)
    Blend: AUG-CC-PVTZ-JKFIT
	 Reference Energy          =    -852.9386747214842899 [Eh]
	 Singles Energy            =      -0.0000000000000000 [Eh]
	 Same-Spin Energy          =      -0.5313935661157324 [Eh]
	 Opposite-Spin Energy      =      -1.5474326096946589 [Eh]
	 Correlation Energy        =      -2.0788261758103914 [Eh]
	 Total Energy              =    -855.0175008972946671 [Eh]

	 ================> DF-SCS-MP2 Energies <==================
	-----------------------------------------------------------
	 SCS Same-Spin Scale       =       0.3333333333333333 [-]
	 SCS Opposite-Spin Scale   =       1.2000000000000000 [-]
	 SCS Same-Spin Energy      =      -0.1771311887052441 [Eh]
	 SCS Opposite-Spin Energy  =      -1.8569191316335907 [Eh]
	 SCS Correlation Energy    =      -2.0340503203388347 [Eh]
	 SCS Total Energy          =    -854.9727250418230824 [Eh]
	-----------------------------------------------------------

  Dipole Moment: [D]
     X:     3.0759      Y:     1.0726      Z:     3.2464     Total:     4.5990

*** Psi4 exiting successfully. Buy a developer a beer!
