                               Psi4 1.3.2 release

  ==> Input File <==

--------------------------------------------------------------------------
#psi4
#
memory 32 gb

molecule  {
0 1
  S       -1.4659670    -0.0143510    -0.1375590
  O       -1.8394920    -0.1365420     1.4591290
  O       -1.9435910     1.2980210    -0.5718830
  O       -1.8964450    -1.2505210    -0.7700040
  C        0.3016450    -0.0021640    -0.0777860
  C        0.9828110    -1.2195380    -0.0166250
  C        0.9713990     1.2224970    -0.0766470
  C        2.3756580    -1.2011840     0.0524460
  C        2.3651700     1.2207630    -0.0118790
  C        3.0655170     0.0141320     0.0587200
  H        0.4311260    -2.1548100    -0.0413950
  H        0.4102460     2.1495350    -0.1499850
  H        2.9234210    -2.1387710     0.0978390
  H        2.9045270     2.1643280    -0.0189110
  H        4.1513520     0.0202670     0.1091490
  H       -2.3493603     0.7791210     1.7211865
units angstrom
no_reorient  #important for SAPT in psi4, default
symmetry c1  #important for SAPT in psi4, default
}

set PROPERTIES_ORIGIN ["COM"]
properties('MP2/aug-cc-pvtz', properties = ['dipole'])
--------------------------------------------------------------------------

    Molecular point group: c1
  Charge       = 0
  Multiplicity = 1
  Basis Set: AUG-CC-PVTZ
    Blend: AUG-CC-PVTZ
  Basis Set: (AUG-CC-PVTZ AUX)
    Blend: AUG-CC-PVTZ-JKFIT

    Orbital Energies [Eh]
    ---------------------

    Doubly Occupied:

       1A    -92.231379     2A    -20.637856     3A    -20.567759
       4A    -20.563947     5A    -11.290713     6A    -11.276384
       7A    -11.275747     8A    -11.271829     9A    -11.264956
      10A    -11.264610    11A     -9.194286    12A     -6.879884
      13A     -6.878646    14A     -6.878398    15A     -1.491225
      16A     -1.367733    17A     -1.354666    18A     -1.188227
      19A     -1.066311    20A     -1.048286    21A     -0.923463
      22A     -0.860832    23A     -0.826379    24A     -0.753053
      25A     -0.724803    26A     -0.695056    27A     -0.682238
      28A     -0.658060    29A     -0.646169    30A     -0.624529
      31A     -0.620537    32A     -0.577592    33A     -0.552167
      34A     -0.536916    35A     -0.528175    36A     -0.518859
      37A     -0.507599    38A     -0.487258    39A     -0.480146
      40A     -0.375634    41A     -0.366240

  @DF-RHF Final Energy:  -852.94399327263739

   => Energetics <=

    Nuclear Repulsion Energy =            633.4326597677252266
    One-Electron Energy =               -2428.8762096019136152
    Two-Electron Energy =                 942.4995565615510031
    Total Energy =                       -852.9439932726373854
  Basis Set: (AUG-CC-PVTZ AUX)
    Blend: AUG-CC-PVTZ-RI
    Molecular point group: c1

    Geometry (in Angstrom), charge = 0, multiplicity = 1:

       Center              X                  Y                   Z               Mass
    ------------   -----------------  -----------------  -----------------  -----------------
         S           -1.412616583296    -0.010282144831    -0.127099145687    31.972071174400
         O           -1.786141583296    -0.132473144831     1.469588854313    15.994914619570
         O           -1.890240583296     1.302089855169    -0.561423145687    15.994914619570
         O           -1.843094583296    -1.246452144831    -0.759544145687    15.994914619570
         C            0.354995416704     0.001904855169    -0.067326145687    12.000000000000
         C            1.036161416704    -1.215469144831    -0.006165145687    12.000000000000
         C            1.024749416704     1.226565855169    -0.066187145687    12.000000000000
         C            2.429008416704    -1.197115144831     0.062905854313    12.000000000000
         C            2.418520416704     1.224831855169    -0.001419145687    12.000000000000
         C            3.118867416704     0.018200855169     0.069179854313    12.000000000000
         H            0.484476416704    -2.150741144831    -0.030935145687     1.007825032230
         H            0.463596416704     2.153603855169    -0.139525145687     1.007825032230
         H            2.976771416704    -2.134702144831     0.108298854313     1.007825032230
         H            2.957877416704     2.168396855169    -0.008451145687     1.007825032230
         H            4.204702416704     0.024335855169     0.119608854313     1.007825032230
         H           -2.296009883296     0.783189855169     1.731646354313     1.007825032230

  Basis Set: AUG-CC-PVTZ
    Blend: AUG-CC-PVTZ
  Basis Set: (AUG-CC-PVTZ AUX)
    Blend: AUG-CC-PVTZ-JKFIT
	 Reference Energy          =    -852.9439932726373854 [Eh]
	 Singles Energy            =      -0.0000000000000000 [Eh]
	 Same-Spin Energy          =      -0.5339728320095957 [Eh]
	 Opposite-Spin Energy      =      -1.5569320626090308 [Eh]
	 Correlation Energy        =      -2.0909048946186264 [Eh]
	 Total Energy              =    -855.0348981672559603 [Eh]

	 ================> DF-SCS-MP2 Energies <==================
	-----------------------------------------------------------
	 SCS Same-Spin Scale       =       0.3333333333333333 [-]
	 SCS Opposite-Spin Scale   =       1.2000000000000000 [-]
	 SCS Same-Spin Energy      =      -0.1779909440031985 [Eh]
	 SCS Opposite-Spin Energy  =      -1.8683184751308368 [Eh]
	 SCS Correlation Energy    =      -2.0463094191340354 [Eh]
	 SCS Total Energy          =    -854.9903026917713760 [Eh]
	-----------------------------------------------------------

  Dipole Moment: [D]
     X:     3.6721      Y:     1.1537      Z:     2.0520     Total:     4.3619

*** Psi4 exiting successfully. Buy a developer a beer!
