                               Psi4 1.3.2 release

  ==> Input File <==

--------------------------------------------------------------------------
#psi4
#
memory 32 gb

molecule  {
0 1
  S       -1.4659670    -0.0143510    -0.1375590
  O       -1.8852361    -0.0314974     1.4523415
  O       -1.9435910     1.2980210    -0.5718830
  O       -1.8964450    -1.2505210    -0.7700040
  C        0.3016450    -0.0021640    -0.0777860
  C        0.9828110    -1.2195380    -0.0166250
  C        0.9713990     1.2224970    -0.0766470
  C        2.3756580    -1.2011840     0.0524460
  C        2.3651700     1.2207630    -0.0118790
  C        3.0655170     0.0141320     0.0587200
  H        0.4311260    -2.1548100    -0.0413950
  H        0.4102460     2.1495350    -0.1499850
  H        2.9234210    -2.1387710     0.0978390
  H        2.9045270     2.1643280    -0.0189110
  H        4.1513520     0.0202670     0.1091490
  H       -2.3021640     0.6943620     1.6969290
units angstrom
no_reorient  #important for SAPT in psi4, default
symmetry c1  #important for SAPT in psi4, default
}

set PROPERTIES_ORIGIN ["COM"]
properties('MP2/aug-cc-pvtz', properties = ['dipole'])
--------------------------------------------------------------------------

    Molecular point group: c1
  Charge       = 0
  Multiplicity = 1
  Basis Set: AUG-CC-PVTZ
    Blend: AUG-CC-PVTZ
  Basis Set: (AUG-CC-PVTZ AUX)
    Blend: AUG-CC-PVTZ-JKFIT

    Orbital Energies [Eh]
    ---------------------

    Doubly Occupied:

       1A    -92.235926     2A    -20.617615     3A    -20.571135
       4A    -20.562337     5A    -11.293921     6A    -11.278909
       7A    -11.278609     8A    -11.274308     9A    -11.266842
      10A    -11.266548    11A     -9.198330    12A     -6.884060
      13A     -6.882659    14A     -6.882409    15A     -1.503659
      16A     -1.400064    17A     -1.354466    18A     -1.190802
      19A     -1.070103    20A     -1.050507    21A     -0.939667
      22A     -0.863099    23A     -0.846051    24A     -0.771832
      25A     -0.738443    26A     -0.697132    27A     -0.685440
      28A     -0.661915    29A     -0.648239    30A     -0.629616
      31A     -0.622618    32A     -0.581073    33A     -0.553887
      34A     -0.540510    35A     -0.530317    36A     -0.521012
      37A     -0.509605    38A     -0.489945    39A     -0.481305
      40A     -0.378649    41A     -0.368254

  @DF-RHF Final Energy:  -852.94952751603228

   => Energetics <=

    Nuclear Repulsion Energy =            634.3333685783331930
    One-Electron Energy =               -2430.3221514579786344
    Two-Electron Energy =                 943.0392553636131652
    Total Energy =                       -852.9495275160322763
  Basis Set: (AUG-CC-PVTZ AUX)
    Blend: AUG-CC-PVTZ-RI
    Molecular point group: c1

    Geometry (in Angstrom), charge = 0, multiplicity = 1:

       Center              X                  Y                   Z               Mass
    ------------   -----------------  -----------------  -----------------  -----------------
         S           -1.408286893049    -0.020375304093    -0.126257312593    31.972071174400
         O           -1.827555993049    -0.037521704093     1.463643187407    15.994914619570
         O           -1.885910893049     1.291996695907    -0.560581312593    15.994914619570
         O           -1.838764893049    -1.256545304093    -0.758702312593    15.994914619570
         C            0.359325106951    -0.008188304093    -0.066484312593    12.000000000000
         C            1.040491106951    -1.225562304093    -0.005323312593    12.000000000000
         C            1.029079106951     1.216472695907    -0.065345312593    12.000000000000
         C            2.433338106951    -1.207208304093     0.063747687407    12.000000000000
         C            2.422850106951     1.214738695907    -0.000577312593    12.000000000000
         C            3.123197106951     0.008107695907     0.070021687407    12.000000000000
         H            0.488806106951    -2.160834304093    -0.030093312593     1.007825032230
         H            0.467926106951     2.143510695907    -0.138683312593     1.007825032230
         H            2.981101106951    -2.144795304093     0.109140687407     1.007825032230
         H            2.962207106951     2.158303695907    -0.007609312593     1.007825032230
         H            4.209032106951     0.014242695907     0.120450687407     1.007825032230
         H           -2.244483893049     0.688337695907     1.708230687407     1.007825032230

  Basis Set: AUG-CC-PVTZ
    Blend: AUG-CC-PVTZ
  Basis Set: (AUG-CC-PVTZ AUX)
    Blend: AUG-CC-PVTZ-JKFIT
	 Reference Energy          =    -852.9495275160322763 [Eh]
	 Singles Energy            =      -0.0000000000000000 [Eh]
	 Same-Spin Energy          =      -0.5309898212605423 [Eh]
	 Opposite-Spin Energy      =      -1.5502706313417038 [Eh]
	 Correlation Energy        =      -2.0812604526022462 [Eh]
	 Total Energy              =    -855.0307879686345132 [Eh]

	 ================> DF-SCS-MP2 Energies <==================
	-----------------------------------------------------------
	 SCS Same-Spin Scale       =       0.3333333333333333 [-]
	 SCS Opposite-Spin Scale   =       1.2000000000000000 [-]
	 SCS Same-Spin Energy      =      -0.1769966070868474 [Eh]
	 SCS Opposite-Spin Energy  =      -1.8603247576100446 [Eh]
	 SCS Correlation Energy    =      -2.0373213646968922 [Eh]
	 SCS Total Energy          =    -854.9868488807292124 [Eh]
	-----------------------------------------------------------

  Dipole Moment: [D]
     X:     3.9808      Y:     0.8360      Z:     1.8699     Total:     4.4768

*** Psi4 exiting successfully. Buy a developer a beer!
