                               Psi4 1.3.2 release

  ==> Input File <==

--------------------------------------------------------------------------
#psi4
#
memory 32 gb

molecule  {
0 1
  S       -0.8349460    -1.1774250     0.0297960
  N       -0.1696500     1.2952110    -0.2577190
  C        1.7694220    -0.2160770    -0.5775760
  C        0.1903258    -0.0700254    -0.2767606
  C        2.6425650     0.1799470     0.6157020
  C       -2.0442290     0.0157050     0.2553730
  C       -1.5038950     1.2642780     0.0601800
  H        1.8995250    -1.2779630    -0.8129470
  H        2.0693290     0.3522120    -1.4641890
  H        2.5091790     1.2412210     0.8363590
  H        3.6994690    -0.0050250     0.4023620
  H        2.3648890    -0.3937430     1.5043860
  H       -3.0646880    -0.2455350     0.5019360
  H       -2.0550810     2.1952630     0.1367680
units angstrom
no_reorient  #important for SAPT in psi4, default
symmetry c1  #important for SAPT in psi4, default
}

set PROPERTIES_ORIGIN ["COM"]
properties('MP2/aug-cc-pvtz', properties = ['dipole'])
--------------------------------------------------------------------------

    Molecular point group: c1
  Charge       = 0
  Multiplicity = 1
  Basis Set: AUG-CC-PVTZ
    Blend: AUG-CC-PVTZ
  Basis Set: (AUG-CC-PVTZ AUX)
    Blend: AUG-CC-PVTZ-JKFIT

    Orbital Energies [Eh]
    ---------------------

    Doubly Occupied:

       1A    -92.006658     2A    -15.564050     3A    -11.304061
       4A    -11.269538     5A    -11.252003     6A    -11.249178
       7A    -11.219845     8A     -9.012183     9A     -6.693722
      10A     -6.692099    11A     -6.691601    12A     -1.267713
      13A     -1.089980    14A     -1.049901    15A     -0.978855
      16A     -0.854752    17A     -0.784427    18A     -0.735425
      19A     -0.677840    20A     -0.619530    21A     -0.593708
      22A     -0.565373    23A     -0.555749    24A     -0.523839
      25A     -0.511724    26A     -0.495459    27A     -0.473294
      28A     -0.442779    29A     -0.389242    30A     -0.328988

  @DF-RHF Final Energy:  -645.44015419297000

   => Energetics <=

    Nuclear Repulsion Energy =            352.8090940037995438
    One-Electron Energy =               -1584.7114697631654963
    Two-Electron Energy =                 586.4622215663958968
    Total Energy =                       -645.4401541929699988
  Basis Set: (AUG-CC-PVTZ AUX)
    Blend: AUG-CC-PVTZ-RI
    Molecular point group: c1

    Geometry (in Angstrom), charge = 0, multiplicity = 1:

       Center              X                  Y                   Z               Mass
    ------------   -----------------  -----------------  -----------------  -----------------
         S           -0.755855396775    -1.146098654457     0.035280198139    31.972071174400
         N           -0.090559396775     1.326537345543    -0.252234801861    14.003074004430
         C            1.848512603225    -0.184750654457    -0.572091801861    12.000000000000
         C            0.269416403225    -0.038699054457    -0.271276401861    12.000000000000
         C            2.721655603225     0.211273345543     0.621186198139    12.000000000000
         C           -1.965138396775     0.047031345543     0.260857198139    12.000000000000
         C           -1.424804396775     1.295604345543     0.065664198139    12.000000000000
         H            1.978615603225    -1.246636654457    -0.807462801861     1.007825032230
         H            2.148419603225     0.383538345543    -1.458704801861     1.007825032230
         H            2.588269603225     1.272547345543     0.841843198139     1.007825032230
         H            3.778559603225     0.026301345543     0.407846198139     1.007825032230
         H            2.443979603225    -0.362416654457     1.509870198139     1.007825032230
         H           -2.985597396775    -0.214208654457     0.507420198139     1.007825032230
         H           -1.975990396775     2.226589345543     0.142252198139     1.007825032230

  Basis Set: AUG-CC-PVTZ
    Blend: AUG-CC-PVTZ
  Basis Set: (AUG-CC-PVTZ AUX)
    Blend: AUG-CC-PVTZ-JKFIT
	 Reference Energy          =    -645.4401541929699988 [Eh]
	 Singles Energy            =      -0.0000000000000000 [Eh]
	 Same-Spin Energy          =      -0.3352875752418345 [Eh]
	 Opposite-Spin Energy      =      -1.0435131066784242 [Eh]
	 Correlation Energy        =      -1.3788006819202587 [Eh]
	 Total Energy              =    -646.8189548748902098 [Eh]

	 ================> DF-SCS-MP2 Energies <==================
	-----------------------------------------------------------
	 SCS Same-Spin Scale       =       0.3333333333333333 [-]
	 SCS Opposite-Spin Scale   =       1.2000000000000000 [-]
	 SCS Same-Spin Energy      =      -0.1117625250806115 [Eh]
	 SCS Opposite-Spin Energy  =      -1.2522157280141091 [Eh]
	 SCS Correlation Energy    =      -1.3639782530947206 [Eh]
	 SCS Total Energy          =    -646.8041324460647274 [Eh]
	-----------------------------------------------------------

  Dipole Moment: [D]
     X:    -0.7082      Y:    -1.6768      Z:     0.3533     Total:     1.8542

*** Psi4 exiting successfully. Buy a developer a beer!
