                               Psi4 1.3.2 release

  ==> Input File <==

--------------------------------------------------------------------------
#psi4
#
memory 32 gb

molecule  {
0 1
  S       -0.8349460    -1.1774250     0.0297960
  N       -0.1696500     1.2952110    -0.2577190
  C        1.7694220    -0.2160770    -0.5775760
  C        0.3234810     0.0737960    -0.3165740
  C        2.6425650     0.1799470     0.6157020
  C       -2.0442290     0.0157050     0.2553730
  C       -1.4614102     1.2436525     0.0517488
  H        1.8995250    -1.2779630    -0.8129470
  H        2.0693290     0.3522120    -1.4641890
  H        2.5091790     1.2412210     0.8363590
  H        3.6994690    -0.0050250     0.4023620
  H        2.3648890    -0.3937430     1.5043860
  H       -3.0646880    -0.2455350     0.5019360
  H       -2.0550810     2.1952630     0.1367680
units angstrom
no_reorient  #important for SAPT in psi4, default
symmetry c1  #important for SAPT in psi4, default
}

set PROPERTIES_ORIGIN ["COM"]
properties('MP2/aug-cc-pvtz', properties = ['dipole'])
--------------------------------------------------------------------------

    Molecular point group: c1
  Charge       = 0
  Multiplicity = 1
  Basis Set: AUG-CC-PVTZ
    Blend: AUG-CC-PVTZ
  Basis Set: (AUG-CC-PVTZ AUX)
    Blend: AUG-CC-PVTZ-JKFIT

    Orbital Energies [Eh]
    ---------------------

    Doubly Occupied:

       1A    -91.994841     2A    -15.563907     3A    -11.313748
       4A    -11.269077     5A    -11.258872     6A    -11.245896
       7A    -11.224553     8A     -8.995501     9A     -6.676359
      10A     -6.675915    11A     -6.675209    12A     -1.287787
      13A     -1.073414    14A     -1.065851    15A     -0.973170
      16A     -0.869381    17A     -0.794300    18A     -0.730731
      19A     -0.679242    20A     -0.629309    21A     -0.601886
      22A     -0.574383    23A     -0.559719    24A     -0.520260
      25A     -0.512494    26A     -0.501491    27A     -0.490092
      28A     -0.429217    29A     -0.391613    30A     -0.325438

  @DF-RHF Final Energy:  -645.48290758328028

   => Energetics <=

    Nuclear Repulsion Energy =            351.9985800155230891
    One-Electron Energy =               -1583.1556609953081534
    Two-Electron Energy =                 585.6741733965046706
    Total Energy =                       -645.4829075832802801
  Basis Set: (AUG-CC-PVTZ AUX)
    Blend: AUG-CC-PVTZ-RI
    Molecular point group: c1

    Geometry (in Angstrom), charge = 0, multiplicity = 1:

       Center              X                  Y                   Z               Mass
    ------------   -----------------  -----------------  -----------------  -----------------
         S           -0.774502494751    -1.159177941735     0.040402162288    31.972071174400
         N           -0.109206494751     1.313458058265    -0.247112837712    14.003074004430
         C            1.829865505249    -0.197829941735    -0.566969837712    12.000000000000
         C            0.383924505249     0.092043058265    -0.305967837712    12.000000000000
         C            2.703008505249     0.198194058265     0.626308162288    12.000000000000
         C           -1.983785494751     0.033952058265     0.265979162288    12.000000000000
         C           -1.400966694751     1.261899558265     0.062354962288    12.000000000000
         H            1.959968505249    -1.259715941735    -0.802340837712     1.007825032230
         H            2.129772505249     0.370459058265    -1.453582837712     1.007825032230
         H            2.569622505249     1.259468058265     0.846965162288     1.007825032230
         H            3.759912505249     0.013222058265     0.412968162288     1.007825032230
         H            2.425332505249    -0.375495941735     1.514992162288     1.007825032230
         H           -3.004244494751    -0.227287941735     0.512542162288     1.007825032230
         H           -1.994637494751     2.213510058265     0.147374162288     1.007825032230

  Basis Set: AUG-CC-PVTZ
    Blend: AUG-CC-PVTZ
  Basis Set: (AUG-CC-PVTZ AUX)
    Blend: AUG-CC-PVTZ-JKFIT
	 Reference Energy          =    -645.4829075832802801 [Eh]
	 Singles Energy            =      -0.0000000000000000 [Eh]
	 Same-Spin Energy          =      -0.3329871832339833 [Eh]
	 Opposite-Spin Energy      =      -1.0396286619159474 [Eh]
	 Correlation Energy        =      -1.3726158451499306 [Eh]
	 Total Energy              =    -646.8555234284301605 [Eh]

	 ================> DF-SCS-MP2 Energies <==================
	-----------------------------------------------------------
	 SCS Same-Spin Scale       =       0.3333333333333333 [-]
	 SCS Opposite-Spin Scale   =       1.2000000000000000 [-]
	 SCS Same-Spin Energy      =      -0.1109957277446611 [Eh]
	 SCS Opposite-Spin Energy  =      -1.2475543942991367 [Eh]
	 SCS Correlation Energy    =      -1.3585501220437979 [Eh]
	 SCS Total Energy          =    -646.8414577053240464 [Eh]
	-----------------------------------------------------------

  Dipole Moment: [D]
     X:    -0.3142      Y:    -1.2911      Z:     0.2613     Total:     1.3543

*** Psi4 exiting successfully. Buy a developer a beer!
