                               Psi4 1.4a3.dev225

  ==> Input File <==

--------------------------------------------------------------------------
#psi4
#
memory 32 gb

molecule  {
0 1
  S       -0.8349460    -1.1774250     0.0297960
  N       -0.1696500     1.2952110    -0.2577190
  C        1.7694220    -0.2160770    -0.5775760
  C        0.3234810     0.0737960    -0.3165740
  C        2.6425650     0.1799470     0.6157020
  C       -2.0442290     0.0157050     0.2553730
  C       -1.5038950     1.2642780     0.0601800
  H        1.8995250    -1.2779630    -0.8129470
  H        2.0693290     0.3522120    -1.4641890
  H        2.5091790     1.2412210     0.8363590
  H        3.6994690    -0.0050250     0.4023620
  H        2.3648890    -0.3937430     1.5043860
  H       -3.0646880    -0.2455350     0.5019360
  H       -2.0804901     2.2381805     0.1402986
units angstrom
no_reorient  #important for SAPT in psi4, default
symmetry c1  #important for SAPT in psi4, default
}

set PROPERTIES_ORIGIN ["COM"]
properties('MP2/aug-cc-pvtz', properties = ['dipole'])
--------------------------------------------------------------------------

    Molecular point group: c1
  Charge       = 0
  Multiplicity = 1
  Basis Set: AUG-CC-PVTZ
    Blend: AUG-CC-PVTZ
  Basis Set: (AUG-CC-PVTZ AUX)
    Blend: AUG-CC-PVTZ-JKFIT

    Orbital Energies [Eh]
    ---------------------

    Doubly Occupied:

       1A    -91.994532     2A    -15.565674     3A    -11.313103
       4A    -11.274639     5A    -11.261538     6A    -11.245920
       7A    -11.224299     8A     -8.995279     9A     -6.676182
      10A     -6.675670    11A     -6.674952    12A     -1.275092
      13A     -1.072104    14A     -1.061890    15A     -0.973570
      16A     -0.869604    17A     -0.789618    18A     -0.728450
      19A     -0.676160    20A     -0.628010    21A     -0.601043
      22A     -0.570372    23A     -0.556306    24A     -0.518442
      25A     -0.512278    26A     -0.502630    27A     -0.495368
      28A     -0.425048    29A     -0.387738    30A     -0.328721

  @DF-RHF Final Energy:  -645.48346701306298

   => Energetics <=

    Nuclear Repulsion Energy =            350.7510257755273528
    One-Electron Energy =               -1580.7205217953562624
    Two-Electron Energy =                 584.4860290067659889
    Total Energy =                       -645.4834670130629775
  Basis Set: (AUG-CC-PVTZ AUX)
    Blend: AUG-CC-PVTZ-RI
    Molecular point group: c1

    Geometry (in Angstrom), charge = 0, multiplicity = 1:

       Center              X                  Y                   Z               Mass
    ------------   -----------------  -----------------  -----------------  -----------------
         S           -0.769765470031    -1.161750352030     0.039475570225    31.972071174400
         N           -0.104469470031     1.310885647970    -0.248039429775    14.003074004430
         C            1.834602529969    -0.200402352030    -0.567896429775    12.000000000000
         C            0.388661529969     0.089470647970    -0.306894429775    12.000000000000
         C            2.707745529969     0.195621647970     0.625381570225    12.000000000000
         C           -1.979048470031     0.031379647970     0.265052570225    12.000000000000
         C           -1.438714470031     1.279952647970     0.069859570225    12.000000000000
         H            1.964705529969    -1.262288352030    -0.803267429775     1.007825032230
         H            2.134509529969     0.367886647970    -1.454509429775     1.007825032230
         H            2.574359529969     1.256895647970     0.846038570225     1.007825032230
         H            3.764649529969     0.010649647970     0.412041570225     1.007825032230
         H            2.430069529969    -0.378068352030     1.514065570225     1.007825032230
         H           -2.999507470031    -0.229860352030     0.511615570225     1.007825032230
         H           -2.015309570031     2.253855147970     0.149978170225     1.007825032230

  Basis Set: AUG-CC-PVTZ
    Blend: AUG-CC-PVTZ
  Basis Set: (AUG-CC-PVTZ AUX)
    Blend: AUG-CC-PVTZ-JKFIT
	 Reference Energy          =    -645.4834670130629775 [Eh]
	 Singles Energy            =      -0.0000000000000000 [Eh]
	 Same-Spin Energy          =      -0.3324455377506625 [Eh]
	 Opposite-Spin Energy      =      -1.0400609384038118 [Eh]
	 Correlation Energy        =      -1.3725064761544743 [Eh]
	 Total Energy              =    -646.8559734892174902 [Eh]

	 ================> DF-SCS-MP2 Energies <==================
	-----------------------------------------------------------
	 SCS Same-Spin Scale       =       0.3333333333333333 [-]
	 SCS Opposite-Spin Scale   =       1.2000000000000000 [-]
	 SCS Same-Spin Energy      =      -0.1108151792502208 [Eh]
	 SCS Opposite-Spin Energy  =      -1.2480731260845741 [Eh]
	 SCS Correlation Energy    =      -1.3588883053347949 [Eh]
	 SCS Total Energy          =    -646.8423553183977219 [Eh]
	-----------------------------------------------------------

  Dipole Moment: [D]
     X:    -0.3192      Y:    -1.2580      Z:     0.2644     Total:     1.3245

*** Psi4 exiting successfully. Buy a developer a beer!
