                               Psi4 1.3.2 release

  ==> Input File <==

--------------------------------------------------------------------------
#psi4
#
memory 32 gb

molecule  {
0 1
  S       -0.8349460    -1.1774250     0.0297960
  N       -0.1696500     1.2952110    -0.2577190
  C        1.7694220    -0.2160770    -0.5775760
  C        0.4445892     0.1320066    -0.3480646
  C        2.6425650     0.1799470     0.6157020
  C       -2.0442290     0.0157050     0.2553730
  C       -1.5038950     1.2642780     0.0601800
  H        1.8995250    -1.2779630    -0.8129470
  H        2.0693290     0.3522120    -1.4641890
  H        2.5091790     1.2412210     0.8363590
  H        3.6994690    -0.0050250     0.4023620
  H        2.3648890    -0.3937430     1.5043860
  H       -3.0646880    -0.2455350     0.5019360
  H       -2.0550810     2.1952630     0.1367680
units angstrom
no_reorient  #important for SAPT in psi4, default
symmetry c1  #important for SAPT in psi4, default
}

set PROPERTIES_ORIGIN ["COM"]
properties('MP2/aug-cc-pvtz', properties = ['dipole'])
--------------------------------------------------------------------------

    Molecular point group: c1
  Charge       = 0
  Multiplicity = 1
  Basis Set: AUG-CC-PVTZ
    Blend: AUG-CC-PVTZ
  Basis Set: (AUG-CC-PVTZ AUX)
    Blend: AUG-CC-PVTZ-JKFIT

    Orbital Energies [Eh]
    ---------------------

    Doubly Occupied:

       1A    -91.983090     2A    -15.568741     3A    -11.323160
       4A    -11.268459     5A    -11.263698     6A    -11.245892
       7A    -11.230647     8A     -8.982505     9A     -6.663377
      10A     -6.662788    11A     -6.662187    12A     -1.267339
      13A     -1.099064    14A     -1.050008    15A     -0.968634
      16A     -0.887524    17A     -0.791793    18A     -0.726089
      19A     -0.680788    20A     -0.639895    21A     -0.620450
      22A     -0.582478    23A     -0.551761    24A     -0.529782
      25A     -0.515892    26A     -0.500759    27A     -0.490858
      28A     -0.401589    29A     -0.385260    30A     -0.319668

  @DF-RHF Final Energy:  -645.46514339903354

   => Energetics <=

    Nuclear Repulsion Energy =            349.8094863058464057
    One-Electron Energy =               -1578.8209157621370196
    Two-Electron Energy =                 583.5462860572571344
    Total Energy =                       -645.4651433990335363
  Basis Set: (AUG-CC-PVTZ AUX)
    Blend: AUG-CC-PVTZ-RI
    Molecular point group: c1

    Geometry (in Angstrom), charge = 0, multiplicity = 1:

       Center              X                  Y                   Z               Mass
    ------------   -----------------  -----------------  -----------------  -----------------
         S           -0.782849672177    -1.167547700792     0.042850299905    31.972071174400
         N           -0.117553672177     1.305088299208    -0.244664700095    14.003074004430
         C            1.821518327823    -0.206199700792    -0.564521700095    12.000000000000
         C            0.496685527823     0.141883899208    -0.335010300095    12.000000000000
         C            2.694661327823     0.189824299208     0.628756299905    12.000000000000
         C           -1.992132672177     0.025582299208     0.268427299905    12.000000000000
         C           -1.451798672177     1.274155299208     0.073234299905    12.000000000000
         H            1.951621327823    -1.268085700792    -0.799892700095     1.007825032230
         H            2.121425327823     0.362089299208    -1.451134700095     1.007825032230
         H            2.561275327823     1.251098299208     0.849413299905     1.007825032230
         H            3.751565327823     0.004852299208     0.415416299905     1.007825032230
         H            2.416985327823    -0.383865700792     1.517440299905     1.007825032230
         H           -3.012591672177    -0.235657700792     0.514990299905     1.007825032230
         H           -2.002984672177     2.205140299208     0.149822299905     1.007825032230

  Basis Set: AUG-CC-PVTZ
    Blend: AUG-CC-PVTZ
  Basis Set: (AUG-CC-PVTZ AUX)
    Blend: AUG-CC-PVTZ-JKFIT
	 Reference Energy          =    -645.4651433990335363 [Eh]
	 Singles Energy            =      -0.0000000000000000 [Eh]
	 Same-Spin Energy          =      -0.3340313022838649 [Eh]
	 Opposite-Spin Energy      =      -1.0427014061361792 [Eh]
	 Correlation Energy        =      -1.3767327084200440 [Eh]
	 Total Energy              =    -646.8418761074535723 [Eh]

	 ================> DF-SCS-MP2 Energies <==================
	-----------------------------------------------------------
	 SCS Same-Spin Scale       =       0.3333333333333333 [-]
	 SCS Opposite-Spin Scale   =       1.2000000000000000 [-]
	 SCS Same-Spin Energy      =      -0.1113437674279550 [Eh]
	 SCS Opposite-Spin Energy  =      -1.2512416873634151 [Eh]
	 SCS Correlation Energy    =      -1.3625854547913701 [Eh]
	 SCS Total Energy          =    -646.8277288538248513 [Eh]
	-----------------------------------------------------------

  Dipole Moment: [D]
     X:     0.1702      Y:    -0.9174      Z:     0.1751     Total:     0.9494

*** Psi4 exiting successfully. Buy a developer a beer!
