                               Psi4 1.3.2 release

  ==> Input File <==

--------------------------------------------------------------------------
#psi4
#
memory 32 gb

molecule  {
0 1
  S       -0.8151062    -1.1558296     0.0239138
  N       -0.1696500     1.2952110    -0.2577190
  C        1.7694220    -0.2160770    -0.5775760
  C        0.3234810     0.0737960    -0.3165740
  C        2.6425650     0.1799470     0.6157020
  C       -2.0442290     0.0157050     0.2553730
  C       -1.5038950     1.2642780     0.0601800
  H        1.8995250    -1.2779630    -0.8129470
  H        2.0693290     0.3522120    -1.4641890
  H        2.5091790     1.2412210     0.8363590
  H        3.6994690    -0.0050250     0.4023620
  H        2.3648890    -0.3937430     1.5043860
  H       -3.0646880    -0.2455350     0.5019360
  H       -2.0550810     2.1952630     0.1367680
units angstrom
no_reorient  #important for SAPT in psi4, default
symmetry c1  #important for SAPT in psi4, default
}

set PROPERTIES_ORIGIN ["COM"]
properties('MP2/aug-cc-pvtz', properties = ['dipole'])
--------------------------------------------------------------------------

    Molecular point group: c1
  Charge       = 0
  Multiplicity = 1
  Basis Set: AUG-CC-PVTZ
    Blend: AUG-CC-PVTZ
  Basis Set: (AUG-CC-PVTZ AUX)
    Blend: AUG-CC-PVTZ-JKFIT

    Orbital Energies [Eh]
    ---------------------

    Doubly Occupied:

       1A    -91.993752     2A    -15.563347     3A    -11.309530
       4A    -11.269180     5A    -11.260745     6A    -11.245451
       7A    -11.223978     8A     -8.995147     9A     -6.676075
      10A     -6.675579    11A     -6.674832    12A     -1.276585
      13A     -1.072522    14A     -1.063117    15A     -0.977539
      16A     -0.869963    17A     -0.792711    18A     -0.730035
      19A     -0.681150    20A     -0.629000    21A     -0.603024
      22A     -0.573047    23A     -0.558522    24A     -0.519172
      25A     -0.511742    26A     -0.503713    27A     -0.495523
      28A     -0.424575    29A     -0.385998    30A     -0.330515

  @DF-RHF Final Energy:  -645.48631443419947

   => Energetics <=

    Nuclear Repulsion Energy =            352.2039012045233335
    One-Electron Energy =               -1583.6082937092728571
    Two-Electron Energy =                 585.9180780705499956
    Total Energy =                       -645.4863144341994712
  Basis Set: (AUG-CC-PVTZ AUX)
    Blend: AUG-CC-PVTZ-RI
    Molecular point group: c1

    Geometry (in Angstrom), charge = 0, multiplicity = 1:

       Center              X                  Y                   Z               Mass
    ------------   -----------------  -----------------  -----------------  -----------------
         S           -0.755764189800    -1.145880837111     0.035288711985    31.972071174400
         N           -0.110307989800     1.305159762889    -0.246344088015    14.003074004430
         C            1.828764010200    -0.206128237111    -0.566201088015    12.000000000000
         C            0.382823010200     0.083744762889    -0.305199088015    12.000000000000
         C            2.701907010200     0.189895762889     0.627076911985    12.000000000000
         C           -1.984886989800     0.025653762889     0.266747911985    12.000000000000
         C           -1.444552989800     1.274226762889     0.071554911985    12.000000000000
         H            1.958867010200    -1.268014237111    -0.801572088015     1.007825032230
         H            2.128671010200     0.362160762889    -1.452814088015     1.007825032230
         H            2.568521010200     1.251169762889     0.847733911985     1.007825032230
         H            3.758811010200     0.004923762889     0.413736911985     1.007825032230
         H            2.424231010200    -0.383794237111     1.515760911985     1.007825032230
         H           -3.005345989800    -0.235586237111     0.513310911985     1.007825032230
         H           -1.995738989800     2.205211762889     0.148142911985     1.007825032230

  Basis Set: AUG-CC-PVTZ
    Blend: AUG-CC-PVTZ
  Basis Set: (AUG-CC-PVTZ AUX)
    Blend: AUG-CC-PVTZ-JKFIT
	 Reference Energy          =    -645.4863144341994712 [Eh]
	 Singles Energy            =      -0.0000000000000000 [Eh]
	 Same-Spin Energy          =      -0.3324742023739767 [Eh]
	 Opposite-Spin Energy      =      -1.0392941169770835 [Eh]
	 Correlation Energy        =      -1.3717683193510601 [Eh]
	 Total Energy              =    -646.8580827535505477 [Eh]

	 ================> DF-SCS-MP2 Energies <==================
	-----------------------------------------------------------
	 SCS Same-Spin Scale       =       0.3333333333333333 [-]
	 SCS Opposite-Spin Scale   =       1.2000000000000000 [-]
	 SCS Same-Spin Energy      =      -0.1108247341246589 [Eh]
	 SCS Opposite-Spin Energy  =      -1.2471529403725001 [Eh]
	 SCS Correlation Energy    =      -1.3579776744971590 [Eh]
	 SCS Total Energy          =    -646.8442921086966635 [Eh]
	-----------------------------------------------------------

  Dipole Moment: [D]
     X:    -0.3602      Y:    -1.2838      Z:     0.2730     Total:     1.3610

*** Psi4 exiting successfully. Buy a developer a beer!
