                               Psi4 1.3.2 release

  ==> Input File <==

--------------------------------------------------------------------------
#psi4
#
memory 32 gb

molecule  {
0 1
  S       -0.8349460    -1.1774250     0.0297960
  N       -0.1696500     1.2952110    -0.2577190
  C        1.7694220    -0.2160770    -0.5775760
  C        0.4460406    -0.0590779    -0.3387857
  C        2.6425650     0.1799470     0.6157020
  C       -2.0442290     0.0157050     0.2553730
  C       -1.5038950     1.2642780     0.0601800
  H        1.8995250    -1.2779630    -0.8129470
  H        2.0693290     0.3522120    -1.4641890
  H        2.5091790     1.2412210     0.8363590
  H        3.6994690    -0.0050250     0.4023620
  H        2.3648890    -0.3937430     1.5043860
  H       -3.0646880    -0.2455350     0.5019360
  H       -2.0550810     2.1952630     0.1367680
units angstrom
no_reorient  #important for SAPT in psi4, default
symmetry c1  #important for SAPT in psi4, default
}

set PROPERTIES_ORIGIN ["COM"]
properties('MP2/aug-cc-pvtz', properties = ['dipole'])
--------------------------------------------------------------------------

    Molecular point group: c1
  Charge       = 0
  Multiplicity = 1
  Basis Set: AUG-CC-PVTZ
    Blend: AUG-CC-PVTZ
  Basis Set: (AUG-CC-PVTZ AUX)
    Blend: AUG-CC-PVTZ-JKFIT

    Orbital Energies [Eh]
    ---------------------

    Doubly Occupied:

       1A    -92.004959     2A    -15.568073     3A    -11.324698
       4A    -11.269134     5A    -11.257623     6A    -11.241628
       7A    -11.229869     8A     -9.003981     9A     -6.684803
      10A     -6.684555    11A     -6.683946    12A     -1.233865
      13A     -1.105019    14A     -1.047597    15A     -0.970992
      16A     -0.891433    17A     -0.771738    18A     -0.735733
      19A     -0.675182    20A     -0.640617    21A     -0.613808
      22A     -0.570701    23A     -0.552459    24A     -0.528878
      25A     -0.512264    26A     -0.499395    27A     -0.496759
      28A     -0.408217    29A     -0.376530    30A     -0.313746

  @DF-RHF Final Energy:  -645.43268268042061

   => Energetics <=

    Nuclear Repulsion Energy =            349.9046604732793639
    One-Electron Energy =               -1578.8782829039478202
    Two-Electron Energy =                 583.5409397502478441
    Total Energy =                       -645.4326826804206121
  Basis Set: (AUG-CC-PVTZ AUX)
    Blend: AUG-CC-PVTZ-RI
    Molecular point group: c1

    Geometry (in Angstrom), charge = 0, multiplicity = 1:

       Center              X                  Y                   Z               Mass
    ------------   -----------------  -----------------  -----------------  -----------------
         S           -0.783003762350    -1.147260913083     0.041865190833    31.972071174400
         N           -0.117707762350     1.325375086917    -0.245649809167    14.003074004430
         C            1.821364237650    -0.185912913083    -0.565506809167    12.000000000000
         C            0.497982837650    -0.028913813083    -0.326716509167    12.000000000000
         C            2.694507237650     0.210111086917     0.627771190833    12.000000000000
         C           -1.992286762350     0.045869086917     0.267442190833    12.000000000000
         C           -1.451952762350     1.294442086917     0.072249190833    12.000000000000
         H            1.951467237650    -1.247798913083    -0.800877809167     1.007825032230
         H            2.121271237650     0.382376086917    -1.452119809167     1.007825032230
         H            2.561121237650     1.271385086917     0.848428190833     1.007825032230
         H            3.751411237650     0.025139086917     0.414431190833     1.007825032230
         H            2.416831237650    -0.363578913083     1.516455190833     1.007825032230
         H           -3.012745762350    -0.215370913083     0.514005190833     1.007825032230
         H           -2.003138762350     2.225427086917     0.148837190833     1.007825032230

  Basis Set: AUG-CC-PVTZ
    Blend: AUG-CC-PVTZ
  Basis Set: (AUG-CC-PVTZ AUX)
    Blend: AUG-CC-PVTZ-JKFIT
	 Reference Energy          =    -645.4326826804206121 [Eh]
	 Singles Energy            =      -0.0000000000000000 [Eh]
	 Same-Spin Energy          =      -0.3390352508882196 [Eh]
	 Opposite-Spin Energy      =      -1.0497602436534135 [Eh]
	 Correlation Energy        =      -1.3887954945416330 [Eh]
	 Total Energy              =    -646.8214781749622944 [Eh]

	 ================> DF-SCS-MP2 Energies <==================
	-----------------------------------------------------------
	 SCS Same-Spin Scale       =       0.3333333333333333 [-]
	 SCS Opposite-Spin Scale   =       1.2000000000000000 [-]
	 SCS Same-Spin Energy      =      -0.1130117502960732 [Eh]
	 SCS Opposite-Spin Energy  =      -1.2597122923840962 [Eh]
	 SCS Correlation Energy    =      -1.3727240426801695 [Eh]
	 SCS Total Energy          =    -646.8054067231007593 [Eh]
	-----------------------------------------------------------

  Dipole Moment: [D]
     X:    -0.3113      Y:    -1.3801      Z:     0.2942     Total:     1.4450

*** Psi4 exiting successfully. Buy a developer a beer!
