                               Psi4 1.4a3.dev225

  ==> Input File <==

--------------------------------------------------------------------------
#psi4
#
memory 32 gb

molecule  {
0 1
  S       -0.8349460    -1.1774250     0.0297960
  N       -0.1696500     1.2952110    -0.2577190
  C        1.7694220    -0.2160770    -0.5775760
  C        0.3234810     0.0737960    -0.3165740
  C        2.6425650     0.1799470     0.6157020
  C       -2.0795116     0.0505163     0.2619545
  C       -1.5038950     1.2642780     0.0601800
  H        1.8995250    -1.2779630    -0.8129470
  H        2.0693290     0.3522120    -1.4641890
  H        2.5091790     1.2412210     0.8363590
  H        3.6994690    -0.0050250     0.4023620
  H        2.3648890    -0.3937430     1.5043860
  H       -3.0646880    -0.2455350     0.5019360
  H       -2.0550810     2.1952630     0.1367680
units angstrom
no_reorient  #important for SAPT in psi4, default
symmetry c1  #important for SAPT in psi4, default
}

set PROPERTIES_ORIGIN ["COM"]
properties('MP2/aug-cc-pvtz', properties = ['dipole'])
--------------------------------------------------------------------------

    Molecular point group: c1
  Charge       = 0
  Multiplicity = 1
  Basis Set: AUG-CC-PVTZ
    Blend: AUG-CC-PVTZ
  Basis Set: (AUG-CC-PVTZ AUX)
    Blend: AUG-CC-PVTZ-JKFIT

    Orbital Energies [Eh]
    ---------------------

    Doubly Occupied:

       1A    -91.992415     2A    -15.564806     3A    -11.315521
       4A    -11.269192     5A    -11.261491     6A    -11.246587
       7A    -11.224979     8A     -8.992477     9A     -6.673360
      10A     -6.672801    11A     -6.672160    12A     -1.273919
      13A     -1.073638    14A     -1.053945    15A     -0.978691
      16A     -0.871670    17A     -0.795531    18A     -0.729161
      19A     -0.683067    20A     -0.631444    21A     -0.602417
      22A     -0.574026    23A     -0.557025    24A     -0.518986
      25A     -0.512298    26A     -0.503506    27A     -0.488467
      28A     -0.424257    29A     -0.383715    30A     -0.334343

  @DF-RHF Final Energy:  -645.48558634893368

   => Energetics <=

    Nuclear Repulsion Energy =            350.1642996859778236
    One-Electron Energy =               -1579.5479783795485673
    Two-Electron Energy =                 583.8980923446371207
    Total Energy =                       -645.4855863489336798
  Basis Set: (AUG-CC-PVTZ AUX)
    Blend: AUG-CC-PVTZ-RI
    Molecular point group: c1

    Geometry (in Angstrom), charge = 0, multiplicity = 1:

       Center              X                  Y                   Z               Mass
    ------------   -----------------  -----------------  -----------------  -----------------
         S           -0.766246195917    -1.165063477155     0.038808315284    31.972071174400
         N           -0.100950195917     1.307572522845    -0.248706684716    14.003074004430
         C            1.838121804083    -0.203715477155    -0.568563684716    12.000000000000
         C            0.392180804083     0.086157522845    -0.307561684716    12.000000000000
         C            2.711264804083     0.192308522845     0.624714315284    12.000000000000
         C           -2.010811795917     0.062877822845     0.270966815284    12.000000000000
         C           -1.435195195917     1.276639522845     0.069192315284    12.000000000000
         H            1.968224804083    -1.265601477155    -0.803934684716     1.007825032230
         H            2.138028804083     0.364573522845    -1.455176684716     1.007825032230
         H            2.577878804083     1.253582522845     0.845371315284     1.007825032230
         H            3.768168804083     0.007336522845     0.411374315284     1.007825032230
         H            2.433588804083    -0.381381477155     1.513398315284     1.007825032230
         H           -2.995988195917    -0.233173477155     0.510948315284     1.007825032230
         H           -1.986381195917     2.207624522845     0.145780315284     1.007825032230

  Basis Set: AUG-CC-PVTZ
    Blend: AUG-CC-PVTZ
  Basis Set: (AUG-CC-PVTZ AUX)
    Blend: AUG-CC-PVTZ-JKFIT
	 Reference Energy          =    -645.4855863489336798 [Eh]
	 Singles Energy            =      -0.0000000000000000 [Eh]
	 Same-Spin Energy          =      -0.3313649451742126 [Eh]
	 Opposite-Spin Energy      =      -1.0390027983997410 [Eh]
	 Correlation Energy        =      -1.3703677435739534 [Eh]
	 Total Energy              =    -646.8559540925076590 [Eh]

	 ================> DF-SCS-MP2 Energies <==================
	-----------------------------------------------------------
	 SCS Same-Spin Scale       =       0.3333333333333333 [-]
	 SCS Opposite-Spin Scale   =       1.2000000000000000 [-]
	 SCS Same-Spin Energy      =      -0.1104549817247375 [Eh]
	 SCS Opposite-Spin Energy  =      -1.2468033580796891 [Eh]
	 SCS Correlation Energy    =      -1.3572583398044267 [Eh]
	 SCS Total Energy          =    -646.8428446887380687 [Eh]
	-----------------------------------------------------------

  Dipole Moment: [D]
     X:    -0.3237      Y:    -1.2014      Z:     0.2679     Total:     1.2728

*** Psi4 exiting successfully. Buy a developer a beer!
