                               Psi4 1.4a3.dev225

  ==> Input File <==

--------------------------------------------------------------------------
#psi4
#
memory 32 gb

molecule  {
0 1
  S       -0.8349460    -1.1774250     0.0297960
  N       -0.1696500     1.2952110    -0.2577190
  C        1.7694220    -0.2160770    -0.5775760
  C        0.3234810     0.0737960    -0.3165740
  C        2.6425650     0.1799470     0.6157020
  C       -2.0442290     0.0157050     0.2553730
  C       -1.5038950     1.2642780     0.0601800
  H        1.8995250    -1.2779630    -0.8129470
  H        2.0693290     0.3522120    -1.4641890
  H        2.5091790     1.2412210     0.8363590
  H        3.6994690    -0.0050250     0.4023620
  H        2.3648890    -0.3937430     1.5043860
  H       -3.0175248    -0.2334611     0.4905405
  H       -2.0550810     2.1952630     0.1367680
units angstrom
no_reorient  #important for SAPT in psi4, default
symmetry c1  #important for SAPT in psi4, default
}

set PROPERTIES_ORIGIN ["COM"]
properties('MP2/aug-cc-pvtz', properties = ['dipole'])
--------------------------------------------------------------------------

    Molecular point group: c1
  Charge       = 0
  Multiplicity = 1
  Basis Set: AUG-CC-PVTZ
    Blend: AUG-CC-PVTZ
  Basis Set: (AUG-CC-PVTZ AUX)
    Blend: AUG-CC-PVTZ-JKFIT

    Orbital Energies [Eh]
    ---------------------

    Doubly Occupied:

       1A    -91.993975     2A    -15.564964     3A    -11.312669
       4A    -11.269042     5A    -11.255814     6A    -11.245664
       7A    -11.224149     8A     -8.994754     9A     -6.675662
      10A     -6.675149    11A     -6.674439    12A     -1.274685
      13A     -1.072587    14A     -1.062583    15A     -0.975895
      16A     -0.870511    17A     -0.797565    18A     -0.730067
      19A     -0.684472    20A     -0.630903    21A     -0.602721
      22A     -0.573612    23A     -0.557557    24A     -0.518611
      25A     -0.512207    26A     -0.503660    27A     -0.496587
      28A     -0.424763    29A     -0.387372    30A     -0.328529

  @DF-RHF Final Energy:  -645.48514919949798

   => Energetics <=

    Nuclear Repulsion Energy =            351.2793250036496033
    One-Electron Energy =               -1581.7466161718334661
    Two-Electron Energy =                 584.9821419686859372
    Total Energy =                       -645.4851491994979824
  Basis Set: (AUG-CC-PVTZ AUX)
    Blend: AUG-CC-PVTZ-RI
    Molecular point group: c1

    Geometry (in Angstrom), charge = 0, multiplicity = 1:

       Center              X                  Y                   Z               Mass
    ------------   -----------------  -----------------  -----------------  -----------------
         S           -0.770412556929    -1.161475336777     0.039608657970    31.972071174400
         N           -0.105116556929     1.311160663223    -0.247906342030    14.003074004430
         C            1.833955443071    -0.200127336777    -0.567763342030    12.000000000000
         C            0.388014443071     0.089745663223    -0.306761342030    12.000000000000
         C            2.707098443071     0.195896663223     0.625514657970    12.000000000000
         C           -1.979695556929     0.031654663223     0.265185657970    12.000000000000
         C           -1.439361556929     1.280227663223     0.069992657970    12.000000000000
         H            1.964058443071    -1.262013336777    -0.803134342030     1.007825032230
         H            2.133862443071     0.368161663223    -1.454376342030     1.007825032230
         H            2.573712443071     1.257170663223     0.846171657970     1.007825032230
         H            3.764002443071     0.010924663223     0.412174657970     1.007825032230
         H            2.429422443071    -0.377793336777     1.514198657970     1.007825032230
         H           -2.952991356929    -0.217511436777     0.500353157970     1.007825032230
         H           -1.990547556929     2.211212663223     0.146580657970     1.007825032230

  Basis Set: AUG-CC-PVTZ
    Blend: AUG-CC-PVTZ
  Basis Set: (AUG-CC-PVTZ AUX)
    Blend: AUG-CC-PVTZ-JKFIT
	 Reference Energy          =    -645.4851491994979824 [Eh]
	 Singles Energy            =      -0.0000000000000000 [Eh]
	 Same-Spin Energy          =      -0.3322226775955416 [Eh]
	 Opposite-Spin Energy      =      -1.0394893224362953 [Eh]
	 Correlation Energy        =      -1.3717120000318368 [Eh]
	 Total Energy              =    -646.8568611995298170 [Eh]

	 ================> DF-SCS-MP2 Energies <==================
	-----------------------------------------------------------
	 SCS Same-Spin Scale       =       0.3333333333333333 [-]
	 SCS Opposite-Spin Scale   =       1.2000000000000000 [-]
	 SCS Same-Spin Energy      =      -0.1107408925318472 [Eh]
	 SCS Opposite-Spin Energy  =      -1.2473871869235544 [Eh]
	 SCS Correlation Energy    =      -1.3581280794554016 [Eh]
	 SCS Total Energy          =    -646.8432772789533374 [Eh]
	-----------------------------------------------------------

  Dipole Moment: [D]
     X:    -0.3264      Y:    -1.2481      Z:     0.2649     Total:     1.3170

*** Psi4 exiting successfully. Buy a developer a beer!
