                               Psi4 1.3.2 release

  ==> Input File <==

--------------------------------------------------------------------------
#psi4
#
memory 32 gb

molecule  {
0 1
  S       -0.9195588    -1.0907509     0.0386187
  N       -0.1696500     1.2952110    -0.2577190
  C        1.7694220    -0.2160770    -0.5775760
  C        0.3234810     0.0737960    -0.3165740
  C        2.6425650     0.1799470     0.6157020
  C       -2.0442290     0.0157050     0.2553730
  C       -1.5038950     1.2642780     0.0601800
  H        1.8995250    -1.2779630    -0.8129470
  H        2.0693290     0.3522120    -1.4641890
  H        2.5091790     1.2412210     0.8363590
  H        3.6994690    -0.0050250     0.4023620
  H        2.3648890    -0.3937430     1.5043860
  H       -3.0646880    -0.2455350     0.5019360
  H       -2.0550810     2.1952630     0.1367680
units angstrom
no_reorient  #important for SAPT in psi4, default
symmetry c1  #important for SAPT in psi4, default
}

set PROPERTIES_ORIGIN ["COM"]
properties('MP2/aug-cc-pvtz', properties = ['dipole'])
--------------------------------------------------------------------------

    Molecular point group: c1
  Charge       = 0
  Multiplicity = 1
  Basis Set: AUG-CC-PVTZ
    Blend: AUG-CC-PVTZ
  Basis Set: (AUG-CC-PVTZ AUX)
    Blend: AUG-CC-PVTZ-JKFIT

    Orbital Energies [Eh]
    ---------------------

    Doubly Occupied:

       1A    -91.988830     2A    -15.565567     3A    -11.307036
       4A    -11.264739     5A    -11.251981     6A    -11.246400
       7A    -11.223548     8A     -8.992896     9A     -6.674136
      10A     -6.673274    11A     -6.672488    12A     -1.281671
      13A     -1.091623    14A     -1.066703    15A     -0.971767
      16A     -0.869697    17A     -0.788408    18A     -0.739043
      19A     -0.684987    20A     -0.628087    21A     -0.606454
      22A     -0.571626    23A     -0.563414    24A     -0.524306
      25A     -0.513926    26A     -0.500058    27A     -0.498791
      28A     -0.422897    29A     -0.393949    30A     -0.322047

  @DF-RHF Final Energy:  -645.47556009701373

   => Energetics <=

    Nuclear Repulsion Energy =            354.2340489889345463
    One-Electron Energy =               -1587.6185242531723816
    Two-Electron Energy =                 587.9089151672241087
    Total Energy =                       -645.4755600970137266
  Basis Set: (AUG-CC-PVTZ AUX)
    Blend: AUG-CC-PVTZ-RI
    Molecular point group: c1

    Geometry (in Angstrom), charge = 0, multiplicity = 1:

       Center              X                  Y                   Z               Mass
    ------------   -----------------  -----------------  -----------------  -----------------
         S           -0.830670931946    -1.099210544557     0.045834128303    31.972071174400
         N           -0.080762131946     1.286751355443    -0.250503571697    14.003074004430
         C            1.858309868054    -0.224536644557    -0.570360571697    12.000000000000
         C            0.412368868054     0.065336355443    -0.309358571697    12.000000000000
         C            2.731452868054     0.171487355443     0.622917428303    12.000000000000
         C           -1.955341131946     0.007245355443     0.262588428303    12.000000000000
         C           -1.415007131946     1.255818355443     0.067395428303    12.000000000000
         H            1.988412868054    -1.286422644557    -0.805731571697     1.007825032230
         H            2.158216868054     0.343752355443    -1.456973571697     1.007825032230
         H            2.598066868054     1.232761355443     0.843574428303     1.007825032230
         H            3.788356868054    -0.013484644557     0.409577428303     1.007825032230
         H            2.453776868054    -0.402202644557     1.511601428303     1.007825032230
         H           -2.975800131946    -0.253994644557     0.509151428303     1.007825032230
         H           -1.966193131946     2.186803355443     0.143983428303     1.007825032230

  Basis Set: AUG-CC-PVTZ
    Blend: AUG-CC-PVTZ
  Basis Set: (AUG-CC-PVTZ AUX)
    Blend: AUG-CC-PVTZ-JKFIT
	 Reference Energy          =    -645.4755600970137266 [Eh]
	 Singles Energy            =      -0.0000000000000000 [Eh]
	 Same-Spin Energy          =      -0.3341374879821947 [Eh]
	 Opposite-Spin Energy      =      -1.0395785421620118 [Eh]
	 Correlation Energy        =      -1.3737160301442066 [Eh]
	 Total Energy              =    -646.8492761271579639 [Eh]

	 ================> DF-SCS-MP2 Energies <==================
	-----------------------------------------------------------
	 SCS Same-Spin Scale       =       0.3333333333333333 [-]
	 SCS Opposite-Spin Scale   =       1.2000000000000000 [-]
	 SCS Same-Spin Energy      =      -0.1113791626607316 [Eh]
	 SCS Opposite-Spin Energy  =      -1.2474942505944142 [Eh]
	 SCS Correlation Energy    =      -1.3588734132551457 [Eh]
	 SCS Total Energy          =    -646.8344335102689229 [Eh]
	-----------------------------------------------------------

  Dipole Moment: [D]
     X:    -0.4062      Y:    -1.3053      Z:     0.2828     Total:     1.3960

*** Psi4 exiting successfully. Buy a developer a beer!
