                               Psi4 1.4a3.dev225

  ==> Input File <==

--------------------------------------------------------------------------
#psi4
#
memory 32 gb

molecule  {
0 1
  S       -0.8349460    -1.1774250     0.0297960
  N       -0.1696500     1.2952110    -0.2577190
  C        1.7694220    -0.2160770    -0.5775760
  C        0.3234810     0.0737960    -0.3165740
  C        2.6425650     0.1799470     0.6157020
  C       -2.0442290     0.0157050     0.2553730
  C       -1.4552689     1.2654053     0.0485943
  H        1.8995250    -1.2779630    -0.8129470
  H        2.0693290     0.3522120    -1.4641890
  H        2.5091790     1.2412210     0.8363590
  H        3.6994690    -0.0050250     0.4023620
  H        2.3648890    -0.3937430     1.5043860
  H       -3.0646880    -0.2455350     0.5019360
  H       -2.0550810     2.1952630     0.1367680
units angstrom
no_reorient  #important for SAPT in psi4, default
symmetry c1  #important for SAPT in psi4, default
}

set PROPERTIES_ORIGIN ["COM"]
properties('MP2/aug-cc-pvtz', properties = ['dipole'])
--------------------------------------------------------------------------

    Molecular point group: c1
  Charge       = 0
  Multiplicity = 1
  Basis Set: AUG-CC-PVTZ
    Blend: AUG-CC-PVTZ
  Basis Set: (AUG-CC-PVTZ AUX)
    Blend: AUG-CC-PVTZ-JKFIT

    Orbital Energies [Eh]
    ---------------------

    Doubly Occupied:

       1A    -91.995958     2A    -15.563784     3A    -11.313263
       4A    -11.270440     5A    -11.260947     6A    -11.245734
       7A    -11.224293     8A     -8.996439     9A     -6.677289
      10A     -6.676842    11A     -6.676174    12A     -1.287965
      13A     -1.073446    14A     -1.064216    15A     -0.971740
      16A     -0.868476    17A     -0.795890    18A     -0.730325
      19A     -0.679174    20A     -0.630237    21A     -0.602180
      22A     -0.576779    23A     -0.559056    24A     -0.519522
      25A     -0.512445    26A     -0.500596    27A     -0.491244
      28A     -0.427978    29A     -0.392730    30A     -0.321382

  @DF-RHF Final Energy:  -645.48181893987669

   => Energetics <=

    Nuclear Repulsion Energy =            351.7064116211298028
    One-Electron Energy =               -1582.5633666057333357
    Two-Electron Energy =                 585.3751360447269008
    Total Energy =                       -645.4818189398766890
  Basis Set: (AUG-CC-PVTZ AUX)
    Blend: AUG-CC-PVTZ-RI
    Molecular point group: c1

    Geometry (in Angstrom), charge = 0, multiplicity = 1:

       Center              X                  Y                   Z               Mass
    ------------   -----------------  -----------------  -----------------  -----------------
         S           -0.775154495564    -1.161487362100     0.040737064762    31.972071174400
         N           -0.109858495564     1.311148637900    -0.246777935238    14.003074004430
         C            1.829213504436    -0.200139362100    -0.566634935238    12.000000000000
         C            0.383272504436     0.089733637900    -0.305632935238    12.000000000000
         C            2.702356504436     0.195884637900     0.626643064762    12.000000000000
         C           -1.984437495564     0.031642637900     0.266314064762    12.000000000000
         C           -1.395477395564     1.281342937900     0.059535364762    12.000000000000
         H            1.959316504436    -1.262025362100    -0.802005935238     1.007825032230
         H            2.129120504436     0.368149637900    -1.453247935238     1.007825032230
         H            2.568970504436     1.257158637900     0.847300064762     1.007825032230
         H            3.759260504436     0.010912637900     0.413303064762     1.007825032230
         H            2.424680504436    -0.377805362100     1.515327064762     1.007825032230
         H           -3.004896495564    -0.229597362100     0.512877064762     1.007825032230
         H           -1.995289495564     2.211200637900     0.147709064762     1.007825032230

  Basis Set: AUG-CC-PVTZ
    Blend: AUG-CC-PVTZ
  Basis Set: (AUG-CC-PVTZ AUX)
    Blend: AUG-CC-PVTZ-JKFIT
	 Reference Energy          =    -645.4818189398766890 [Eh]
	 Singles Energy            =      -0.0000000000000000 [Eh]
	 Same-Spin Energy          =      -0.3335347991965442 [Eh]
	 Opposite-Spin Energy      =      -1.0403085613292768 [Eh]
	 Correlation Energy        =      -1.3738433605258211 [Eh]
	 Total Energy              =    -646.8556623004025141 [Eh]

	 ================> DF-SCS-MP2 Energies <==================
	-----------------------------------------------------------
	 SCS Same-Spin Scale       =       0.3333333333333333 [-]
	 SCS Opposite-Spin Scale   =       1.2000000000000000 [-]
	 SCS Same-Spin Energy      =      -0.1111782663988480 [Eh]
	 SCS Opposite-Spin Energy  =      -1.2483702735951321 [Eh]
	 SCS Correlation Energy    =      -1.3595485399939802 [Eh]
	 SCS Total Energy          =    -646.8413674798706552 [Eh]
	-----------------------------------------------------------

  Dipole Moment: [D]
     X:    -0.3228      Y:    -1.2764      Z:     0.2600     Total:     1.3420

*** Psi4 exiting successfully. Buy a developer a beer!
