                               Psi4 1.3.2 release

  ==> Input File <==

--------------------------------------------------------------------------
#psi4
#
memory 32 gb

molecule  {
0 1
  S       -0.7211659    -1.0425366    -0.0023835
  N       -0.1696500     1.2952110    -0.2577190
  C        1.7694220    -0.2160770    -0.5775760
  C        0.3234810     0.0737960    -0.3165740
  C        2.6425650     0.1799470     0.6157020
  C       -2.0442290     0.0157050     0.2553730
  C       -1.5038950     1.2642780     0.0601800
  H        1.8995250    -1.2779630    -0.8129470
  H        2.0693290     0.3522120    -1.4641890
  H        2.5091790     1.2412210     0.8363590
  H        3.6994690    -0.0050250     0.4023620
  H        2.3648890    -0.3937430     1.5043860
  H       -3.0646880    -0.2455350     0.5019360
  H       -2.0550810     2.1952630     0.1367680
units angstrom
no_reorient  #important for SAPT in psi4, default
symmetry c1  #important for SAPT in psi4, default
}

set PROPERTIES_ORIGIN ["COM"]
properties('MP2/aug-cc-pvtz', properties = ['dipole'])
--------------------------------------------------------------------------

    Molecular point group: c1
  Charge       = 0
  Multiplicity = 1
  Basis Set: AUG-CC-PVTZ
    Blend: AUG-CC-PVTZ
  Basis Set: (AUG-CC-PVTZ AUX)
    Blend: AUG-CC-PVTZ-JKFIT

    Orbital Energies [Eh]
    ---------------------

    Doubly Occupied:

       1A    -91.989122     2A    -15.554227     3A    -11.291989
       4A    -11.269421     5A    -11.257945     6A    -11.245037
       7A    -11.223382     8A     -8.995078     9A     -6.676509
      10A     -6.675288    11A     -6.674586    12A     -1.290411
      13A     -1.080901    14A     -1.066757    15A     -0.989901
      16A     -0.869820    17A     -0.797529    18A     -0.732438
      19A     -0.682396    20A     -0.629750    21A     -0.611529
      22A     -0.576209    23A     -0.571785    24A     -0.523949
      25A     -0.511991    26A     -0.503133    27A     -0.486669
      28A     -0.420539    29A     -0.379362    30A     -0.340692

  @DF-RHF Final Energy:  -645.46867156940539

   => Energetics <=

    Nuclear Repulsion Energy =            358.6605520942386534
    One-Electron Energy =               -1596.4217568504961946
    Two-Electron Energy =                 592.2925331868520971
    Total Energy =                       -645.4686715694053873
  Basis Set: (AUG-CC-PVTZ AUX)
    Blend: AUG-CC-PVTZ-RI
    Molecular point group: c1

    Geometry (in Angstrom), charge = 0, multiplicity = 1:

       Center              X                  Y                   Z               Mass
    ------------   -----------------  -----------------  -----------------  -----------------
         S           -0.688396198680    -1.064634323976     0.016429965814    31.972071174400
         N           -0.136880298680     1.273113276024    -0.238905534186    14.003074004430
         C            1.802191701320    -0.238174723976    -0.558762534186    12.000000000000
         C            0.356250701320     0.051698276024    -0.297760534186    12.000000000000
         C            2.675334701320     0.157849276024     0.634515465814    12.000000000000
         C           -2.011459298680    -0.006392723976     0.274186465814    12.000000000000
         C           -1.471125298680     1.242180276024     0.078993465814    12.000000000000
         H            1.932294701320    -1.300060723976    -0.794133534186     1.007825032230
         H            2.102098701320     0.330114276024    -1.445375534186     1.007825032230
         H            2.541948701320     1.219123276024     0.855172465814     1.007825032230
         H            3.732238701320    -0.027122723976     0.421175465814     1.007825032230
         H            2.397658701320    -0.415840723976     1.523199465814     1.007825032230
         H           -3.031918298680    -0.267632723976     0.520749465814     1.007825032230
         H           -2.022311298680     2.173165276024     0.155581465814     1.007825032230

  Basis Set: AUG-CC-PVTZ
    Blend: AUG-CC-PVTZ
  Basis Set: (AUG-CC-PVTZ AUX)
    Blend: AUG-CC-PVTZ-JKFIT
	 Reference Energy          =    -645.4686715694053873 [Eh]
	 Singles Energy            =      -0.0000000000000000 [Eh]
	 Same-Spin Energy          =      -0.3337727548302489 [Eh]
	 Opposite-Spin Energy      =      -1.0382857876411868 [Eh]
	 Correlation Energy        =      -1.3720585424714358 [Eh]
	 Total Energy              =    -646.8407301118768373 [Eh]

	 ================> DF-SCS-MP2 Energies <==================
	-----------------------------------------------------------
	 SCS Same-Spin Scale       =       0.3333333333333333 [-]
	 SCS Opposite-Spin Scale   =       1.2000000000000000 [-]
	 SCS Same-Spin Energy      =      -0.1112575849434163 [Eh]
	 SCS Opposite-Spin Energy  =      -1.2459429451694242 [Eh]
	 SCS Correlation Energy    =      -1.3572005301128405 [Eh]
	 SCS Total Energy          =    -646.8258720995182784 [Eh]
	-----------------------------------------------------------

  Dipole Moment: [D]
     X:    -0.4286      Y:    -1.3805      Z:     0.2924     Total:     1.4748

*** Psi4 exiting successfully. Buy a developer a beer!
