                               Psi4 1.3.2 release

  ==> Input File <==

--------------------------------------------------------------------------
#psi4
#
memory 32 gb

molecule  {
0 1
  S       -0.8349460    -1.1774250     0.0297960
  N       -0.1690161     1.2713067    -0.2564827
  C        1.7694220    -0.2160770    -0.5775760
  C        0.3234810     0.0737960    -0.3165740
  C        2.6425650     0.1799470     0.6157020
  C       -2.0442290     0.0157050     0.2553730
  C       -1.5038950     1.2642780     0.0601800
  H        1.8995250    -1.2779630    -0.8129470
  H        2.0693290     0.3522120    -1.4641890
  H        2.5091790     1.2412210     0.8363590
  H        3.6994690    -0.0050250     0.4023620
  H        2.3648890    -0.3937430     1.5043860
  H       -3.0646880    -0.2455350     0.5019360
  H       -2.0550810     2.1952630     0.1367680
units angstrom
no_reorient  #important for SAPT in psi4, default
symmetry c1  #important for SAPT in psi4, default
}

set PROPERTIES_ORIGIN ["COM"]
properties('MP2/aug-cc-pvtz', properties = ['dipole'])
--------------------------------------------------------------------------

    Molecular point group: c1
  Charge       = 0
  Multiplicity = 1
  Basis Set: AUG-CC-PVTZ
    Blend: AUG-CC-PVTZ
  Basis Set: (AUG-CC-PVTZ AUX)
    Blend: AUG-CC-PVTZ-JKFIT

    Orbital Energies [Eh]
    ---------------------

    Doubly Occupied:

       1A    -91.991935     2A    -15.562267     3A    -11.309261
       4A    -11.269317     5A    -11.261957     6A    -11.245105
       7A    -11.223934     8A     -8.992901     9A     -6.673806
      10A     -6.673308    11A     -6.672565    12A     -1.281092
      13A     -1.072595    14A     -1.060885    15A     -0.976684
      16A     -0.870071    17A     -0.794562    18A     -0.728246
      19A     -0.681892    20A     -0.629097    21A     -0.603794
      22A     -0.574941    23A     -0.557303    24A     -0.519062
      25A     -0.512480    26A     -0.503279    27A     -0.496251
      28A     -0.420565    29A     -0.387993    30A     -0.330016

  @DF-RHF Final Energy:  -645.48744530516433

   => Energetics <=

    Nuclear Repulsion Energy =            351.6405113109933609
    One-Electron Energy =               -1582.5015845181137593
    Two-Electron Energy =                 585.3736279019560698
    Total Energy =                       -645.4874453051643286
  Basis Set: (AUG-CC-PVTZ AUX)
    Blend: AUG-CC-PVTZ-RI
    Molecular point group: c1

    Geometry (in Angstrom), charge = 0, multiplicity = 1:

       Center              X                  Y                   Z               Mass
    ------------   -----------------  -----------------  -----------------  -----------------
         S           -0.770070561599    -1.158406219685     0.039353887636    31.972071174400
         N           -0.104140661599     1.290325480315    -0.246924812364    14.003074004430
         C            1.834297438401    -0.197058219685    -0.568018112364    12.000000000000
         C            0.388356438401     0.092814780315    -0.307016112364    12.000000000000
         C            2.707440438401     0.198965780315     0.625259887636    12.000000000000
         C           -1.979353561599     0.034723780315     0.264930887636    12.000000000000
         C           -1.439019561599     1.283296780315     0.069737887636    12.000000000000
         H            1.964400438401    -1.258944219685    -0.803389112364     1.007825032230
         H            2.134204438401     0.371230780315    -1.454631112364     1.007825032230
         H            2.574054438401     1.260239780315     0.845916887636     1.007825032230
         H            3.764344438401     0.013993780315     0.411919887636     1.007825032230
         H            2.429764438401    -0.374724219685     1.513943887636     1.007825032230
         H           -2.999812561599    -0.226516219685     0.511493887636     1.007825032230
         H           -1.990205561599     2.214281780315     0.146325887636     1.007825032230

  Basis Set: AUG-CC-PVTZ
    Blend: AUG-CC-PVTZ
  Basis Set: (AUG-CC-PVTZ AUX)
    Blend: AUG-CC-PVTZ-JKFIT
	 Reference Energy          =    -645.4874453051643286 [Eh]
	 Singles Energy            =      -0.0000000000000000 [Eh]
	 Same-Spin Energy          =      -0.3318226111377284 [Eh]
	 Opposite-Spin Energy      =      -1.0387200128913001 [Eh]
	 Correlation Energy        =      -1.3705426240290284 [Eh]
	 Total Energy              =    -646.8579879291933139 [Eh]

	 ================> DF-SCS-MP2 Energies <==================
	-----------------------------------------------------------
	 SCS Same-Spin Scale       =       0.3333333333333333 [-]
	 SCS Opposite-Spin Scale   =       1.2000000000000000 [-]
	 SCS Same-Spin Energy      =      -0.1106075370459094 [Eh]
	 SCS Opposite-Spin Energy  =      -1.2464640154695601 [Eh]
	 SCS Correlation Energy    =      -1.3570715525154695 [Eh]
	 SCS Total Energy          =    -646.8445168576797641 [Eh]
	-----------------------------------------------------------

  Dipole Moment: [D]
     X:    -0.3170      Y:    -1.1640      Z:     0.2578     Total:     1.2336

*** Psi4 exiting successfully. Buy a developer a beer!
