                               Psi4 1.3.2 release

  ==> Input File <==

--------------------------------------------------------------------------
#psi4
#
memory 32 gb

molecule  {
0 1
  S       -0.9619752    -1.2992412     0.0644469
  N       -0.1696500     1.2952110    -0.2577190
  C        1.7694220    -0.2160770    -0.5775760
  C        0.3234810     0.0737960    -0.3165740
  C        2.6425650     0.1799470     0.6157020
  C       -2.0442290     0.0157050     0.2553730
  C       -1.5038950     1.2642780     0.0601800
  H        1.8995250    -1.2779630    -0.8129470
  H        2.0693290     0.3522120    -1.4641890
  H        2.5091790     1.2412210     0.8363590
  H        3.6994690    -0.0050250     0.4023620
  H        2.3648890    -0.3937430     1.5043860
  H       -3.0646880    -0.2455350     0.5019360
  H       -2.0550810     2.1952630     0.1367680
units angstrom
no_reorient  #important for SAPT in psi4, default
symmetry c1  #important for SAPT in psi4, default
}

set PROPERTIES_ORIGIN ["COM"]
properties('MP2/aug-cc-pvtz', properties = ['dipole'])
--------------------------------------------------------------------------

    Molecular point group: c1
  Charge       = 0
  Multiplicity = 1
  Basis Set: AUG-CC-PVTZ
    Blend: AUG-CC-PVTZ
  Basis Set: (AUG-CC-PVTZ AUX)
    Blend: AUG-CC-PVTZ-JKFIT

    Orbital Energies [Eh]
    ---------------------

    Doubly Occupied:

       1A    -91.994929     2A    -15.575992     3A    -11.329713
       4A    -11.269113     5A    -11.263740     6A    -11.248526
       7A    -11.225899     8A     -8.993155     9A     -6.674009
      10A     -6.673186    11A     -6.672637    12A     -1.268936
      13A     -1.073217    14A     -1.053666    15A     -0.963133
      16A     -0.872001    17A     -0.788640    18A     -0.724117
      19A     -0.680279    20A     -0.629883    21A     -0.599657
      22A     -0.568382    23A     -0.543692    24A     -0.515508
      25A     -0.514726    26A     -0.504247    27A     -0.496468
      28A     -0.422091    29A     -0.395727    30A     -0.318259

  @DF-RHF Final Energy:  -645.46838675321533

   => Energetics <=

    Nuclear Repulsion Energy =            344.3856291455072665
    One-Electron Energy =               -1568.0009835867019774
    Two-Electron Energy =                 578.1469676879794406
    Total Energy =                       -645.4683867532153272
  Basis Set: (AUG-CC-PVTZ AUX)
    Blend: AUG-CC-PVTZ-RI
    Molecular point group: c1

    Geometry (in Angstrom), charge = 0, multiplicity = 1:

       Center              X                  Y                   Z               Mass
    ------------   -----------------  -----------------  -----------------  -----------------
         S           -0.861089268469    -1.248726489033     0.064356465875    31.972071174400
         N           -0.068764068469     1.345725710967    -0.257809434125    14.003074004430
         C            1.870307931531    -0.165562289033    -0.577666434125    12.000000000000
         C            0.424366931531     0.124310710967    -0.316664434125    12.000000000000
         C            2.743450931531     0.230461710967     0.615611565875    12.000000000000
         C           -1.943343068469     0.066219710967     0.255282565875    12.000000000000
         C           -1.403009068469     1.314792710967     0.060089565875    12.000000000000
         H            2.000410931531    -1.227448289033    -0.813037434125     1.007825032230
         H            2.170214931531     0.402726710967    -1.464279434125     1.007825032230
         H            2.610064931531     1.291735710967     0.836268565875     1.007825032230
         H            3.800354931531     0.045489710967     0.402271565875     1.007825032230
         H            2.465774931531    -0.343228289033     1.504295565875     1.007825032230
         H           -2.963802068469    -0.195020289033     0.501845565875     1.007825032230
         H           -1.954195068469     2.245777710967     0.136677565875     1.007825032230

  Basis Set: AUG-CC-PVTZ
    Blend: AUG-CC-PVTZ
  Basis Set: (AUG-CC-PVTZ AUX)
    Blend: AUG-CC-PVTZ-JKFIT
	 Reference Energy          =    -645.4683867532153272 [Eh]
	 Singles Energy            =      -0.0000000000000000 [Eh]
	 Same-Spin Energy          =      -0.3322371227725271 [Eh]
	 Opposite-Spin Energy      =      -1.0433492158277247 [Eh]
	 Correlation Energy        =      -1.3755863386002518 [Eh]
	 Total Energy              =    -646.8439730918155419 [Eh]

	 ================> DF-SCS-MP2 Energies <==================
	-----------------------------------------------------------
	 SCS Same-Spin Scale       =       0.3333333333333333 [-]
	 SCS Opposite-Spin Scale   =       1.2000000000000000 [-]
	 SCS Same-Spin Energy      =      -0.1107457075908424 [Eh]
	 SCS Opposite-Spin Energy  =      -1.2520190589932696 [Eh]
	 SCS Correlation Energy    =      -1.3627647665841121 [Eh]
	 SCS Total Energy          =    -646.8311515197993913 [Eh]
	-----------------------------------------------------------

  Dipole Moment: [D]
     X:    -0.0822      Y:    -0.9913      Z:     0.2088     Total:     1.0164

*** Psi4 exiting successfully. Buy a developer a beer!
