                               Psi4 1.3.2 release

  ==> Input File <==

--------------------------------------------------------------------------
#psi4
#
memory 32 gb

molecule  {
0 1
  S       -0.8349460    -1.1774250     0.0297960
  N       -0.1696500     1.2952110    -0.2577190
  C        1.7694220    -0.2160770    -0.5775760
  C        0.3295164     0.0988641    -0.3122879
  C        2.6425650     0.1799470     0.6157020
  C       -2.0442290     0.0157050     0.2553730
  C       -1.5038950     1.2642780     0.0601800
  H        1.8995250    -1.2779630    -0.8129470
  H        2.0693290     0.3522120    -1.4641890
  H        2.5091790     1.2412210     0.8363590
  H        3.6994690    -0.0050250     0.4023620
  H        2.3648890    -0.3937430     1.5043860
  H       -3.0646880    -0.2455350     0.5019360
  H       -2.0550810     2.1952630     0.1367680
units angstrom
no_reorient  #important for SAPT in psi4, default
symmetry c1  #important for SAPT in psi4, default
}

set PROPERTIES_ORIGIN ["COM"]
properties('MP2/aug-cc-pvtz', properties = ['dipole'])
--------------------------------------------------------------------------

    Molecular point group: c1
  Charge       = 0
  Multiplicity = 1
  Basis Set: AUG-CC-PVTZ
    Blend: AUG-CC-PVTZ
  Basis Set: (AUG-CC-PVTZ AUX)
    Blend: AUG-CC-PVTZ-JKFIT

    Orbital Energies [Eh]
    ---------------------

    Doubly Occupied:

       1A    -91.991550     2A    -15.564723     3A    -11.312410
       4A    -11.269146     5A    -11.262145     6A    -11.245962
       7A    -11.224427     8A     -8.992170     9A     -6.673066
      10A     -6.672533    11A     -6.671821    12A     -1.280259
      13A     -1.073021    14A     -1.060939    15A     -0.974405
      16A     -0.870203    17A     -0.794365    18A     -0.727844
      19A     -0.681809    20A     -0.629381    21A     -0.603696
      22A     -0.574610    23A     -0.556144    24A     -0.518167
      25A     -0.514159    26A     -0.503033    27A     -0.495981
      28A     -0.421871    29A     -0.389386    30A     -0.328365

  @DF-RHF Final Energy:  -645.48681022878566

   => Energetics <=

    Nuclear Repulsion Energy =            350.9765966212014519
    One-Electron Energy =               -1581.1716292140517908
    Two-Electron Energy =                 584.7082223640646816
    Total Energy =                       -645.4868102287856573
  Basis Set: (AUG-CC-PVTZ AUX)
    Blend: AUG-CC-PVTZ-RI
    Molecular point group: c1

    Geometry (in Angstrom), charge = 0, multiplicity = 1:

       Center              X                  Y                   Z               Mass
    ------------   -----------------  -----------------  -----------------  -----------------
         S           -0.770632786638    -1.164029074940     0.039052010049    31.972071174400
         N           -0.105336786638     1.308606925060    -0.248462989951    14.003074004430
         C            1.833735213362    -0.202681074940    -0.568319989951    12.000000000000
         C            0.393829613362     0.112260025060    -0.303031889951    12.000000000000
         C            2.706878213362     0.193342925060     0.624958010049    12.000000000000
         C           -1.979915786638     0.029100925060     0.264629010049    12.000000000000
         C           -1.439581786638     1.277673925060     0.069436010049    12.000000000000
         H            1.963838213362    -1.264567074940    -0.803690989951     1.007825032230
         H            2.133642213362     0.365607925060    -1.454932989951     1.007825032230
         H            2.573492213362     1.254616925060     0.845615010049     1.007825032230
         H            3.763782213362     0.008370925060     0.411618010049     1.007825032230
         H            2.429202213362    -0.380347074940     1.513642010049     1.007825032230
         H           -3.000374786638    -0.232139074940     0.511192010049     1.007825032230
         H           -1.990767786638     2.208658925060     0.146024010049     1.007825032230

  Basis Set: AUG-CC-PVTZ
    Blend: AUG-CC-PVTZ
  Basis Set: (AUG-CC-PVTZ AUX)
    Blend: AUG-CC-PVTZ-JKFIT
	 Reference Energy          =    -645.4868102287856573 [Eh]
	 Singles Energy            =      -0.0000000000000000 [Eh]
	 Same-Spin Energy          =      -0.3317757015267355 [Eh]
	 Opposite-Spin Energy      =      -1.0390398654295478 [Eh]
	 Correlation Energy        =      -1.3708155669562834 [Eh]
	 Total Energy              =    -646.8576257957419102 [Eh]

	 ================> DF-SCS-MP2 Energies <==================
	-----------------------------------------------------------
	 SCS Same-Spin Scale       =       0.3333333333333333 [-]
	 SCS Opposite-Spin Scale   =       1.2000000000000000 [-]
	 SCS Same-Spin Energy      =      -0.1105919005089118 [Eh]
	 SCS Opposite-Spin Energy  =      -1.2468478385154573 [Eh]
	 SCS Correlation Energy    =      -1.3574397390243691 [Eh]
	 SCS Total Energy          =    -646.8442499678100148 [Eh]
	-----------------------------------------------------------

  Dipole Moment: [D]
     X:    -0.2688      Y:    -1.1754      Z:     0.2462     Total:     1.2307

*** Psi4 exiting successfully. Buy a developer a beer!
