                               Psi4 1.3.2 release

  ==> Input File <==

--------------------------------------------------------------------------
#psi4
#
memory 32 gb

molecule  {
0 1
  S       -0.8349460    -1.1774250     0.0297960
  N       -0.1696500     1.2952110    -0.2577190
  C        1.7694220    -0.2160770    -0.5775760
  C        0.3234810     0.0737960    -0.3165740
  C        2.6425650     0.1799470     0.6157020
  C       -2.0442290     0.0157050     0.2553730
  C       -1.5253875     1.2740218     0.0644854
  H        1.8995250    -1.2779630    -0.8129470
  H        2.0693290     0.3522120    -1.4641890
  H        2.5091790     1.2412210     0.8363590
  H        3.6994690    -0.0050250     0.4023620
  H        2.3648890    -0.3937430     1.5043860
  H       -3.0646880    -0.2455350     0.5019360
  H       -2.0550810     2.1952630     0.1367680
units angstrom
no_reorient  #important for SAPT in psi4, default
symmetry c1  #important for SAPT in psi4, default
}

set PROPERTIES_ORIGIN ["COM"]
properties('MP2/aug-cc-pvtz', properties = ['dipole'])
--------------------------------------------------------------------------

    Molecular point group: c1
  Charge       = 0
  Multiplicity = 1
  Basis Set: AUG-CC-PVTZ
    Blend: AUG-CC-PVTZ
  Basis Set: (AUG-CC-PVTZ AUX)
    Blend: AUG-CC-PVTZ-JKFIT

    Orbital Energies [Eh]
    ---------------------

    Doubly Occupied:

       1A    -91.994060     2A    -15.565763     3A    -11.312267
       4A    -11.269309     5A    -11.262525     6A    -11.245675
       7A    -11.224025     8A     -8.994859     9A     -6.675783
      10A     -6.675239    11A     -6.674519    12A     -1.268946
      13A     -1.071915    14A     -1.059466    15A     -0.976238
      16A     -0.870550    17A     -0.791422    18A     -0.728551
      19A     -0.682101    20A     -0.628711    21A     -0.602142
      22A     -0.571232    23A     -0.554463    24A     -0.517623
      25A     -0.511962    26A     -0.506636    27A     -0.497086
      28A     -0.422460    29A     -0.385525    30A     -0.330152

  @DF-RHF Final Energy:  -645.48523302440208

   => Energetics <=

    Nuclear Repulsion Energy =            350.5261535497974137
    One-Electron Energy =               -1580.2803637072781839
    Two-Electron Energy =                 584.2689771330788062
    Total Energy =                       -645.4852330244020777
  Basis Set: (AUG-CC-PVTZ AUX)
    Blend: AUG-CC-PVTZ-RI
    Molecular point group: c1

    Geometry (in Angstrom), charge = 0, multiplicity = 1:

       Center              X                  Y                   Z               Mass
    ------------   -----------------  -----------------  -----------------  -----------------
         S           -0.767710243662    -1.162402146430     0.039049961035    31.972071174400
         N           -0.102414243662     1.310233853570    -0.248465038965    14.003074004430
         C            1.836657756338    -0.201054146430    -0.568322038965    12.000000000000
         C            0.390716756338     0.088818853570    -0.307320038965    12.000000000000
         C            2.709800756338     0.194969853570     0.624955961035    12.000000000000
         C           -1.976993243662     0.030727853570     0.264626961035    12.000000000000
         C           -1.458151743662     1.289044653570     0.073739361035    12.000000000000
         H            1.966760756338    -1.262940146430    -0.803693038965     1.007825032230
         H            2.136564756338     0.367234853570    -1.454935038965     1.007825032230
         H            2.576414756338     1.256243853570     0.845612961035     1.007825032230
         H            3.766704756338     0.009997853570     0.411615961035     1.007825032230
         H            2.432124756338    -0.378720146430     1.513639961035     1.007825032230
         H           -2.997452243662    -0.230512146430     0.511189961035     1.007825032230
         H           -1.987845243662     2.210285853570     0.146021961035     1.007825032230

  Basis Set: AUG-CC-PVTZ
    Blend: AUG-CC-PVTZ
  Basis Set: (AUG-CC-PVTZ AUX)
    Blend: AUG-CC-PVTZ-JKFIT
	 Reference Energy          =    -645.4852330244020777 [Eh]
	 Singles Energy            =      -0.0000000000000000 [Eh]
	 Same-Spin Energy          =      -0.3320352593938859 [Eh]
	 Opposite-Spin Energy      =      -1.0398606727873836 [Eh]
	 Correlation Energy        =      -1.3718959321812694 [Eh]
	 Total Energy              =    -646.8571289565833240 [Eh]

	 ================> DF-SCS-MP2 Energies <==================
	-----------------------------------------------------------
	 SCS Same-Spin Scale       =       0.3333333333333333 [-]
	 SCS Opposite-Spin Scale   =       1.2000000000000000 [-]
	 SCS Same-Spin Energy      =      -0.1106784197979620 [Eh]
	 SCS Opposite-Spin Energy  =      -1.2478328073448604 [Eh]
	 SCS Correlation Energy    =      -1.3585112271428224 [Eh]
	 SCS Total Energy          =    -646.8437442515448765 [Eh]
	-----------------------------------------------------------

  Dipole Moment: [D]
     X:    -0.3379      Y:    -1.2371      Z:     0.2686     Total:     1.3102

*** Psi4 exiting successfully. Buy a developer a beer!
