                               Psi4 1.3.2 release

  ==> Input File <==

--------------------------------------------------------------------------
#psi4
#
memory 32 gb

molecule  {
0 1
  S       -0.8349460    -1.1774250     0.0297960
  N       -0.1696500     1.2952110    -0.2577190
  C        1.7694220    -0.2160770    -0.5775760
  C        0.3234810     0.0737960    -0.3165740
  C        2.6425650     0.1799470     0.6157020
  C       -2.1283520     0.0584858     0.2725812
  C       -1.5038950     1.2642780     0.0601800
  H        1.8995250    -1.2779630    -0.8129470
  H        2.0693290     0.3522120    -1.4641890
  H        2.5091790     1.2412210     0.8363590
  H        3.6994690    -0.0050250     0.4023620
  H        2.3648890    -0.3937430     1.5043860
  H       -3.0646880    -0.2455350     0.5019360
  H       -2.0550810     2.1952630     0.1367680
units angstrom
no_reorient  #important for SAPT in psi4, default
symmetry c1  #important for SAPT in psi4, default
}

set PROPERTIES_ORIGIN ["COM"]
properties('MP2/aug-cc-pvtz', properties = ['dipole'])
--------------------------------------------------------------------------

    Molecular point group: c1
  Charge       = 0
  Multiplicity = 1
  Basis Set: AUG-CC-PVTZ
    Blend: AUG-CC-PVTZ
  Basis Set: (AUG-CC-PVTZ AUX)
    Blend: AUG-CC-PVTZ-JKFIT

    Orbital Energies [Eh]
    ---------------------

    Doubly Occupied:

       1A    -91.991560     2A    -15.566035     3A    -11.318260
       4A    -11.274347     5A    -11.263605     6A    -11.247712
       7A    -11.225841     8A     -8.991012     9A     -6.671886
      10A     -6.671290    11A     -6.670721    12A     -1.272480
      13A     -1.073954    14A     -1.048704    15A     -0.978846
      16A     -0.872369    17A     -0.803913    18A     -0.728969
      19A     -0.684699    20A     -0.635064    21A     -0.603091
      22A     -0.577576    23A     -0.558241    24A     -0.519041
      25A     -0.512949    26A     -0.503583    27A     -0.478642
      28A     -0.424603    29A     -0.381671    30A     -0.334926

  @DF-RHF Final Energy:  -645.47854818018448

   => Energetics <=

    Nuclear Repulsion Energy =            349.0366396836000717
    One-Electron Energy =               -1577.2591925803785671
    Two-Electron Energy =                 582.7440047165940769
    Total Energy =                       -645.4785481801844753
  Basis Set: (AUG-CC-PVTZ AUX)
    Blend: AUG-CC-PVTZ-RI
    Molecular point group: c1

    Geometry (in Angstrom), charge = 0, multiplicity = 1:

       Center              X                  Y                   Z               Mass
    ------------   -----------------  -----------------  -----------------  -----------------
         S           -0.761060977721    -1.165909571708     0.037680114896    31.972071174400
         N           -0.095764977721     1.306726428292    -0.249834885104    14.003074004430
         C            1.843307022279    -0.204561571708    -0.569691885104    12.000000000000
         C            0.397366022279     0.085311428292    -0.308689885104    12.000000000000
         C            2.716450022279     0.191462428292     0.623586114896    12.000000000000
         C           -2.054466977721     0.070001228292     0.280465314896    12.000000000000
         C           -1.430009977721     1.275793428292     0.068064114896    12.000000000000
         H            1.973410022279    -1.266447571708    -0.805062885104     1.007825032230
         H            2.143214022279     0.363727428292    -1.456304885104     1.007825032230
         H            2.583064022279     1.252736428292     0.844243114896     1.007825032230
         H            3.773354022279     0.006490428292     0.410246114896     1.007825032230
         H            2.438774022279    -0.382227571708     1.512270114896     1.007825032230
         H           -2.990802977721    -0.234019571708     0.509820114896     1.007825032230
         H           -1.981195977721     2.206778428292     0.144652114896     1.007825032230

  Basis Set: AUG-CC-PVTZ
    Blend: AUG-CC-PVTZ
  Basis Set: (AUG-CC-PVTZ AUX)
    Blend: AUG-CC-PVTZ-JKFIT
	 Reference Energy          =    -645.4785481801844753 [Eh]
	 Singles Energy            =      -0.0000000000000000 [Eh]
	 Same-Spin Energy          =      -0.3311361682577396 [Eh]
	 Opposite-Spin Energy      =      -1.0394096532042321 [Eh]
	 Correlation Energy        =      -1.3705458214619717 [Eh]
	 Total Energy              =    -646.8490940016464492 [Eh]

	 ================> DF-SCS-MP2 Energies <==================
	-----------------------------------------------------------
	 SCS Same-Spin Scale       =       0.3333333333333333 [-]
	 SCS Opposite-Spin Scale   =       1.2000000000000000 [-]
	 SCS Same-Spin Energy      =      -0.1103787227525799 [Eh]
	 SCS Opposite-Spin Energy  =      -1.2472915838450784 [Eh]
	 SCS Correlation Energy    =      -1.3576703065976583 [Eh]
	 SCS Total Energy          =    -646.8362184867821725 [Eh]
	-----------------------------------------------------------

  Dipole Moment: [D]
     X:    -0.3018      Y:    -1.1576      Z:     0.2667     Total:     1.2256

*** Psi4 exiting successfully. Buy a developer a beer!
