                               Psi4 1.3.2 release

  ==> Input File <==

--------------------------------------------------------------------------
#psi4
#
memory 32 gb

molecule  {
0 1
  S       -0.8349460    -1.1774250     0.0297960
  N       -0.1696500     1.2952110    -0.2577190
  C        1.7694220    -0.2160770    -0.5775760
  C        0.3234810     0.0737960    -0.3165740
  C        2.6425650     0.1799470     0.6157020
  C       -2.0442290     0.0157050     0.2553730
  C       -1.5038950     1.2642780     0.0601800
  H        1.8995250    -1.2779630    -0.8129470
  H        2.0693290     0.3522120    -1.4641890
  H        2.5091790     1.2412210     0.8363590
  H        3.6994690    -0.0050250     0.4023620
  H        2.3648890    -0.3937430     1.5043860
  H       -3.2533406    -0.2938305     0.5475182
  H       -2.0550810     2.1952630     0.1367680
units angstrom
no_reorient  #important for SAPT in psi4, default
symmetry c1  #important for SAPT in psi4, default
}

set PROPERTIES_ORIGIN ["COM"]
properties('MP2/aug-cc-pvtz', properties = ['dipole'])
--------------------------------------------------------------------------

    Molecular point group: c1
  Charge       = 0
  Multiplicity = 1
  Basis Set: AUG-CC-PVTZ
    Blend: AUG-CC-PVTZ
  Basis Set: (AUG-CC-PVTZ AUX)
    Blend: AUG-CC-PVTZ-JKFIT

    Orbital Energies [Eh]
    ---------------------

    Doubly Occupied:

       1A    -91.995869     2A    -15.566332     3A    -11.313346
       4A    -11.280667     5A    -11.269962     6A    -11.246229
       7A    -11.224503     8A     -8.996484     9A     -6.677362
      10A     -6.676863    11A     -6.676126    12A     -1.275752
      13A     -1.072102    14A     -1.059373    15A     -0.973725
      16A     -0.869683    17A     -0.778194    18A     -0.727561
      19A     -0.669933    20A     -0.622175    21A     -0.598903
      22A     -0.568502    23A     -0.544753    24A     -0.517157
      25A     -0.511375    26A     -0.504278    27A     -0.494224
      28A     -0.425426    29A     -0.388179    30A     -0.329144

  @DF-RHF Final Energy:  -645.46294359931926

   => Energetics <=

    Nuclear Repulsion Energy =            350.0520882253295554
    One-Electron Energy =               -1579.3217052632967352
    Two-Electron Energy =                 583.8066734386479766
    Total Energy =                       -645.4629435993192601
  Basis Set: (AUG-CC-PVTZ AUX)
    Blend: AUG-CC-PVTZ-RI
    Molecular point group: c1

    Geometry (in Angstrom), charge = 0, multiplicity = 1:

       Center              X                  Y                   Z               Mass
    ------------   -----------------  -----------------  -----------------  -----------------
         S           -0.768309918395    -1.160937056361     0.039100619460    31.972071174400
         N           -0.103013918395     1.311698943639    -0.248414380540    14.003074004430
         C            1.836058081605    -0.199589056361    -0.568271380540    12.000000000000
         C            0.390117081605     0.090283943639    -0.307269380540    12.000000000000
         C            2.709201081605     0.196434943639     0.625006619460    12.000000000000
         C           -1.977592918395     0.032192943639     0.264677619460    12.000000000000
         C           -1.437258918395     1.280765943639     0.069484619460    12.000000000000
         H            1.966161081605    -1.261475056361    -0.803642380540     1.007825032230
         H            2.135965081605     0.368699943639    -1.454884380540     1.007825032230
         H            2.575815081605     1.257708943639     0.845663619460     1.007825032230
         H            3.766105081605     0.011462943639     0.411666619460     1.007825032230
         H            2.431525081605    -0.377255056361     1.513690619460     1.007825032230
         H           -3.186704518395    -0.277342556361     0.556822819460     1.007825032230
         H           -1.988444918395     2.211750943639     0.146072619460     1.007825032230

  Basis Set: AUG-CC-PVTZ
    Blend: AUG-CC-PVTZ
  Basis Set: (AUG-CC-PVTZ AUX)
    Blend: AUG-CC-PVTZ-JKFIT
	 Reference Energy          =    -645.4629435993192601 [Eh]
	 Singles Energy            =      -0.0000000000000000 [Eh]
	 Same-Spin Energy          =      -0.3328785153555139 [Eh]
	 Opposite-Spin Energy      =      -1.0416714828007163 [Eh]
	 Correlation Energy        =      -1.3745499981562301 [Eh]
	 Total Energy              =    -646.8374935974754862 [Eh]

	 ================> DF-SCS-MP2 Energies <==================
	-----------------------------------------------------------
	 SCS Same-Spin Scale       =       0.3333333333333333 [-]
	 SCS Opposite-Spin Scale   =       1.2000000000000000 [-]
	 SCS Same-Spin Energy      =      -0.1109595051185046 [Eh]
	 SCS Opposite-Spin Energy  =      -1.2500057793608594 [Eh]
	 SCS Correlation Energy    =      -1.3609652844793640 [Eh]
	 SCS Total Energy          =    -646.8239088837985946 [Eh]
	-----------------------------------------------------------

  Dipole Moment: [D]
     X:    -0.3322      Y:    -1.2672      Z:     0.2680     Total:     1.3371

*** Psi4 exiting successfully. Buy a developer a beer!
