                               Psi4 1.3.2 release

  ==> Input File <==

--------------------------------------------------------------------------
#psi4
#
memory 32 gb

molecule  {
0 1
  S       -0.9182431    -1.2601738     0.0526449
  N       -0.1696500     1.2952110    -0.2577190
  C        1.7694220    -0.2160770    -0.5775760
  C        0.3234810     0.0737960    -0.3165740
  C        2.6425650     0.1799470     0.6157020
  C       -2.0442290     0.0157050     0.2553730
  C       -1.5038950     1.2642780     0.0601800
  H        1.8995250    -1.2779630    -0.8129470
  H        2.0693290     0.3522120    -1.4641890
  H        2.5091790     1.2412210     0.8363590
  H        3.6994690    -0.0050250     0.4023620
  H        2.3648890    -0.3937430     1.5043860
  H       -3.0646880    -0.2455350     0.5019360
  H       -2.0550810     2.1952630     0.1367680
units angstrom
no_reorient  #important for SAPT in psi4, default
symmetry c1  #important for SAPT in psi4, default
}

set PROPERTIES_ORIGIN ["COM"]
properties('MP2/aug-cc-pvtz', properties = ['dipole'])
--------------------------------------------------------------------------

    Molecular point group: c1
  Charge       = 0
  Multiplicity = 1
  Basis Set: AUG-CC-PVTZ
    Blend: AUG-CC-PVTZ
  Basis Set: (AUG-CC-PVTZ AUX)
    Blend: AUG-CC-PVTZ-JKFIT

    Orbital Energies [Eh]
    ---------------------

    Doubly Occupied:

       1A    -91.995126     2A    -15.572393     3A    -11.324419
       4A    -11.269111     5A    -11.262954     6A    -11.247383
       7A    -11.225234     8A     -8.993982     9A     -6.674853
      10A     -6.674130    11A     -6.673547    12A     -1.270128
      13A     -1.072648    14A     -1.055910    15A     -0.966671
      16A     -0.871245    17A     -0.789411    18A     -0.726037
      19A     -0.680377    20A     -0.629385    21A     -0.599867
      22A     -0.569344    23A     -0.547315    24A     -0.515793
      25A     -0.514460    26A     -0.503880    27A     -0.497256
      28A     -0.423908    29A     -0.393140    30A     -0.321382

  @DF-RHF Final Energy:  -645.47656582050456

   => Energetics <=

    Nuclear Repulsion Energy =            346.4870972474924429
    One-Electron Energy =               -1572.2047459749142035
    Two-Electron Energy =                 580.2410829069173133
    Total Energy =                       -645.4765658205045611
  Basis Set: (AUG-CC-PVTZ AUX)
    Blend: AUG-CC-PVTZ-RI
    Molecular point group: c1

    Geometry (in Angstrom), charge = 0, multiplicity = 1:

       Center              X                  Y                   Z               Mass
    ------------   -----------------  -----------------  -----------------  -----------------
         S           -0.829727395828    -1.220709841691     0.055892824273    31.972071174400
         N           -0.081134295828     1.334674958309    -0.254471075727    14.003074004430
         C            1.857937704172    -0.176613041691    -0.574328075727    12.000000000000
         C            0.411996704172     0.113259958309    -0.313326075727    12.000000000000
         C            2.731080704172     0.219410958309     0.618949924273    12.000000000000
         C           -1.955713295828     0.055168958309     0.258620924273    12.000000000000
         C           -1.415379295828     1.303741958309     0.063427924273    12.000000000000
         H            1.988040704172    -1.238499041691    -0.809699075727     1.007825032230
         H            2.157844704172     0.391675958309    -1.460941075727     1.007825032230
         H            2.597694704172     1.280684958309     0.839606924273     1.007825032230
         H            3.787984704172     0.034438958309     0.405609924273     1.007825032230
         H            2.453404704172    -0.354279041691     1.507633924273     1.007825032230
         H           -2.976172295828    -0.206071041691     0.505183924273     1.007825032230
         H           -1.966565295828     2.234726958309     0.140015924273     1.007825032230

  Basis Set: AUG-CC-PVTZ
    Blend: AUG-CC-PVTZ
  Basis Set: (AUG-CC-PVTZ AUX)
    Blend: AUG-CC-PVTZ-JKFIT
	 Reference Energy          =    -645.4765658205045611 [Eh]
	 Singles Energy            =      -0.0000000000000000 [Eh]
	 Same-Spin Energy          =      -0.3321157735356943 [Eh]
	 Opposite-Spin Energy      =      -1.0419122860722938 [Eh]
	 Correlation Energy        =      -1.3740280596079881 [Eh]
	 Total Energy              =    -646.8505938801125694 [Eh]

	 ================> DF-SCS-MP2 Energies <==================
	-----------------------------------------------------------
	 SCS Same-Spin Scale       =       0.3333333333333333 [-]
	 SCS Opposite-Spin Scale   =       1.2000000000000000 [-]
	 SCS Same-Spin Energy      =      -0.1107052578452314 [Eh]
	 SCS Opposite-Spin Energy  =      -1.2502947432867526 [Eh]
	 SCS Correlation Energy    =      -1.3610000011319840 [Eh]
	 SCS Total Energy          =    -646.8375658216365309 [Eh]
	-----------------------------------------------------------

  Dipole Moment: [D]
     X:    -0.1804      Y:    -1.0913      Z:     0.2312     Total:     1.1300

*** Psi4 exiting successfully. Buy a developer a beer!
