                               Psi4 1.3.2 release

  ==> Input File <==

--------------------------------------------------------------------------
#psi4
#
memory 32 gb

molecule  {
0 1
  S       -0.8349460    -1.1774250     0.0297960
  N       -0.1819728     1.4381842    -0.2630920
  C        1.7694220    -0.2160770    -0.5775760
  C        0.3234810     0.0737960    -0.3165740
  C        2.6425650     0.1799470     0.6157020
  C       -2.0442290     0.0157050     0.2553730
  C       -1.5038950     1.2642780     0.0601800
  H        1.8995250    -1.2779630    -0.8129470
  H        2.0693290     0.3522120    -1.4641890
  H        2.5091790     1.2412210     0.8363590
  H        3.6994690    -0.0050250     0.4023620
  H        2.3648890    -0.3937430     1.5043860
  H       -3.0646880    -0.2455350     0.5019360
  H       -2.0550810     2.1952630     0.1367680
units angstrom
no_reorient  #important for SAPT in psi4, default
symmetry c1  #important for SAPT in psi4, default
}

set PROPERTIES_ORIGIN ["COM"]
properties('MP2/aug-cc-pvtz', properties = ['dipole'])
--------------------------------------------------------------------------

    Molecular point group: c1
  Charge       = 0
  Multiplicity = 1
  Basis Set: AUG-CC-PVTZ
    Blend: AUG-CC-PVTZ
  Basis Set: (AUG-CC-PVTZ AUX)
    Blend: AUG-CC-PVTZ-JKFIT

    Orbital Energies [Eh]
    ---------------------

    Doubly Occupied:

       1A    -92.007116     2A    -15.580770     3A    -11.331706
       4A    -11.269020     5A    -11.256531     6A    -11.249301
       7A    -11.225998     8A     -9.006730     9A     -6.687586
      10A     -6.687037    11A     -6.686474    12A     -1.243114
      13A     -1.075214    14A     -1.062945    15A     -0.966319
      16A     -0.871177    17A     -0.774982    18A     -0.736411
      19A     -0.676220    20A     -0.628920    21A     -0.595042
      22A     -0.555209    23A     -0.550299    24A     -0.516856
      25A     -0.512668    26A     -0.503217    27A     -0.495575
      28A     -0.443612    29A     -0.387197    30A     -0.318233

  @DF-RHF Final Energy:  -645.45716645911034

   => Energetics <=

    Nuclear Repulsion Energy =            347.4153430604276309
    One-Electron Energy =               -1573.9420589378332807
    Two-Electron Energy =                 581.0695494182953098
    Total Energy =                       -645.4571664591103399
  Basis Set: (AUG-CC-PVTZ AUX)
    Blend: AUG-CC-PVTZ-RI
    Molecular point group: c1

    Geometry (in Angstrom), charge = 0, multiplicity = 1:

       Center              X                  Y                   Z               Mass
    ------------   -----------------  -----------------  -----------------  -----------------
         S           -0.768465379287    -1.179080373695     0.040172701953    31.972071174400
         N           -0.115492179287     1.436528826305    -0.252715298047    14.003074004430
         C            1.835902620713    -0.217732373695    -0.567199298047    12.000000000000
         C            0.389961620713     0.072140626305    -0.306197298047    12.000000000000
         C            2.709045620713     0.178291626305     0.626078701953    12.000000000000
         C           -1.977748379287     0.014049626305     0.265749701953    12.000000000000
         C           -1.437414379287     1.262622626305     0.070556701953    12.000000000000
         H            1.966005620713    -1.279618373695    -0.802570298047     1.007825032230
         H            2.135809620713     0.350556626305    -1.453812298047     1.007825032230
         H            2.575659620713     1.239565626305     0.846735701953     1.007825032230
         H            3.765949620713    -0.006680373695     0.412738701953     1.007825032230
         H            2.431369620713    -0.395398373695     1.514762701953     1.007825032230
         H           -2.998207379287    -0.247190373695     0.512312701953     1.007825032230
         H           -1.988600379287     2.193607626305     0.147144701953     1.007825032230

  Basis Set: AUG-CC-PVTZ
    Blend: AUG-CC-PVTZ
  Basis Set: (AUG-CC-PVTZ AUX)
    Blend: AUG-CC-PVTZ-JKFIT
	 Reference Energy          =    -645.4571664591103399 [Eh]
	 Singles Energy            =      -0.0000000000000000 [Eh]
	 Same-Spin Energy          =      -0.3359140348194039 [Eh]
	 Opposite-Spin Energy      =      -1.0468199513849687 [Eh]
	 Correlation Energy        =      -1.3827339862043726 [Eh]
	 Total Energy              =    -646.8399004453146972 [Eh]

	 ================> DF-SCS-MP2 Energies <==================
	-----------------------------------------------------------
	 SCS Same-Spin Scale       =       0.3333333333333333 [-]
	 SCS Opposite-Spin Scale   =       1.2000000000000000 [-]
	 SCS Same-Spin Energy      =      -0.1119713449398013 [Eh]
	 SCS Opposite-Spin Energy  =      -1.2561839416619625 [Eh]
	 SCS Correlation Energy    =      -1.3681552866017637 [Eh]
	 SCS Total Energy          =    -646.8253217457121309 [Eh]
	-----------------------------------------------------------

  Dipole Moment: [D]
     X:    -0.4235      Y:    -1.6782      Z:     0.3092     Total:     1.7582

*** Psi4 exiting successfully. Buy a developer a beer!
