                               Psi4 1.3.2 release

  ==> Input File <==

--------------------------------------------------------------------------
#psi4
#
memory 32 gb

molecule  {
0 1
  S       -0.8349460    -1.1774250     0.0297960
  N       -0.1696500     1.2952110    -0.2577190
  C        1.7694220    -0.2160770    -0.5775760
  C        0.3359904     0.1238363    -0.3080827
  C        2.6425650     0.1799470     0.6157020
  C       -2.0442290     0.0157050     0.2553730
  C       -1.5038950     1.2642780     0.0601800
  H        1.8995250    -1.2779630    -0.8129470
  H        2.0693290     0.3522120    -1.4641890
  H        2.5091790     1.2412210     0.8363590
  H        3.6994690    -0.0050250     0.4023620
  H        2.3648890    -0.3937430     1.5043860
  H       -3.0646880    -0.2455350     0.5019360
  H       -2.0550810     2.1952630     0.1367680
units angstrom
no_reorient  #important for SAPT in psi4, default
symmetry c1  #important for SAPT in psi4, default
}

set PROPERTIES_ORIGIN ["COM"]
properties('MP2/aug-cc-pvtz', properties = ['dipole'])
--------------------------------------------------------------------------

    Molecular point group: c1
  Charge       = 0
  Multiplicity = 1
  Basis Set: AUG-CC-PVTZ
    Blend: AUG-CC-PVTZ
  Basis Set: (AUG-CC-PVTZ AUX)
    Blend: AUG-CC-PVTZ-JKFIT

    Orbital Energies [Eh]
    ---------------------

    Doubly Occupied:

       1A    -91.988669     2A    -15.564278     3A    -11.312100
       4A    -11.269162     5A    -11.263050     6A    -11.246319
       7A    -11.224725     8A     -8.989185     9A     -6.670081
      10A     -6.669514    11A     -6.668810    12A     -1.286025
      13A     -1.073968    14A     -1.060367    15A     -0.973512
      16A     -0.870358    17A     -0.796777    18A     -0.726286
      19A     -0.682714    20A     -0.629823    21A     -0.605804
      22A     -0.576878    23A     -0.556275    24A     -0.518160
      25A     -0.516115    26A     -0.502485    27A     -0.495407
      28A     -0.418284    29A     -0.391515    30A     -0.327943

  @DF-RHF Final Energy:  -645.48635985452665

   => Energetics <=

    Nuclear Repulsion Energy =            350.9496359589782060
    One-Electron Energy =               -1581.1228135349476815
    Two-Electron Energy =                 584.6868177214428215
    Total Energy =                       -645.4863598545266541
  Basis Set: (AUG-CC-PVTZ AUX)
    Blend: AUG-CC-PVTZ-RI
    Molecular point group: c1

    Geometry (in Angstrom), charge = 0, multiplicity = 1:

       Center              X                  Y                   Z               Mass
    ------------   -----------------  -----------------  -----------------  -----------------
         S           -0.771320109072    -1.166680287990     0.038605558351    31.972071174400
         N           -0.106024109072     1.305955712010    -0.248909441649    14.003074004430
         C            1.833047890928    -0.205332287990    -0.568766441649    12.000000000000
         C            0.399616290928     0.134581012010    -0.299273141649    12.000000000000
         C            2.706190890928     0.190691712010     0.624511558351    12.000000000000
         C           -1.980603109072     0.026449712010     0.264182558351    12.000000000000
         C           -1.440269109072     1.275022712010     0.068989558351    12.000000000000
         H            1.963150890928    -1.267218287990    -0.804137441649     1.007825032230
         H            2.132954890928     0.362956712010    -1.455379441649     1.007825032230
         H            2.572804890928     1.251965712010     0.845168558351     1.007825032230
         H            3.763094890928     0.005719712010     0.411171558351     1.007825032230
         H            2.428514890928    -0.382998287990     1.513195558351     1.007825032230
         H           -3.001062109072    -0.234790287990     0.510745558351     1.007825032230
         H           -1.991455109072     2.206007712010     0.145577558351     1.007825032230

  Basis Set: AUG-CC-PVTZ
    Blend: AUG-CC-PVTZ
  Basis Set: (AUG-CC-PVTZ AUX)
    Blend: AUG-CC-PVTZ-JKFIT
	 Reference Energy          =    -645.4863598545266541 [Eh]
	 Singles Energy            =      -0.0000000000000000 [Eh]
	 Same-Spin Energy          =      -0.3312832691371221 [Eh]
	 Opposite-Spin Energy      =      -1.0384715023022983 [Eh]
	 Correlation Energy        =      -1.3697547714394205 [Eh]
	 Total Energy              =    -646.8561146259660291 [Eh]

	 ================> DF-SCS-MP2 Energies <==================
	-----------------------------------------------------------
	 SCS Same-Spin Scale       =       0.3333333333333333 [-]
	 SCS Opposite-Spin Scale   =       1.2000000000000000 [-]
	 SCS Same-Spin Energy      =      -0.1104277563790407 [Eh]
	 SCS Opposite-Spin Energy  =      -1.2461658027627580 [Eh]
	 SCS Correlation Energy    =      -1.3565935591417988 [Eh]
	 SCS Total Energy          =    -646.8429534136683969 [Eh]
	-----------------------------------------------------------

  Dipole Moment: [D]
     X:    -0.1995      Y:    -1.0889      Z:     0.2250     Total:     1.1297

*** Psi4 exiting successfully. Buy a developer a beer!
