                               Psi4 1.3.2 release

  ==> Input File <==

--------------------------------------------------------------------------
#psi4
#
memory 32 gb

molecule  {
0 1
  S       -0.8349460    -1.1774250     0.0297960
  N       -0.1696500     1.2952110    -0.2577190
  C        1.7694220    -0.2160770    -0.5775760
  C        0.4066835    -0.0133504    -0.3318193
  C        2.6425650     0.1799470     0.6157020
  C       -2.0442290     0.0157050     0.2553730
  C       -1.5038950     1.2642780     0.0601800
  H        1.8995250    -1.2779630    -0.8129470
  H        2.0693290     0.3522120    -1.4641890
  H        2.5091790     1.2412210     0.8363590
  H        3.6994690    -0.0050250     0.4023620
  H        2.3648890    -0.3937430     1.5043860
  H       -3.0646880    -0.2455350     0.5019360
  H       -2.0550810     2.1952630     0.1367680
units angstrom
no_reorient  #important for SAPT in psi4, default
symmetry c1  #important for SAPT in psi4, default
}

set PROPERTIES_ORIGIN ["COM"]
properties('MP2/aug-cc-pvtz', properties = ['dipole'])
--------------------------------------------------------------------------

    Molecular point group: c1
  Charge       = 0
  Multiplicity = 1
  Basis Set: AUG-CC-PVTZ
    Blend: AUG-CC-PVTZ
  Basis Set: (AUG-CC-PVTZ AUX)
    Blend: AUG-CC-PVTZ-JKFIT

    Orbital Energies [Eh]
    ---------------------

    Doubly Occupied:

       1A    -92.001227     2A    -15.568019     3A    -11.321322
       4A    -11.269115     5A    -11.258972     6A    -11.243170
       7A    -11.227779     8A     -9.000874     9A     -6.681722
      10A     -6.681393    11A     -6.680746    12A     -1.244877
      13A     -1.093335    14A     -1.051620    15A     -0.972678
      16A     -0.884566    17A     -0.778207    18A     -0.733899
      19A     -0.676976    20A     -0.636443    21A     -0.609394
      22A     -0.568787    23A     -0.553939    24A     -0.524495
      25A     -0.513839    26A     -0.500905    27A     -0.497730
      28A     -0.415922    29A     -0.378884    30A     -0.319674

  @DF-RHF Final Energy:  -645.45848338917790

   => Energetics <=

    Nuclear Repulsion Energy =            350.2088915373761893
    One-Electron Energy =               -1579.5537288155262559
    Two-Electron Energy =                 583.8863538889720530
    Total Energy =                       -645.4584833891778999
  Basis Set: (AUG-CC-PVTZ AUX)
    Blend: AUG-CC-PVTZ-RI
    Molecular point group: c1

    Geometry (in Angstrom), charge = 0, multiplicity = 1:

       Center              X                  Y                   Z               Mass
    ------------   -----------------  -----------------  -----------------  -----------------
         S           -0.778825353674    -1.152115645335     0.041125591975    31.972071174400
         N           -0.113529353674     1.320520354665    -0.246389408025    14.003074004430
         C            1.825542646326    -0.190767645335    -0.566246408025    12.000000000000
         C            0.462804146326     0.011958954665    -0.320489708025    12.000000000000
         C            2.698685646326     0.205256354665     0.627031591975    12.000000000000
         C           -1.988108353674     0.041014354665     0.266702591975    12.000000000000
         C           -1.447774353674     1.289587354665     0.071509591975    12.000000000000
         H            1.955645646326    -1.252653645335    -0.801617408025     1.007825032230
         H            2.125449646326     0.377521354665    -1.452859408025     1.007825032230
         H            2.565299646326     1.266530354665     0.847688591975     1.007825032230
         H            3.755589646326     0.020284354665     0.413691591975     1.007825032230
         H            2.421009646326    -0.368433645335     1.515715591975     1.007825032230
         H           -3.008567353674    -0.220225645335     0.513265591975     1.007825032230
         H           -1.998960353674     2.220572354665     0.148097591975     1.007825032230

  Basis Set: AUG-CC-PVTZ
    Blend: AUG-CC-PVTZ
  Basis Set: (AUG-CC-PVTZ AUX)
    Blend: AUG-CC-PVTZ-JKFIT
	 Reference Energy          =    -645.4584833891778999 [Eh]
	 Singles Energy            =      -0.0000000000000000 [Eh]
	 Same-Spin Energy          =      -0.3365664389964074 [Eh]
	 Opposite-Spin Energy      =      -1.0458738210006810 [Eh]
	 Correlation Energy        =      -1.3824402599970884 [Eh]
	 Total Energy              =    -646.8409236491750107 [Eh]

	 ================> DF-SCS-MP2 Energies <==================
	-----------------------------------------------------------
	 SCS Same-Spin Scale       =       0.3333333333333333 [-]
	 SCS Opposite-Spin Scale   =       1.2000000000000000 [-]
	 SCS Same-Spin Energy      =      -0.1121888129988025 [Eh]
	 SCS Opposite-Spin Energy  =      -1.2550485852008173 [Eh]
	 SCS Correlation Energy    =      -1.3672373981996198 [Eh]
	 SCS Total Energy          =    -646.8257207873774632 [Eh]
	-----------------------------------------------------------

  Dipole Moment: [D]
     X:    -0.3143      Y:    -1.3501      Z:     0.2859     Total:     1.4153

*** Psi4 exiting successfully. Buy a developer a beer!
