                               Psi4 1.3.2 release

  ==> Input File <==

--------------------------------------------------------------------------
#psi4
#
memory 32 gb

molecule  {
0 1
  S       -0.8757246    -1.2195190     0.0417648
  N       -0.1696500     1.2952110    -0.2577190
  C        1.7694220    -0.2160770    -0.5775760
  C        0.3234810     0.0737960    -0.3165740
  C        2.6425650     0.1799470     0.6157020
  C       -2.0442290     0.0157050     0.2553730
  C       -1.5038950     1.2642780     0.0601800
  H        1.8995250    -1.2779630    -0.8129470
  H        2.0693290     0.3522120    -1.4641890
  H        2.5091790     1.2412210     0.8363590
  H        3.6994690    -0.0050250     0.4023620
  H        2.3648890    -0.3937430     1.5043860
  H       -3.0646880    -0.2455350     0.5019360
  H       -2.0550810     2.1952630     0.1367680
units angstrom
no_reorient  #important for SAPT in psi4, default
symmetry c1  #important for SAPT in psi4, default
}

set PROPERTIES_ORIGIN ["COM"]
properties('MP2/aug-cc-pvtz', properties = ['dipole'])
--------------------------------------------------------------------------

    Molecular point group: c1
  Charge       = 0
  Multiplicity = 1
  Basis Set: AUG-CC-PVTZ
    Blend: AUG-CC-PVTZ
  Basis Set: (AUG-CC-PVTZ AUX)
    Blend: AUG-CC-PVTZ-JKFIT

    Orbital Energies [Eh]
    ---------------------

    Doubly Occupied:

       1A    -91.994915     2A    -15.568792     3A    -11.318765
       4A    -11.269124     5A    -11.262122     6A    -11.246444
       7A    -11.224660     8A     -8.994600     9A     -6.675484
      10A     -6.674874    11A     -6.674234    12A     -1.272035
      13A     -1.072269    14A     -1.058582    15A     -0.970704
      16A     -0.870620    17A     -0.790498    18A     -0.727804
      19A     -0.680602    20A     -0.629081    21A     -0.600592
      22A     -0.570693    23A     -0.551515    24A     -0.517000
      25A     -0.513247    26A     -0.503736    27A     -0.497317
      28A     -0.424803    29A     -0.390368    30A     -0.324817

  @DF-RHF Final Energy:  -645.48266701802459

   => Energetics <=

    Nuclear Repulsion Energy =            348.6929206900836107
    One-Electron Energy =               -1576.6105827020624019
    Two-Electron Energy =                 582.4349949939542057
    Total Energy =                       -645.4826670180245856
  Basis Set: (AUG-CC-PVTZ AUX)
    Blend: AUG-CC-PVTZ-RI
    Molecular point group: c1

    Geometry (in Angstrom), charge = 0, multiplicity = 1:

       Center              X                  Y                   Z               Mass
    ------------   -----------------  -----------------  -----------------  -----------------
         S           -0.799235839697    -1.191554812323     0.048090310547    31.972071174400
         N           -0.093161239697     1.323175187677    -0.251393489453    14.003074004430
         C            1.845910760303    -0.188112812323    -0.571250489453    12.000000000000
         C            0.399969760303     0.101760187677    -0.310248489453    12.000000000000
         C            2.719053760303     0.207911187677     0.622027510547    12.000000000000
         C           -1.967740239697     0.043669187677     0.261698510547    12.000000000000
         C           -1.427406239697     1.292242187677     0.066505510547    12.000000000000
         H            1.976013760303    -1.249998812323    -0.806621489453     1.007825032230
         H            2.145817760303     0.380176187677    -1.457863489453     1.007825032230
         H            2.585667760303     1.269185187677     0.842684510547     1.007825032230
         H            3.775957760303     0.022939187677     0.408687510547     1.007825032230
         H            2.441377760303    -0.365778812323     1.510711510547     1.007825032230
         H           -2.988199239697    -0.217570812323     0.508261510547     1.007825032230
         H           -1.978592239697     2.223227187677     0.143093510547     1.007825032230

  Basis Set: AUG-CC-PVTZ
    Blend: AUG-CC-PVTZ
  Basis Set: (AUG-CC-PVTZ AUX)
    Blend: AUG-CC-PVTZ-JKFIT
	 Reference Energy          =    -645.4826670180245856 [Eh]
	 Singles Energy            =      -0.0000000000000000 [Eh]
	 Same-Spin Energy          =      -0.3321440570119585 [Eh]
	 Opposite-Spin Energy      =      -1.0406894508641897 [Eh]
	 Correlation Energy        =      -1.3728335078761482 [Eh]
	 Total Energy              =    -646.8555005259007658 [Eh]

	 ================> DF-SCS-MP2 Energies <==================
	-----------------------------------------------------------
	 SCS Same-Spin Scale       =       0.3333333333333333 [-]
	 SCS Opposite-Spin Scale   =       1.2000000000000000 [-]
	 SCS Same-Spin Energy      =      -0.1107146856706528 [Eh]
	 SCS Opposite-Spin Energy  =      -1.2488273410370276 [Eh]
	 SCS Correlation Energy    =      -1.3595420267076805 [Eh]
	 SCS Total Energy          =    -646.8422090447322716 [Eh]
	-----------------------------------------------------------

  Dipole Moment: [D]
     X:    -0.2643      Y:    -1.1788      Z:     0.2509     Total:     1.2338

*** Psi4 exiting successfully. Buy a developer a beer!
