                               Psi4 1.4a3.dev225

  ==> Input File <==

--------------------------------------------------------------------------
#psi4
#
memory 32 gb

molecule  {
0 1
  S       -0.8349460    -1.1774250     0.0297960
  N       -0.1696500     1.2952110    -0.2577190
  C        1.7694220    -0.2160770    -0.5775760
  C        0.3234810     0.0737960    -0.3165740
  C        2.6425650     0.1799470     0.6157020
  C       -2.0442290     0.0157050     0.2553730
  C       -1.5038950     1.2642780     0.0601800
  H        1.8995250    -1.2779630    -0.8129470
  H        2.0693290     0.3522120    -1.4641890
  H        2.5091790     1.2412210     0.8363590
  H        3.6994690    -0.0050250     0.4023620
  H        2.3648890    -0.3937430     1.5043860
  H       -3.0646880    -0.2455350     0.5019360
  H       -2.0652447     2.2124300     0.1381803
units angstrom
no_reorient  #important for SAPT in psi4, default
symmetry c1  #important for SAPT in psi4, default
}

set PROPERTIES_ORIGIN ["COM"]
properties('MP2/aug-cc-pvtz', properties = ['dipole'])
--------------------------------------------------------------------------

    Molecular point group: c1
  Charge       = 0
  Multiplicity = 1
  Basis Set: AUG-CC-PVTZ
    Blend: AUG-CC-PVTZ
  Basis Set: (AUG-CC-PVTZ AUX)
    Blend: AUG-CC-PVTZ-JKFIT

    Orbital Energies [Eh]
    ---------------------

    Doubly Occupied:

       1A    -91.994362     2A    -15.565363     3A    -11.312864
       4A    -11.271371     5A    -11.261344     6A    -11.245800
       7A    -11.224226     8A     -8.995115     9A     -6.676017
      10A     -6.675506    11A     -6.674790    12A     -1.274915
      13A     -1.072180    14A     -1.061709    15A     -0.974486
      16A     -0.869905    17A     -0.790917    18A     -0.728953
      19A     -0.678982    20A     -0.628592    21A     -0.601625
      22A     -0.571532    23A     -0.556186    24A     -0.518409
      25A     -0.512192    26A     -0.503269    27A     -0.496057
      28A     -0.424926    29A     -0.387570    30A     -0.328611

  @DF-RHF Final Energy:  -645.48532343885142

   => Energetics <=

    Nuclear Repulsion Energy =            350.9016996377226292
    One-Electron Energy =               -1581.0185017498301931
    Two-Electron Energy =                 584.6314786732560833
    Total Energy =                       -645.4853234388514238
  Basis Set: (AUG-CC-PVTZ AUX)
    Blend: AUG-CC-PVTZ-RI
    Molecular point group: c1

    Geometry (in Angstrom), charge = 0, multiplicity = 1:

       Center              X                  Y                   Z               Mass
    ------------   -----------------  -----------------  -----------------  -----------------
         S           -0.769901404797    -1.161520749121     0.039494457930    31.972071174400
         N           -0.104605404797     1.311115250879    -0.248020542070    14.003074004430
         C            1.834466595203    -0.200172749121    -0.567877542070    12.000000000000
         C            0.388525595203     0.089700250879    -0.306875542070    12.000000000000
         C            2.707609595203     0.195851250879     0.625400457930    12.000000000000
         C           -1.979184404797     0.031609250879     0.265071457930    12.000000000000
         C           -1.438850404797     1.280182250879     0.069878457930    12.000000000000
         H            1.964569595203    -1.262058749121    -0.803248542070     1.007825032230
         H            2.134373595203     0.368116250879    -1.454490542070     1.007825032230
         H            2.574223595203     1.257125250879     0.846057457930     1.007825032230
         H            3.764513595203     0.010879250879     0.412060457930     1.007825032230
         H            2.429933595203    -0.377838749121     1.514084457930     1.007825032230
         H           -2.999643404797    -0.229630749121     0.511634457930     1.007825032230
         H           -2.000200104797     2.228334250879     0.147878757930     1.007825032230

  Basis Set: AUG-CC-PVTZ
    Blend: AUG-CC-PVTZ
  Basis Set: (AUG-CC-PVTZ AUX)
    Blend: AUG-CC-PVTZ-JKFIT
	 Reference Energy          =    -645.4853234388514238 [Eh]
	 Singles Energy            =      -0.0000000000000000 [Eh]
	 Same-Spin Energy          =      -0.3323712472041897 [Eh]
	 Opposite-Spin Energy      =      -1.0398296044969153 [Eh]
	 Correlation Energy        =      -1.3722008517011051 [Eh]
	 Total Energy              =    -646.8575242905525329 [Eh]

	 ================> DF-SCS-MP2 Energies <==================
	-----------------------------------------------------------
	 SCS Same-Spin Scale       =       0.3333333333333333 [-]
	 SCS Opposite-Spin Scale   =       1.2000000000000000 [-]
	 SCS Same-Spin Energy      =      -0.1107904157347299 [Eh]
	 SCS Opposite-Spin Energy  =      -1.2477955253962982 [Eh]
	 SCS Correlation Energy    =      -1.3585859411310282 [Eh]
	 SCS Total Energy          =    -646.8439093799825059 [Eh]
	-----------------------------------------------------------

  Dipole Moment: [D]
     X:    -0.3275      Y:    -1.2543      Z:     0.2657     Total:     1.3233

*** Psi4 exiting successfully. Buy a developer a beer!
