                               Psi4 1.3.2 release

  ==> Input File <==

--------------------------------------------------------------------------
#psi4
#
memory 32 gb

molecule  {
0 1
  S       -0.8349460    -1.1774250     0.0297960
  N       -0.1696500     1.2952110    -0.2577190
  C        1.7694220    -0.2160770    -0.5775760
  C        0.2269323     0.0931515    -0.2991463
  C        2.6425650     0.1799470     0.6157020
  C       -2.0442290     0.0157050     0.2553730
  C       -1.5038950     1.2642780     0.0601800
  H        1.8995250    -1.2779630    -0.8129470
  H        2.0693290     0.3522120    -1.4641890
  H        2.5091790     1.2412210     0.8363590
  H        3.6994690    -0.0050250     0.4023620
  H        2.3648890    -0.3937430     1.5043860
  H       -3.0646880    -0.2455350     0.5019360
  H       -2.0550810     2.1952630     0.1367680
units angstrom
no_reorient  #important for SAPT in psi4, default
symmetry c1  #important for SAPT in psi4, default
}

set PROPERTIES_ORIGIN ["COM"]
properties('MP2/aug-cc-pvtz', properties = ['dipole'])
--------------------------------------------------------------------------

    Molecular point group: c1
  Charge       = 0
  Multiplicity = 1
  Basis Set: AUG-CC-PVTZ
    Blend: AUG-CC-PVTZ
  Basis Set: (AUG-CC-PVTZ AUX)
    Blend: AUG-CC-PVTZ-JKFIT

    Orbital Energies [Eh]
    ---------------------

    Doubly Occupied:

       1A    -91.994700     2A    -15.561732     3A    -11.304694
       4A    -11.269787     5A    -11.260759     6A    -11.245920
       7A    -11.220554     8A     -8.996866     9A     -6.677854
      10A     -6.677160    11A     -6.676379    12A     -1.297426
      13A     -1.075172    14A     -1.054697    15A     -0.977840
      16A     -0.856244    17A     -0.798562    18A     -0.728909
      19A     -0.683327    20A     -0.621814    21A     -0.595407
      22A     -0.573862    23A     -0.560294    24A     -0.517961
      25A     -0.507758    26A     -0.499970    27A     -0.493215
      28A     -0.429785    29A     -0.394154    30A     -0.334224

  @DF-RHF Final Energy:  -645.47850717480128

   => Energetics <=

    Nuclear Repulsion Energy =            352.1123922803126334
    One-Electron Energy =               -1583.4077427372508282
    Two-Electron Energy =                 585.8168432821369151
    Total Energy =                       -645.4785071748012797
  Basis Set: (AUG-CC-PVTZ AUX)
    Blend: AUG-CC-PVTZ-RI
    Molecular point group: c1

    Geometry (in Angstrom), charge = 0, multiplicity = 1:

       Center              X                  Y                   Z               Mass
    ------------   -----------------  -----------------  -----------------  -----------------
         S           -0.759741783658    -1.163422587740     0.037656811332    31.972071174400
         N           -0.094445783658     1.309213412260    -0.249858188668    14.003074004430
         C            1.844626216342    -0.202074587740    -0.569715188668    12.000000000000
         C            0.302136516342     0.107153912260    -0.291285488668    12.000000000000
         C            2.717769216342     0.193949412260     0.623562811332    12.000000000000
         C           -1.969024783658     0.029707412260     0.263233811332    12.000000000000
         C           -1.428690783658     1.278280412260     0.068040811332    12.000000000000
         H            1.974729216342    -1.263960587740    -0.805086188668     1.007825032230
         H            2.144533216342     0.366214412260    -1.456328188668     1.007825032230
         H            2.584383216342     1.255223412260     0.844219811332     1.007825032230
         H            3.774673216342     0.008977412260     0.410222811332     1.007825032230
         H            2.440093216342    -0.379740587740     1.512246811332     1.007825032230
         H           -2.989483783658    -0.231532587740     0.509796811332     1.007825032230
         H           -1.979876783658     2.209265412260     0.144628811332     1.007825032230

  Basis Set: AUG-CC-PVTZ
    Blend: AUG-CC-PVTZ
  Basis Set: (AUG-CC-PVTZ AUX)
    Blend: AUG-CC-PVTZ-JKFIT
	 Reference Energy          =    -645.4785071748012797 [Eh]
	 Singles Energy            =      -0.0000000000000000 [Eh]
	 Same-Spin Energy          =      -0.3307599375919143 [Eh]
	 Opposite-Spin Energy      =      -1.0376554944902736 [Eh]
	 Correlation Energy        =      -1.3684154320821880 [Eh]
	 Total Energy              =    -646.8469226068834814 [Eh]

	 ================> DF-SCS-MP2 Energies <==================
	-----------------------------------------------------------
	 SCS Same-Spin Scale       =       0.3333333333333333 [-]
	 SCS Opposite-Spin Scale   =       1.2000000000000000 [-]
	 SCS Same-Spin Energy      =      -0.1102533125306381 [Eh]
	 SCS Opposite-Spin Energy  =      -1.2451865933883284 [Eh]
	 SCS Correlation Energy    =      -1.3554399059189666 [Eh]
	 SCS Total Energy          =    -646.8339470807202360 [Eh]
	-----------------------------------------------------------

  Dipole Moment: [D]
     X:    -0.5205      Y:    -1.3178      Z:     0.2912     Total:     1.4465

*** Psi4 exiting successfully. Buy a developer a beer!
