                               Psi4 1.3.2 release

  ==> Input File <==

--------------------------------------------------------------------------
#psi4
#
memory 32 gb

molecule  {
0 1
  S       -0.7216400    -1.0426349    -0.0044047
  N       -0.1696500     1.2952110    -0.2577190
  C        1.7694220    -0.2160770    -0.5775760
  C        0.3234810     0.0737960    -0.3165740
  C        2.6425650     0.1799470     0.6157020
  C       -2.0442290     0.0157050     0.2553730
  C       -1.5038950     1.2642780     0.0601800
  H        1.8995250    -1.2779630    -0.8129470
  H        2.0693290     0.3522120    -1.4641890
  H        2.5091790     1.2412210     0.8363590
  H        3.6994690    -0.0050250     0.4023620
  H        2.3648890    -0.3937430     1.5043860
  H       -3.0646880    -0.2455350     0.5019360
  H       -2.0550810     2.1952630     0.1367680
units angstrom
no_reorient  #important for SAPT in psi4, default
symmetry c1  #important for SAPT in psi4, default
}

set PROPERTIES_ORIGIN ["COM"]
properties('MP2/aug-cc-pvtz', properties = ['dipole'])
--------------------------------------------------------------------------

    Molecular point group: c1
  Charge       = 0
  Multiplicity = 1
  Basis Set: AUG-CC-PVTZ
    Blend: AUG-CC-PVTZ
  Basis Set: (AUG-CC-PVTZ AUX)
    Blend: AUG-CC-PVTZ-JKFIT

    Orbital Energies [Eh]
    ---------------------

    Doubly Occupied:

       1A    -91.989124     2A    -15.554223     3A    -11.291988
       4A    -11.269422     5A    -11.257942     6A    -11.245039
       7A    -11.223381     8A     -8.995080     9A     -6.676511
      10A     -6.675290    11A     -6.674588    12A     -1.290412
      13A     -1.080898    14A     -1.066759    15A     -0.989907
      16A     -0.869816    17A     -0.797530    18A     -0.732435
      19A     -0.682394    20A     -0.629756    21A     -0.611550
      22A     -0.576191    23A     -0.571782    24A     -0.523954
      25A     -0.511987    26A     -0.503139    27A     -0.486660
      28A     -0.420538    29A     -0.379365    30A     -0.340693

  @DF-RHF Final Energy:  -645.46867318174236

   => Energetics <=

    Nuclear Repulsion Energy =            358.6565372617799881
    One-Electron Energy =               -1596.4137157248915173
    Two-Electron Energy =                 592.2885052813692255
    Total Energy =                       -645.4686731817423606
  Basis Set: (AUG-CC-PVTZ AUX)
    Blend: AUG-CC-PVTZ-RI
    Molecular point group: c1

    Geometry (in Angstrom), charge = 0, multiplicity = 1:

       Center              X                  Y                   Z               Mass
    ------------   -----------------  -----------------  -----------------  -----------------
         S           -0.688736192960    -1.064704818466     0.014980490098    31.972071174400
         N           -0.136746192960     1.273141081534    -0.238333809902    14.003074004430
         C            1.802325807040    -0.238146918466    -0.558190809902    12.000000000000
         C            0.356384807040     0.051726081534    -0.297188809902    12.000000000000
         C            2.675468807040     0.157877081534     0.635087190098    12.000000000000
         C           -2.011325192960    -0.006364918466     0.274758190098    12.000000000000
         C           -1.470991192960     1.242208081534     0.079565190098    12.000000000000
         H            1.932428807040    -1.300032918466    -0.793561809902     1.007825032230
         H            2.102232807040     0.330142081534    -1.444803809902     1.007825032230
         H            2.542082807040     1.219151081534     0.855744190098     1.007825032230
         H            3.732372807040    -0.027094918466     0.421747190098     1.007825032230
         H            2.397792807040    -0.415812918466     1.523771190098     1.007825032230
         H           -3.031784192960    -0.267604918466     0.521321190098     1.007825032230
         H           -2.022177192960     2.173193081534     0.156153190098     1.007825032230

  Basis Set: AUG-CC-PVTZ
    Blend: AUG-CC-PVTZ
  Basis Set: (AUG-CC-PVTZ AUX)
    Blend: AUG-CC-PVTZ-JKFIT
	 Reference Energy          =    -645.4686731817423606 [Eh]
	 Singles Energy            =      -0.0000000000000000 [Eh]
	 Same-Spin Energy          =      -0.3337718311898006 [Eh]
	 Opposite-Spin Energy      =      -1.0382840346301796 [Eh]
	 Correlation Energy        =      -1.3720558658199802 [Eh]
	 Total Energy              =    -646.8407290475623768 [Eh]

	 ================> DF-SCS-MP2 Energies <==================
	-----------------------------------------------------------
	 SCS Same-Spin Scale       =       0.3333333333333333 [-]
	 SCS Opposite-Spin Scale   =       1.2000000000000000 [-]
	 SCS Same-Spin Energy      =      -0.1112572770632669 [Eh]
	 SCS Opposite-Spin Energy  =      -1.2459408415562154 [Eh]
	 SCS Correlation Energy    =      -1.3571981186194824 [Eh]
	 SCS Total Energy          =    -646.8258713003618823 [Eh]
	-----------------------------------------------------------

  Dipole Moment: [D]
     X:    -0.4289      Y:    -1.3806      Z:     0.2909     Total:     1.4747

*** Psi4 exiting successfully. Buy a developer a beer!
