                               Psi4 1.3.2 release

  ==> Input File <==

--------------------------------------------------------------------------
#psi4
#
memory 32 gb

molecule  {
0 1
  S       -0.7446894    -1.2580033     0.0192858
  N       -0.1696500     1.2952110    -0.2577190
  C        1.7694220    -0.2160770    -0.5775760
  C        0.3234810     0.0737960    -0.3165740
  C        2.6425650     0.1799470     0.6157020
  C       -2.0442290     0.0157050     0.2553730
  C       -1.5038950     1.2642780     0.0601800
  H        1.8995250    -1.2779630    -0.8129470
  H        2.0693290     0.3522120    -1.4641890
  H        2.5091790     1.2412210     0.8363590
  H        3.6994690    -0.0050250     0.4023620
  H        2.3648890    -0.3937430     1.5043860
  H       -3.0646880    -0.2455350     0.5019360
  H       -2.0550810     2.1952630     0.1367680
units angstrom
no_reorient  #important for SAPT in psi4, default
symmetry c1  #important for SAPT in psi4, default
}

set PROPERTIES_ORIGIN ["COM"]
properties('MP2/aug-cc-pvtz', properties = ['dipole'])
--------------------------------------------------------------------------

    Molecular point group: c1
  Charge       = 0
  Multiplicity = 1
  Basis Set: AUG-CC-PVTZ
    Blend: AUG-CC-PVTZ
  Basis Set: (AUG-CC-PVTZ AUX)
    Blend: AUG-CC-PVTZ-JKFIT

    Orbital Energies [Eh]
    ---------------------

    Doubly Occupied:

       1A    -91.997896     2A    -15.564940     3A    -11.317349
       4A    -11.273923     5A    -11.270131     6A    -11.244637
       7A    -11.224440     8A     -8.996608     9A     -6.677485
      10A     -6.676672    11A     -6.676180    12A     -1.270604
      13A     -1.073999    14A     -1.041239    15A     -0.978169
      16A     -0.869994    17A     -0.796336    18A     -0.720535
      19A     -0.678263    20A     -0.629883    21A     -0.599319
      22A     -0.574086    23A     -0.552023    24A     -0.515821
      25A     -0.510430    26A     -0.504784    27A     -0.485431
      28A     -0.425701    29A     -0.384339    30A     -0.332779

  @DF-RHF Final Energy:  -645.47799689521344

   => Energetics <=

    Nuclear Repulsion Energy =            348.3011252252616714
    One-Electron Energy =               -1575.8302557668955615
    Two-Electron Energy =                 582.0511336464205669
    Total Energy =                       -645.4779968952134368
  Basis Set: (AUG-CC-PVTZ AUX)
    Blend: AUG-CC-PVTZ-RI
    Molecular point group: c1

    Geometry (in Angstrom), charge = 0, multiplicity = 1:

       Center              X                  Y                   Z               Mass
    ------------   -----------------  -----------------  -----------------  -----------------
         S           -0.705265752419    -1.219153297538     0.031969805584    31.972071174400
         N           -0.130226352419     1.334061002462    -0.245034994416    14.003074004430
         C            1.808845647581    -0.177226997538    -0.564891994416    12.000000000000
         C            0.362904647581     0.112646002462    -0.303889994416    12.000000000000
         C            2.681988647581     0.218797002462     0.628386005584    12.000000000000
         C           -2.004805352419     0.054555002462     0.268057005584    12.000000000000
         C           -1.464471352419     1.303128002462     0.072864005584    12.000000000000
         H            1.938948647581    -1.239112997538    -0.800262994416     1.007825032230
         H            2.108752647581     0.391062002462    -1.451504994416     1.007825032230
         H            2.548602647581     1.280071002462     0.849043005584     1.007825032230
         H            3.738892647581     0.033825002462     0.415046005584     1.007825032230
         H            2.404312647581    -0.354892997538     1.517070005584     1.007825032230
         H           -3.025264352419    -0.206684997538     0.514620005584     1.007825032230
         H           -2.015657352419     2.234113002462     0.149452005584     1.007825032230

  Basis Set: AUG-CC-PVTZ
    Blend: AUG-CC-PVTZ
  Basis Set: (AUG-CC-PVTZ AUX)
    Blend: AUG-CC-PVTZ-JKFIT
	 Reference Energy          =    -645.4779968952134368 [Eh]
	 Singles Energy            =      -0.0000000000000000 [Eh]
	 Same-Spin Energy          =      -0.3311236817928847 [Eh]
	 Opposite-Spin Energy      =      -1.0407317243211638 [Eh]
	 Correlation Energy        =      -1.3718554061140484 [Eh]
	 Total Energy              =    -646.8498523013274735 [Eh]

	 ================> DF-SCS-MP2 Energies <==================
	-----------------------------------------------------------
	 SCS Same-Spin Scale       =       0.3333333333333333 [-]
	 SCS Opposite-Spin Scale   =       1.2000000000000000 [-]
	 SCS Same-Spin Energy      =      -0.1103745605976282 [Eh]
	 SCS Opposite-Spin Energy  =      -1.2488780691853965 [Eh]
	 SCS Correlation Energy    =      -1.3592526297830247 [Eh]
	 SCS Total Energy          =    -646.8372495249964231 [Eh]
	-----------------------------------------------------------

  Dipole Moment: [D]
     X:    -0.3020      Y:    -1.1766      Z:     0.2581     Total:     1.2418

*** Psi4 exiting successfully. Buy a developer a beer!
