                               Psi4 1.3.2 release

  ==> Input File <==

--------------------------------------------------------------------------
#psi4
#
memory 32 gb

molecule  {
0 1
  S       -0.8349460    -1.1774250     0.0297960
  N       -0.1696500     1.2952110    -0.2577190
  C        1.7694220    -0.2160770    -0.5775760
  C        0.3234810     0.0737960    -0.3165740
  C        2.6425650     0.1799470     0.6157020
  C       -2.0011542    -0.0034162     0.2464069
  C       -1.5038950     1.2642780     0.0601800
  H        1.8995250    -1.2779630    -0.8129470
  H        2.0693290     0.3522120    -1.4641890
  H        2.5091790     1.2412210     0.8363590
  H        3.6994690    -0.0050250     0.4023620
  H        2.3648890    -0.3937430     1.5043860
  H       -3.0646880    -0.2455350     0.5019360
  H       -2.0550810     2.1952630     0.1367680
units angstrom
no_reorient  #important for SAPT in psi4, default
symmetry c1  #important for SAPT in psi4, default
}

set PROPERTIES_ORIGIN ["COM"]
properties('MP2/aug-cc-pvtz', properties = ['dipole'])
--------------------------------------------------------------------------

    Molecular point group: c1
  Charge       = 0
  Multiplicity = 1
  Basis Set: AUG-CC-PVTZ
    Blend: AUG-CC-PVTZ
  Basis Set: (AUG-CC-PVTZ AUX)
    Blend: AUG-CC-PVTZ-JKFIT

    Orbital Energies [Eh]
    ---------------------

    Doubly Occupied:

       1A    -91.995046     2A    -15.564843     3A    -11.309805
       4A    -11.267140     5A    -11.260672     6A    -11.244626
       7A    -11.223289     8A     -8.996728     9A     -6.677700
      10A     -6.677112    11A     -6.676350    12A     -1.276620
      13A     -1.072810    14A     -1.068115    15A     -0.973214
      16A     -0.869028    17A     -0.786851    18A     -0.731004
      19A     -0.679976    20A     -0.625569    21A     -0.601124
      22A     -0.570356    23A     -0.553702    24A     -0.518200
      25A     -0.514198    26A     -0.506888    27A     -0.497363
      28A     -0.424909    29A     -0.390593    30A     -0.325467

  @DF-RHF Final Energy:  -645.48228140121103

   => Energetics <=

    Nuclear Repulsion Energy =            352.0596038117336093
    One-Electron Energy =               -1583.3251764701246884
    Two-Electron Energy =                 585.7832912571801671
    Total Energy =                       -645.4822814012110257
  Basis Set: (AUG-CC-PVTZ AUX)
    Blend: AUG-CC-PVTZ-RI
    Molecular point group: c1

    Geometry (in Angstrom), charge = 0, multiplicity = 1:

       Center              X                  Y                   Z               Mass
    ------------   -----------------  -----------------  -----------------  -----------------
         S           -0.774565133033    -1.159337648121     0.040458950791    31.972071174400
         N           -0.109269133033     1.313298351879    -0.247056049209    14.003074004430
         C            1.829802866967    -0.197989648121    -0.566913049209    12.000000000000
         C            0.383861866967     0.091883351879    -0.305911049209    12.000000000000
         C            2.702945866967     0.198034351879     0.626364950791    12.000000000000
         C           -1.940773333033     0.014671151879     0.257069850791    12.000000000000
         C           -1.443514133033     1.282365351879     0.070842950791    12.000000000000
         H            1.959905866967    -1.259875648121    -0.802284049209     1.007825032230
         H            2.129709866967     0.370299351879    -1.453526049209     1.007825032230
         H            2.569559866967     1.259308351879     0.847021950791     1.007825032230
         H            3.759849866967     0.013062351879     0.413024950791     1.007825032230
         H            2.425269866967    -0.375655648121     1.515048950791     1.007825032230
         H           -3.004307133033    -0.227447648121     0.512598950791     1.007825032230
         H           -1.994700133033     2.213350351879     0.147430950791     1.007825032230

  Basis Set: AUG-CC-PVTZ
    Blend: AUG-CC-PVTZ
  Basis Set: (AUG-CC-PVTZ AUX)
    Blend: AUG-CC-PVTZ-JKFIT
	 Reference Energy          =    -645.4822814012110257 [Eh]
	 Singles Energy            =      -0.0000000000000000 [Eh]
	 Same-Spin Energy          =      -0.3331229999869632 [Eh]
	 Opposite-Spin Energy      =      -1.0402428205336602 [Eh]
	 Correlation Energy        =      -1.3733658205206234 [Eh]
	 Total Energy              =    -646.8556472217316013 [Eh]

	 ================> DF-SCS-MP2 Energies <==================
	-----------------------------------------------------------
	 SCS Same-Spin Scale       =       0.3333333333333333 [-]
	 SCS Opposite-Spin Scale   =       1.2000000000000000 [-]
	 SCS Same-Spin Energy      =      -0.1110409999956544 [Eh]
	 SCS Opposite-Spin Energy  =      -1.2482913846403922 [Eh]
	 SCS Correlation Energy    =      -1.3593323846360466 [Eh]
	 SCS Total Energy          =    -646.8416137858470165 [Eh]
	-----------------------------------------------------------

  Dipole Moment: [D]
     X:    -0.3481      Y:    -1.2972      Z:     0.2662     Total:     1.3692

*** Psi4 exiting successfully. Buy a developer a beer!
