                               Psi4 1.4a3.dev225

  ==> Input File <==

--------------------------------------------------------------------------
#psi4
#
memory 32 gb

molecule  {
0 1
  S       -0.8349460    -1.1774250     0.0297960
  N       -0.1696500     1.2952110    -0.2577190
  C        1.7694220    -0.2160770    -0.5775760
  C        0.3234810     0.0737960    -0.3165740
  C        2.6425650     0.1799470     0.6157020
  C       -2.0442290     0.0157050     0.2553730
  C       -1.4842380     1.3097002     0.0530790
  H        1.8995250    -1.2779630    -0.8129470
  H        2.0693290     0.3522120    -1.4641890
  H        2.5091790     1.2412210     0.8363590
  H        3.6994690    -0.0050250     0.4023620
  H        2.3648890    -0.3937430     1.5043860
  H       -3.0646880    -0.2455350     0.5019360
  H       -2.0550810     2.1952630     0.1367680
units angstrom
no_reorient  #important for SAPT in psi4, default
symmetry c1  #important for SAPT in psi4, default
}

set PROPERTIES_ORIGIN ["COM"]
properties('MP2/aug-cc-pvtz', properties = ['dipole'])
--------------------------------------------------------------------------

    Molecular point group: c1
  Charge       = 0
  Multiplicity = 1
  Basis Set: AUG-CC-PVTZ
    Blend: AUG-CC-PVTZ
  Basis Set: (AUG-CC-PVTZ AUX)
    Blend: AUG-CC-PVTZ-JKFIT

    Orbital Energies [Eh]
    ---------------------

    Doubly Occupied:

       1A    -91.996810     2A    -15.565140     3A    -11.311948
       4A    -11.272406     5A    -11.265801     6A    -11.245448
       7A    -11.223707     8A     -8.997185     9A     -6.678063
      10A     -6.677558    11A     -6.676919    12A     -1.276486
      13A     -1.071562    14A     -1.060014    15A     -0.971940
      16A     -0.868527    17A     -0.795769    18A     -0.730034
      19A     -0.680197    20A     -0.631248    21A     -0.603163
      22A     -0.577627    23A     -0.555416    24A     -0.516887
      25A     -0.512067    26A     -0.500303    27A     -0.497576
      28A     -0.422926    29A     -0.390383    30A     -0.319410

  @DF-RHF Final Energy:  -645.48030304560302

   => Energetics <=

    Nuclear Repulsion Energy =            350.4973456589362399
    One-Electron Energy =               -1580.1702556408067721
    Two-Electron Energy =                 584.1926069362675662
    Total Energy =                       -645.4803030456030228
  Basis Set: (AUG-CC-PVTZ AUX)
    Blend: AUG-CC-PVTZ-RI
    Molecular point group: c1

    Geometry (in Angstrom), charge = 0, multiplicity = 1:

       Center              X                  Y                   Z               Mass
    ------------   -----------------  -----------------  -----------------  -----------------
         S           -0.772078945314    -1.166190000110     0.040260939504    31.972071174400
         N           -0.106782945314     1.306445999890    -0.247254060496    14.003074004430
         C            1.832289054686    -0.204842000110    -0.567111060496    12.000000000000
         C            0.386348054686     0.085030999890    -0.306109060496    12.000000000000
         C            2.705432054686     0.191181999890     0.626166939504    12.000000000000
         C           -1.981361945314     0.026939999890     0.265837939504    12.000000000000
         C           -1.421370945314     1.320935199890     0.063543939504    12.000000000000
         H            1.962392054686    -1.266728000110    -0.802482060496     1.007825032230
         H            2.132196054686     0.363446999890    -1.453724060496     1.007825032230
         H            2.572046054686     1.252455999890     0.846823939504     1.007825032230
         H            3.762336054686     0.006209999890     0.412826939504     1.007825032230
         H            2.427756054686    -0.382508000110     1.514850939504     1.007825032230
         H           -3.001820945314    -0.234300000110     0.512400939504     1.007825032230
         H           -1.992213945314     2.206497999890     0.147232939504     1.007825032230

  Basis Set: AUG-CC-PVTZ
    Blend: AUG-CC-PVTZ
  Basis Set: (AUG-CC-PVTZ AUX)
    Blend: AUG-CC-PVTZ-JKFIT
	 Reference Energy          =    -645.4803030456030228 [Eh]
	 Singles Energy            =      -0.0000000000000000 [Eh]
	 Same-Spin Energy          =      -0.3336855069538197 [Eh]
	 Opposite-Spin Energy      =      -1.0413663998230791 [Eh]
	 Correlation Energy        =      -1.3750519067768989 [Eh]
	 Total Energy              =    -646.8553549523799120 [Eh]

	 ================> DF-SCS-MP2 Energies <==================
	-----------------------------------------------------------
	 SCS Same-Spin Scale       =       0.3333333333333333 [-]
	 SCS Opposite-Spin Scale   =       1.2000000000000000 [-]
	 SCS Same-Spin Energy      =      -0.1112285023179399 [Eh]
	 SCS Opposite-Spin Energy  =      -1.2496396797876950 [Eh]
	 SCS Correlation Energy    =      -1.3608681821056348 [Eh]
	 SCS Total Energy          =    -646.8411712277086281 [Eh]
	-----------------------------------------------------------

  Dipole Moment: [D]
     X:    -0.3407      Y:    -1.2347      Z:     0.2618     Total:     1.3073

*** Psi4 exiting successfully. Buy a developer a beer!
