                               Psi4 1.3.2 release

  ==> Input File <==

--------------------------------------------------------------------------
#psi4
#
memory 32 gb

molecule  {
0 1
  S       -0.7462576    -1.2585097     0.0122117
  N       -0.1696500     1.2952110    -0.2577190
  C        1.7694220    -0.2160770    -0.5775760
  C        0.3234810     0.0737960    -0.3165740
  C        2.6425650     0.1799470     0.6157020
  C       -2.0442290     0.0157050     0.2553730
  C       -1.5038950     1.2642780     0.0601800
  H        1.8995250    -1.2779630    -0.8129470
  H        2.0693290     0.3522120    -1.4641890
  H        2.5091790     1.2412210     0.8363590
  H        3.6994690    -0.0050250     0.4023620
  H        2.3648890    -0.3937430     1.5043860
  H       -3.0646880    -0.2455350     0.5019360
  H       -2.0550810     2.1952630     0.1367680
units angstrom
no_reorient  #important for SAPT in psi4, default
symmetry c1  #important for SAPT in psi4, default
}

set PROPERTIES_ORIGIN ["COM"]
properties('MP2/aug-cc-pvtz', properties = ['dipole'])
--------------------------------------------------------------------------

    Molecular point group: c1
  Charge       = 0
  Multiplicity = 1
  Basis Set: AUG-CC-PVTZ
    Blend: AUG-CC-PVTZ
  Basis Set: (AUG-CC-PVTZ AUX)
    Blend: AUG-CC-PVTZ-JKFIT

    Orbital Energies [Eh]
    ---------------------

    Doubly Occupied:

       1A    -91.997910     2A    -15.564928     3A    -11.317361
       4A    -11.273932     5A    -11.270136     6A    -11.244642
       7A    -11.224436     8A     -8.996618     9A     -6.677495
      10A     -6.676682    11A     -6.676190    12A     -1.270595
      13A     -1.073993    14A     -1.041218    15A     -0.978185
      16A     -0.869979    17A     -0.796347    18A     -0.720510
      19A     -0.678256    20A     -0.629900    21A     -0.599356
      22A     -0.574049    23A     -0.552016    24A     -0.515838
      25A     -0.510431    26A     -0.504784    27A     -0.485386
      28A     -0.425701    29A     -0.384343    30A     -0.332781

  @DF-RHF Final Energy:  -645.47799302906515

   => Energetics <=

    Nuclear Repulsion Energy =            348.2820859542416088
    One-Electron Energy =               -1575.7921641298682971
    Two-Electron Energy =                 582.0320851465614851
    Total Energy =                       -645.4779930290651464
  Basis Set: (AUG-CC-PVTZ AUX)
    Blend: AUG-CC-PVTZ-RI
    Molecular point group: c1

    Geometry (in Angstrom), charge = 0, multiplicity = 1:

       Center              X                  Y                   Z               Mass
    ------------   -----------------  -----------------  -----------------  -----------------
         S           -0.706390365431    -1.219516455317     0.026896712290    31.972071174400
         N           -0.129782765431     1.334204244683    -0.243033987710    14.003074004430
         C            1.809289234569    -0.177083755317    -0.562890987710    12.000000000000
         C            0.363348234569     0.112789244683    -0.301888987710    12.000000000000
         C            2.682432234569     0.218940244683     0.630387012290    12.000000000000
         C           -2.004361765431     0.054698244683     0.270058012290    12.000000000000
         C           -1.464027765431     1.303271244683     0.074865012290    12.000000000000
         H            1.939392234569    -1.238969755317    -0.798261987710     1.007825032230
         H            2.109196234569     0.391205244683    -1.449503987710     1.007825032230
         H            2.549046234569     1.280214244683     0.851044012290     1.007825032230
         H            3.739336234569     0.033968244683     0.417047012290     1.007825032230
         H            2.404756234569    -0.354749755317     1.519071012290     1.007825032230
         H           -3.024820765431    -0.206541755317     0.516621012290     1.007825032230
         H           -2.015213765431     2.234256244683     0.151453012290     1.007825032230

  Basis Set: AUG-CC-PVTZ
    Blend: AUG-CC-PVTZ
  Basis Set: (AUG-CC-PVTZ AUX)
    Blend: AUG-CC-PVTZ-JKFIT
	 Reference Energy          =    -645.4779930290651464 [Eh]
	 Singles Energy            =      -0.0000000000000000 [Eh]
	 Same-Spin Energy          =      -0.3311190046782229 [Eh]
	 Opposite-Spin Energy      =      -1.0407284633022231 [Eh]
	 Correlation Energy        =      -1.3718474679804460 [Eh]
	 Total Energy              =    -646.8498404970456477 [Eh]

	 ================> DF-SCS-MP2 Energies <==================
	-----------------------------------------------------------
	 SCS Same-Spin Scale       =       0.3333333333333333 [-]
	 SCS Opposite-Spin Scale   =       1.2000000000000000 [-]
	 SCS Same-Spin Energy      =      -0.1103730015594076 [Eh]
	 SCS Opposite-Spin Energy  =      -1.2488741559626677 [Eh]
	 SCS Correlation Energy    =      -1.3592471575220753 [Eh]
	 SCS Total Energy          =    -646.8372401865872234 [Eh]
	-----------------------------------------------------------

  Dipole Moment: [D]
     X:    -0.3030      Y:    -1.1769      Z:     0.2539     Total:     1.2415

*** Psi4 exiting successfully. Buy a developer a beer!
