                               Psi4 1.3.2 release

  ==> Input File <==

--------------------------------------------------------------------------
#psi4
#
memory 32 gb

molecule  {
0 1
  S       -0.8349460    -1.1774250     0.0297960
  N       -0.1696500     1.2952110    -0.2577190
  C        1.7694220    -0.2160770    -0.5775760
  C        0.3234810     0.0737960    -0.3165740
  C        2.6425650     0.1799470     0.6157020
  C       -2.0442290     0.0157050     0.2553730
  C       -1.4825671     1.2541539     0.0559340
  H        1.8995250    -1.2779630    -0.8129470
  H        2.0693290     0.3522120    -1.4641890
  H        2.5091790     1.2412210     0.8363590
  H        3.6994690    -0.0050250     0.4023620
  H        2.3648890    -0.3937430     1.5043860
  H       -3.0646880    -0.2455350     0.5019360
  H       -2.0550810     2.1952630     0.1367680
units angstrom
no_reorient  #important for SAPT in psi4, default
symmetry c1  #important for SAPT in psi4, default
}

set PROPERTIES_ORIGIN ["COM"]
properties('MP2/aug-cc-pvtz', properties = ['dipole'])
--------------------------------------------------------------------------

    Molecular point group: c1
  Charge       = 0
  Multiplicity = 1
  Basis Set: AUG-CC-PVTZ
    Blend: AUG-CC-PVTZ
  Basis Set: (AUG-CC-PVTZ AUX)
    Blend: AUG-CC-PVTZ-JKFIT

    Orbital Energies [Eh]
    ---------------------

    Doubly Occupied:

       1A    -91.994519     2A    -15.564544     3A    -11.313204
       4A    -11.269078     5A    -11.260005     6A    -11.245796
       7A    -11.224355     8A     -8.995228     9A     -6.676109
      10A     -6.675631    11A     -6.674921    12A     -1.281089
      13A     -1.072728    14A     -1.063750    15A     -0.974150
      16A     -0.869749    17A     -0.792882    18A     -0.730070
      19A     -0.679984    20A     -0.629171    21A     -0.601906
      22A     -0.573307    23A     -0.557863    24A     -0.519294
      25A     -0.512318    26A     -0.501971    27A     -0.494079
      28A     -0.427113    29A     -0.389497    30A     -0.326975

  @DF-RHF Final Energy:  -645.48522174770744

   => Energetics <=

    Nuclear Repulsion Energy =            351.4959529712384665
    One-Electron Energy =               -1582.1797784983759811
    Two-Electron Energy =                 585.1986037794300728
    Total Energy =                       -645.4852217477074419
  Basis Set: (AUG-CC-PVTZ AUX)
    Blend: AUG-CC-PVTZ-RI
    Molecular point group: c1

    Geometry (in Angstrom), charge = 0, multiplicity = 1:

       Center              X                  Y                   Z               Mass
    ------------   -----------------  -----------------  -----------------  -----------------
         S           -0.772256339051    -1.160292839451     0.039957833920    31.972071174400
         N           -0.106960339051     1.312343160549    -0.247557166080    14.003074004430
         C            1.832111660949    -0.198944839451    -0.567414166080    12.000000000000
         C            0.386170660949     0.090928160549    -0.306412166080    12.000000000000
         C            2.705254660949     0.197079160549     0.625863833920    12.000000000000
         C           -1.981539339051     0.032837160549     0.265534833920    12.000000000000
         C           -1.419877439051     1.271286060549     0.066095833920    12.000000000000
         H            1.962214660949    -1.260830839451    -0.802785166080     1.007825032230
         H            2.132018660949     0.369344160549    -1.454027166080     1.007825032230
         H            2.571868660949     1.258353160549     0.846520833920     1.007825032230
         H            3.762158660949     0.012107160549     0.412523833920     1.007825032230
         H            2.427578660949    -0.376610839451     1.514547833920     1.007825032230
         H           -3.001998339051    -0.228402839451     0.512097833920     1.007825032230
         H           -1.992391339051     2.212395160549     0.146929833920     1.007825032230

  Basis Set: AUG-CC-PVTZ
    Blend: AUG-CC-PVTZ
  Basis Set: (AUG-CC-PVTZ AUX)
    Blend: AUG-CC-PVTZ-JKFIT
	 Reference Energy          =    -645.4852217477074419 [Eh]
	 Singles Energy            =      -0.0000000000000000 [Eh]
	 Same-Spin Energy          =      -0.3326437115468889 [Eh]
	 Opposite-Spin Energy      =      -1.0396201977145449 [Eh]
	 Correlation Energy        =      -1.3722639092614339 [Eh]
	 Total Energy              =    -646.8574856569688336 [Eh]

	 ================> DF-SCS-MP2 Energies <==================
	-----------------------------------------------------------
	 SCS Same-Spin Scale       =       0.3333333333333333 [-]
	 SCS Opposite-Spin Scale   =       1.2000000000000000 [-]
	 SCS Same-Spin Energy      =      -0.1108812371822963 [Eh]
	 SCS Opposite-Spin Energy  =      -1.2475442372574539 [Eh]
	 SCS Correlation Energy    =      -1.3584254744397501 [Eh]
	 SCS Total Energy          =    -646.8436472221471831 [Eh]
	-----------------------------------------------------------

  Dipole Moment: [D]
     X:    -0.3247      Y:    -1.2704      Z:     0.2641     Total:     1.3375

*** Psi4 exiting successfully. Buy a developer a beer!
