                               Psi4 1.3.2 release

  ==> Input File <==

--------------------------------------------------------------------------
#psi4
#
memory 32 gb

molecule  {
0 1
  S       -0.8349460    -1.1774250     0.0297960
  N       -0.1696500     1.2952110    -0.2577190
  C        1.7694220    -0.2160770    -0.5775760
  C        0.3234810     0.0737960    -0.3165740
  C        2.6425650     0.1799470     0.6157020
  C       -2.0442290     0.0157050     0.2553730
  C       -1.5038950     1.2642780     0.0601800
  H        1.8995250    -1.2779630    -0.8129470
  H        2.0693290     0.3522120    -1.4641890
  H        2.5091790     1.2412210     0.8363590
  H        3.6994690    -0.0050250     0.4023620
  H        2.3648890    -0.3937430     1.5043860
  H       -3.1590143    -0.2696828     0.5247271
  H       -2.0550810     2.1952630     0.1367680
units angstrom
no_reorient  #important for SAPT in psi4, default
symmetry c1  #important for SAPT in psi4, default
}

set PROPERTIES_ORIGIN ["COM"]
properties('MP2/aug-cc-pvtz', properties = ['dipole'])
--------------------------------------------------------------------------

    Molecular point group: c1
  Charge       = 0
  Multiplicity = 1
  Basis Set: AUG-CC-PVTZ
    Blend: AUG-CC-PVTZ
  Basis Set: (AUG-CC-PVTZ AUX)
    Blend: AUG-CC-PVTZ-JKFIT

    Orbital Energies [Eh]
    ---------------------

    Doubly Occupied:

       1A    -91.994976     2A    -15.565681     3A    -11.312938
       4A    -11.271690     5A    -11.269233     6A    -11.245924
       7A    -11.224302     8A     -8.995667     9A     -6.676558
      10A     -6.676053    11A     -6.675327    12A     -1.275198
      13A     -1.072010    14A     -1.060160    15A     -0.974198
      16A     -0.869750    17A     -0.783504    18A     -0.728242
      19A     -0.674651    20A     -0.625223    21A     -0.600445
      22A     -0.569896    23A     -0.551497    24A     -0.517855
      25A     -0.511919    26A     -0.503962    27A     -0.495743
      28A     -0.425090    29A     -0.387756    30A     -0.328746

  @DF-RHF Final Energy:  -645.47833974512241

   => Energetics <=

    Nuclear Repulsion Energy =            350.5028985896665290
    One-Electron Energy =               -1580.2340948075132019
    Two-Electron Energy =                 584.2528564727242610
    Total Energy =                       -645.4783397451224118
  Basis Set: (AUG-CC-PVTZ AUX)
    Blend: AUG-CC-PVTZ-RI
    Molecular point group: c1

    Geometry (in Angstrom), charge = 0, multiplicity = 1:

       Center              X                  Y                   Z               Mass
    ------------   -----------------  -----------------  -----------------  -----------------
         S           -0.769150973630    -1.161152367993     0.039303835042    31.972071174400
         N           -0.103854973630     1.311483632007    -0.248211164958    14.003074004430
         C            1.835217026370    -0.199804367993    -0.568068164958    12.000000000000
         C            0.389276026370     0.090068632007    -0.307066164958    12.000000000000
         C            2.708360026370     0.196219632007     0.625209835042    12.000000000000
         C           -1.978433973630     0.031977632007     0.264880835042    12.000000000000
         C           -1.438099973630     1.280550632007     0.069687835042    12.000000000000
         H            1.965320026370    -1.261690367993    -0.803439164958     1.007825032230
         H            2.135124026370     0.368484632007    -1.454681164958     1.007825032230
         H            2.574974026370     1.257493632007     0.845866835042     1.007825032230
         H            3.765264026370     0.011247632007     0.411869835042     1.007825032230
         H            2.430684026370    -0.377470367993     1.513893835042     1.007825032230
         H           -3.093219273630    -0.253410167993     0.534234935042     1.007825032230
         H           -1.989285973630     2.211535632007     0.146275835042     1.007825032230

  Basis Set: AUG-CC-PVTZ
    Blend: AUG-CC-PVTZ
  Basis Set: (AUG-CC-PVTZ AUX)
    Blend: AUG-CC-PVTZ-JKFIT
	 Reference Energy          =    -645.4783397451224118 [Eh]
	 Singles Energy            =      -0.0000000000000000 [Eh]
	 Same-Spin Energy          =      -0.3325810188946745 [Eh]
	 Opposite-Spin Energy      =      -1.0404788057832217 [Eh]
	 Correlation Energy        =      -1.3730598246778962 [Eh]
	 Total Energy              =    -646.8513995698002645 [Eh]

	 ================> DF-SCS-MP2 Energies <==================
	-----------------------------------------------------------
	 SCS Same-Spin Scale       =       0.3333333333333333 [-]
	 SCS Opposite-Spin Scale   =       1.2000000000000000 [-]
	 SCS Same-Spin Energy      =      -0.1108603396315582 [Eh]
	 SCS Opposite-Spin Energy  =      -1.2485745669398660 [Eh]
	 SCS Correlation Energy    =      -1.3594349065714242 [Eh]
	 SCS Total Energy          =    -646.8377746516938487 [Eh]
	-----------------------------------------------------------

  Dipole Moment: [D]
     X:    -0.3373      Y:    -1.2604      Z:     0.2683     Total:     1.3321

*** Psi4 exiting successfully. Buy a developer a beer!
