                               Psi4 1.3.2 release

  ==> Input File <==

--------------------------------------------------------------------------
#psi4
#
memory 32 gb

molecule  {
0 1
  S       -0.8349460    -1.1774250     0.0297960
  N       -0.1696500     1.2952110    -0.2577190
  C        1.7694220    -0.2160770    -0.5775760
  C        0.3366110     0.0921059    -0.2694044
  C        2.6425650     0.1799470     0.6157020
  C       -2.0442290     0.0157050     0.2553730
  C       -1.5038950     1.2642780     0.0601800
  H        1.8995250    -1.2779630    -0.8129470
  H        2.0693290     0.3522120    -1.4641890
  H        2.5091790     1.2412210     0.8363590
  H        3.6994690    -0.0050250     0.4023620
  H        2.3648890    -0.3937430     1.5043860
  H       -3.0646880    -0.2455350     0.5019360
  H       -2.0550810     2.1952630     0.1367680
units angstrom
no_reorient  #important for SAPT in psi4, default
symmetry c1  #important for SAPT in psi4, default
}

set PROPERTIES_ORIGIN ["COM"]
properties('MP2/aug-cc-pvtz', properties = ['dipole'])
--------------------------------------------------------------------------

    Molecular point group: c1
  Charge       = 0
  Multiplicity = 1
  Basis Set: AUG-CC-PVTZ
    Blend: AUG-CC-PVTZ
  Basis Set: (AUG-CC-PVTZ AUX)
    Blend: AUG-CC-PVTZ-JKFIT

    Orbital Energies [Eh]
    ---------------------

    Doubly Occupied:

       1A    -91.992594     2A    -15.564869     3A    -11.312569
       4A    -11.269107     5A    -11.261695     6A    -11.245871
       7A    -11.223971     8A     -8.993257     9A     -6.674155
      10A     -6.673631    11A     -6.672914    12A     -1.278242
      13A     -1.073260    14A     -1.061220    15A     -0.974454
      16A     -0.869068    17A     -0.793411    18A     -0.729219
      19A     -0.681935    20A     -0.629449    21A     -0.603249
      22A     -0.573078    23A     -0.557079    24A     -0.516437
      25A     -0.513460    26A     -0.503966    27A     -0.496204
      28A     -0.423245    29A     -0.388475    30A     -0.328364

  @DF-RHF Final Energy:  -645.48602701499885

   => Energetics <=

    Nuclear Repulsion Energy =            351.0850799862349163
    One-Electron Energy =               -1581.3853155994643203
    Two-Electron Energy =                 584.8142085982306071
    Total Energy =                       -645.4860270149988537
  Basis Set: (AUG-CC-PVTZ AUX)
    Blend: AUG-CC-PVTZ-RI
    Molecular point group: c1

    Geometry (in Angstrom), charge = 0, multiplicity = 1:

       Center              X                  Y                   Z               Mass
    ------------   -----------------  -----------------  -----------------  -----------------
         S           -0.771385996051    -1.163311579964     0.034499215549    31.972071174400
         N           -0.106089996051     1.309324420036    -0.253015784451    14.003074004430
         C            1.832982003949    -0.201963579964    -0.572872784451    12.000000000000
         C            0.400171003949     0.106219320036    -0.264701184451    12.000000000000
         C            2.706125003949     0.194060420036     0.620405215549    12.000000000000
         C           -1.980668996051     0.029818420036     0.260076215549    12.000000000000
         C           -1.440334996051     1.278391420036     0.064883215549    12.000000000000
         H            1.963085003949    -1.263849579964    -0.808243784451     1.007825032230
         H            2.132889003949     0.366325420036    -1.459485784451     1.007825032230
         H            2.572739003949     1.255334420036     0.841062215549     1.007825032230
         H            3.763029003949     0.009088420036     0.407065215549     1.007825032230
         H            2.428449003949    -0.379629579964     1.509089215549     1.007825032230
         H           -3.001127996051    -0.231421579964     0.506639215549     1.007825032230
         H           -1.991520996051     2.209376420036     0.141471215549     1.007825032230

  Basis Set: AUG-CC-PVTZ
    Blend: AUG-CC-PVTZ
  Basis Set: (AUG-CC-PVTZ AUX)
    Blend: AUG-CC-PVTZ-JKFIT
	 Reference Energy          =    -645.4860270149988537 [Eh]
	 Singles Energy            =      -0.0000000000000000 [Eh]
	 Same-Spin Energy          =      -0.3320114448107526 [Eh]
	 Opposite-Spin Energy      =      -1.0393673076949832 [Eh]
	 Correlation Energy        =      -1.3713787525057359 [Eh]
	 Total Energy              =    -646.8574057675045879 [Eh]

	 ================> DF-SCS-MP2 Energies <==================
	-----------------------------------------------------------
	 SCS Same-Spin Scale       =       0.3333333333333333 [-]
	 SCS Opposite-Spin Scale   =       1.2000000000000000 [-]
	 SCS Same-Spin Energy      =      -0.1106704816035842 [Eh]
	 SCS Opposite-Spin Energy  =      -1.2472407692339798 [Eh]
	 SCS Correlation Energy    =      -1.3579112508375639 [Eh]
	 SCS Total Energy          =    -646.8439382658364138 [Eh]
	-----------------------------------------------------------

  Dipole Moment: [D]
     X:    -0.2988      Y:    -1.2102      Z:     0.2303     Total:     1.2677

*** Psi4 exiting successfully. Buy a developer a beer!
