                               Psi4 1.3.2 release

  ==> Input File <==

--------------------------------------------------------------------------
#psi4
#
memory 32 gb

molecule  {
0 1
  S       -0.8349460    -1.1774250     0.0297960
  N       -0.1696500     1.2952110    -0.2577190
  C        1.7694220    -0.2160770    -0.5775760
  C        0.3234810     0.0737960    -0.3165740
  C        2.6425650     0.1799470     0.6157020
  C       -2.0442290     0.0157050     0.2553730
  C       -1.6011473     1.2620233     0.0833515
  H        1.8995250    -1.2779630    -0.8129470
  H        2.0693290     0.3522120    -1.4641890
  H        2.5091790     1.2412210     0.8363590
  H        3.6994690    -0.0050250     0.4023620
  H        2.3648890    -0.3937430     1.5043860
  H       -3.0646880    -0.2455350     0.5019360
  H       -2.0550810     2.1952630     0.1367680
units angstrom
no_reorient  #important for SAPT in psi4, default
symmetry c1  #important for SAPT in psi4, default
}

set PROPERTIES_ORIGIN ["COM"]
properties('MP2/aug-cc-pvtz', properties = ['dipole'])
--------------------------------------------------------------------------

    Molecular point group: c1
  Charge       = 0
  Multiplicity = 1
  Basis Set: AUG-CC-PVTZ
    Blend: AUG-CC-PVTZ
  Basis Set: (AUG-CC-PVTZ AUX)
    Blend: AUG-CC-PVTZ-JKFIT

    Orbital Energies [Eh]
    ---------------------

    Doubly Occupied:

       1A    -91.991908     2A    -15.566842     3A    -11.311369
       4A    -11.267218     5A    -11.261748     6A    -11.245701
       7A    -11.223920     8A     -8.993068     9A     -6.674060
      10A     -6.673422    11A     -6.672637    12A     -1.254330
      13A     -1.074922    14A     -1.053196    15A     -0.981970
      16A     -0.872646    17A     -0.788593    18A     -0.725769
      19A     -0.686390    20A     -0.626369    21A     -0.601445
      22A     -0.563837    23A     -0.549880    24A     -0.521254
      25A     -0.514071    26A     -0.510948    27A     -0.495811
      28A     -0.415672    29A     -0.378880    30A     -0.342203

  @DF-RHF Final Energy:  -645.47788299714750

   => Energetics <=

    Nuclear Repulsion Energy =            349.7008305032480848
    One-Electron Energy =               -1578.6772657311785224
    Two-Electron Energy =                 583.4985522307828205
    Total Energy =                       -645.4778829971475034
  Basis Set: (AUG-CC-PVTZ AUX)
    Blend: AUG-CC-PVTZ-RI
    Molecular point group: c1

    Geometry (in Angstrom), charge = 0, multiplicity = 1:

       Center              X                  Y                   Z               Mass
    ------------   -----------------  -----------------  -----------------  -----------------
         S           -0.759667084853    -1.161128306729     0.037047011734    31.972071174400
         N           -0.094371084853     1.311507693271    -0.250467988266    14.003074004430
         C            1.844700915147    -0.199780306729    -0.570324988266    12.000000000000
         C            0.398759915147     0.090092693271    -0.309322988266    12.000000000000
         C            2.717843915147     0.196243693271     0.622953011734    12.000000000000
         C           -1.968950084853     0.032001693271     0.262624011734    12.000000000000
         C           -1.525868384853     1.278319993271     0.090602511734    12.000000000000
         H            1.974803915147    -1.261666306729    -0.805695988266     1.007825032230
         H            2.144607915147     0.368508693271    -1.456937988266     1.007825032230
         H            2.584457915147     1.257517693271     0.843610011734     1.007825032230
         H            3.774747915147     0.011271693271     0.409613011734     1.007825032230
         H            2.440167915147    -0.377446306729     1.511637011734     1.007825032230
         H           -2.989409084853    -0.229238306729     0.509187011734     1.007825032230
         H           -1.979802084853     2.211559693271     0.144019011734     1.007825032230

  Basis Set: AUG-CC-PVTZ
    Blend: AUG-CC-PVTZ
  Basis Set: (AUG-CC-PVTZ AUX)
    Blend: AUG-CC-PVTZ-JKFIT
	 Reference Energy          =    -645.4778829971475034 [Eh]
	 Singles Energy            =      -0.0000000000000000 [Eh]
	 Same-Spin Energy          =      -0.3304818828369983 [Eh]
	 Opposite-Spin Energy      =      -1.0395873737965227 [Eh]
	 Correlation Energy        =      -1.3700692566335211 [Eh]
	 Total Energy              =    -646.8479522537810453 [Eh]

	 ================> DF-SCS-MP2 Energies <==================
	-----------------------------------------------------------
	 SCS Same-Spin Scale       =       0.3333333333333333 [-]
	 SCS Opposite-Spin Scale   =       1.2000000000000000 [-]
	 SCS Same-Spin Energy      =      -0.1101606276123328 [Eh]
	 SCS Opposite-Spin Energy  =      -1.2475048485558271 [Eh]
	 SCS Correlation Energy    =      -1.3576654761681599 [Eh]
	 SCS Total Energy          =    -646.8355484733156118 [Eh]
	-----------------------------------------------------------

  Dipole Moment: [D]
     X:    -0.3439      Y:    -1.1964      Z:     0.2756     Total:     1.2750

*** Psi4 exiting successfully. Buy a developer a beer!
