                               Psi4 1.4a3.dev225

  ==> Input File <==

--------------------------------------------------------------------------
#psi4
#
memory 32 gb

molecule  {
0 1
  S       -0.8349460    -1.1774250     0.0297960
  N       -0.1696500     1.2952110    -0.2577190
  C        1.7694220    -0.2160770    -0.5775760
  C        0.3234810     0.0737960    -0.3165740
  C        2.6425650     0.1799470     0.6157020
  C       -2.0583420     0.0296295     0.2580056
  C       -1.5038950     1.2642780     0.0601800
  H        1.8995250    -1.2779630    -0.8129470
  H        2.0693290     0.3522120    -1.4641890
  H        2.5091790     1.2412210     0.8363590
  H        3.6994690    -0.0050250     0.4023620
  H        2.3648890    -0.3937430     1.5043860
  H       -3.0646880    -0.2455350     0.5019360
  H       -2.0550810     2.1952630     0.1367680
units angstrom
no_reorient  #important for SAPT in psi4, default
symmetry c1  #important for SAPT in psi4, default
}

set PROPERTIES_ORIGIN ["COM"]
properties('MP2/aug-cc-pvtz', properties = ['dipole'])
--------------------------------------------------------------------------

    Molecular point group: c1
  Charge       = 0
  Multiplicity = 1
  Basis Set: AUG-CC-PVTZ
    Blend: AUG-CC-PVTZ
  Basis Set: (AUG-CC-PVTZ AUX)
    Blend: AUG-CC-PVTZ-JKFIT

    Orbital Energies [Eh]
    ---------------------

    Doubly Occupied:

       1A    -91.993576     2A    -15.565009     3A    -11.313869
       4A    -11.269114     5A    -11.261258     6A    -11.246085
       7A    -11.224512     8A     -8.994028     9A     -6.674918
      10A     -6.674397    11A     -6.673710    12A     -1.274433
      13A     -1.072786    14A     -1.058371    15A     -0.976637
      16A     -0.870778    17A     -0.793326    18A     -0.729137
      19A     -0.681751    20A     -0.629998    21A     -0.602197
      22A     -0.572917    23A     -0.556489    24A     -0.518617
      25A     -0.512100    26A     -0.503448    27A     -0.493818
      28A     -0.424614    29A     -0.385927    30A     -0.330882

  @DF-RHF Final Energy:  -645.48636653072072

   => Energetics <=

    Nuclear Repulsion Energy =            350.6648171593737970
    One-Electron Energy =               -1580.5449674305241388
    Two-Electron Energy =                 584.3937837404296261
    Total Energy =                       -645.4863665307207157
  Basis Set: (AUG-CC-PVTZ AUX)
    Blend: AUG-CC-PVTZ-RI
    Molecular point group: c1

    Geometry (in Angstrom), charge = 0, multiplicity = 1:

       Center              X                  Y                   Z               Mass
    ------------   -----------------  -----------------  -----------------  -----------------
         S           -0.768493699933    -1.162845997048     0.039227556488    31.972071174400
         N           -0.103197699933     1.309790002952    -0.248287443512    14.003074004430
         C            1.835874300067    -0.201497997048    -0.568144443512    12.000000000000
         C            0.389933300067     0.088375002952    -0.307142443512    12.000000000000
         C            2.709017300067     0.194526002952     0.625133556488    12.000000000000
         C           -1.991889699933     0.044208502952     0.267437156488    12.000000000000
         C           -1.437442699933     1.278857002952     0.069611556488    12.000000000000
         H            1.965977300067    -1.263383997048    -0.803515443512     1.007825032230
         H            2.135781300067     0.366791002952    -1.454757443512     1.007825032230
         H            2.575631300067     1.255800002952     0.845790556488     1.007825032230
         H            3.765921300067     0.009554002952     0.411793556488     1.007825032230
         H            2.431341300067    -0.379163997048     1.513817556488     1.007825032230
         H           -2.998235699933    -0.230955997048     0.511367556488     1.007825032230
         H           -1.988628699933     2.209842002952     0.146199556488     1.007825032230

  Basis Set: AUG-CC-PVTZ
    Blend: AUG-CC-PVTZ
  Basis Set: (AUG-CC-PVTZ AUX)
    Blend: AUG-CC-PVTZ-JKFIT
	 Reference Energy          =    -645.4863665307207157 [Eh]
	 Singles Energy            =      -0.0000000000000000 [Eh]
	 Same-Spin Energy          =      -0.3319171571740313 [Eh]
	 Opposite-Spin Energy      =      -1.0393860365390903 [Eh]
	 Correlation Energy        =      -1.3713031937131217 [Eh]
	 Total Energy              =    -646.8576697244338902 [Eh]

	 ================> DF-SCS-MP2 Energies <==================
	-----------------------------------------------------------
	 SCS Same-Spin Scale       =       0.3333333333333333 [-]
	 SCS Opposite-Spin Scale   =       1.2000000000000000 [-]
	 SCS Same-Spin Energy      =      -0.1106390523913438 [Eh]
	 SCS Opposite-Spin Energy  =      -1.2472632438469085 [Eh]
	 SCS Correlation Energy    =      -1.3579022962382521 [Eh]
	 SCS Total Energy          =    -646.8442688269590235 [Eh]
	-----------------------------------------------------------

  Dipole Moment: [D]
     X:    -0.3282      Y:    -1.2324      Z:     0.2670     Total:     1.3030

*** Psi4 exiting successfully. Buy a developer a beer!
