                               Psi4 1.3.2 release

  ==> Input File <==

--------------------------------------------------------------------------
#psi4
#
memory 32 gb

molecule  {
0 1
  S       -0.8349460    -1.1774250     0.0297960
  N       -0.1696500     1.2952110    -0.2577190
  C        1.7694220    -0.2160770    -0.5775760
  C        0.4049034     0.1111526    -0.3376609
  C        2.6425650     0.1799470     0.6157020
  C       -2.0442290     0.0157050     0.2553730
  C       -1.5038950     1.2642780     0.0601800
  H        1.8995250    -1.2779630    -0.8129470
  H        2.0693290     0.3522120    -1.4641890
  H        2.5091790     1.2412210     0.8363590
  H        3.6994690    -0.0050250     0.4023620
  H        2.3648890    -0.3937430     1.5043860
  H       -3.0646880    -0.2455350     0.5019360
  H       -2.0550810     2.1952630     0.1367680
units angstrom
no_reorient  #important for SAPT in psi4, default
symmetry c1  #important for SAPT in psi4, default
}

set PROPERTIES_ORIGIN ["COM"]
properties('MP2/aug-cc-pvtz', properties = ['dipole'])
--------------------------------------------------------------------------

    Molecular point group: c1
  Charge       = 0
  Multiplicity = 1
  Basis Set: AUG-CC-PVTZ
    Blend: AUG-CC-PVTZ
  Basis Set: (AUG-CC-PVTZ AUX)
    Blend: AUG-CC-PVTZ-JKFIT

    Orbital Energies [Eh]
    ---------------------

    Doubly Occupied:

       1A    -91.987504     2A    -15.567340     3A    -11.319396
       4A    -11.268746     5A    -11.263071     6A    -11.245558
       7A    -11.228247     8A     -8.987210     9A     -6.668081
      10A     -6.667546    11A     -6.666905    12A     -1.269449
      13A     -1.089434    14A     -1.053112    15A     -0.970873
      16A     -0.881813    17A     -0.791699    18A     -0.726913
      19A     -0.680791    20A     -0.636046    21A     -0.613785
      22A     -0.578525    23A     -0.552952    24A     -0.525137
      25A     -0.516509    26A     -0.500810    27A     -0.494113
      28A     -0.410149    29A     -0.386034    30A     -0.322872

  @DF-RHF Final Energy:  -645.47615487002076

   => Energetics <=

    Nuclear Repulsion Energy =            350.1740305326650855
    One-Electron Energy =               -1579.5591298584213291
    Two-Electron Energy =                 583.9089444557355364
    Total Energy =                       -645.4761548700207641
  Basis Set: (AUG-CC-PVTZ AUX)
    Blend: AUG-CC-PVTZ-RI
    Molecular point group: c1

    Geometry (in Angstrom), charge = 0, multiplicity = 1:

       Center              X                  Y                   Z               Mass
    ------------   -----------------  -----------------  -----------------  -----------------
         S           -0.778636366547    -1.165333702949     0.041745774664    31.972071174400
         N           -0.113340366547     1.307302297051    -0.245769225336    14.003074004430
         C            1.825731633453    -0.203985702949    -0.565626225336    12.000000000000
         C            0.461213033453     0.123243897051    -0.325711125336    12.000000000000
         C            2.698874633453     0.192038297051     0.627651774664    12.000000000000
         C           -1.987919366547     0.027796297051     0.267322774664    12.000000000000
         C           -1.447585366547     1.276369297051     0.072129774664    12.000000000000
         H            1.955834633453    -1.265871702949    -0.800997225336     1.007825032230
         H            2.125638633453     0.364303297051    -1.452239225336     1.007825032230
         H            2.565488633453     1.253312297051     0.848308774664     1.007825032230
         H            3.755778633453     0.007066297051     0.414311774664     1.007825032230
         H            2.421198633453    -0.381651702949     1.516335774664     1.007825032230
         H           -3.008378366547    -0.233443702949     0.513885774664     1.007825032230
         H           -1.998771366547     2.207354297051     0.148717774664     1.007825032230

  Basis Set: AUG-CC-PVTZ
    Blend: AUG-CC-PVTZ
  Basis Set: (AUG-CC-PVTZ AUX)
    Blend: AUG-CC-PVTZ-JKFIT
	 Reference Energy          =    -645.4761548700207641 [Eh]
	 Singles Energy            =      -0.0000000000000000 [Eh]
	 Same-Spin Energy          =      -0.3332569150409887 [Eh]
	 Opposite-Spin Energy      =      -1.0413863227307105 [Eh]
	 Correlation Energy        =      -1.3746432377716993 [Eh]
	 Total Energy              =    -646.8507981077924569 [Eh]

	 ================> DF-SCS-MP2 Energies <==================
	-----------------------------------------------------------
	 SCS Same-Spin Scale       =       0.3333333333333333 [-]
	 SCS Opposite-Spin Scale   =       1.2000000000000000 [-]
	 SCS Same-Spin Energy      =      -0.1110856383469962 [Eh]
	 SCS Opposite-Spin Energy  =      -1.2496635872768527 [Eh]
	 SCS Correlation Energy    =      -1.3607492256238489 [Eh]
	 SCS Total Energy          =    -646.8369040956446270 [Eh]
	-----------------------------------------------------------

  Dipole Moment: [D]
     X:    -0.0205      Y:    -1.0391      Z:     0.2098     Total:     1.0602

*** Psi4 exiting successfully. Buy a developer a beer!
