                               Psi4 1.3.2 release

  ==> Input File <==

--------------------------------------------------------------------------
#psi4
#
memory 32 gb

molecule  {
0 1
  S       -0.8349460    -1.1774250     0.0297960
  N       -0.1696500     1.2952110    -0.2577190
  C        1.7694220    -0.2160770    -0.5775760
  C        0.3234810     0.0737960    -0.3165740
  C        2.6425650     0.1799470     0.6157020
  C       -2.0442290     0.0157050     0.2553730
  C       -1.4645810     1.3551225     0.0459780
  H        1.8995250    -1.2779630    -0.8129470
  H        2.0693290     0.3522120    -1.4641890
  H        2.5091790     1.2412210     0.8363590
  H        3.6994690    -0.0050250     0.4023620
  H        2.3648890    -0.3937430     1.5043860
  H       -3.0646880    -0.2455350     0.5019360
  H       -2.0550810     2.1952630     0.1367680
units angstrom
no_reorient  #important for SAPT in psi4, default
symmetry c1  #important for SAPT in psi4, default
}

set PROPERTIES_ORIGIN ["COM"]
properties('MP2/aug-cc-pvtz', properties = ['dipole'])
--------------------------------------------------------------------------

    Molecular point group: c1
  Charge       = 0
  Multiplicity = 1
  Basis Set: AUG-CC-PVTZ
    Blend: AUG-CC-PVTZ
  Basis Set: (AUG-CC-PVTZ AUX)
    Blend: AUG-CC-PVTZ-JKFIT

    Orbital Energies [Eh]
    ---------------------

    Doubly Occupied:

       1A    -91.999453     2A    -15.565404     3A    -11.310945
       4A    -11.275537     5A    -11.269805     6A    -11.245091
       7A    -11.223162     8A     -8.999441     9A     -6.680290
      10A     -6.679794    11A     -6.679230    12A     -1.278248
      13A     -1.072760    14A     -1.057592    15A     -0.969180
      16A     -0.867282    17A     -0.798771    18A     -0.732884
      19A     -0.678681    20A     -0.634048    21A     -0.604537
      22A     -0.581446    23A     -0.554745    24A     -0.515721
      25A     -0.511951    26A     -0.498174    27A     -0.496014
      28A     -0.420146    29A     -0.393457    30A     -0.310948

  @DF-RHF Final Energy:  -645.46908972945278

   => Energetics <=

    Nuclear Repulsion Energy =            350.0114304625441832
    One-Electron Energy =               -1579.1515724266600955
    Two-Electron Energy =                 583.6710522346630796
    Total Energy =                       -645.4690897294527758
  Basis Set: (AUG-CC-PVTZ AUX)
    Blend: AUG-CC-PVTZ-RI
    Molecular point group: c1

    Geometry (in Angstrom), charge = 0, multiplicity = 1:

       Center              X                  Y                   Z               Mass
    ------------   -----------------  -----------------  -----------------  -----------------
         S           -0.774165861762    -1.171012330322     0.041014828383    31.972071174400
         N           -0.108869861762     1.301623669678    -0.246500171617    14.003074004430
         C            1.830202138238    -0.209664330322    -0.566357171617    12.000000000000
         C            0.384261138238     0.080208669678    -0.305355171617    12.000000000000
         C            2.703345138238     0.186359669678     0.626920828383    12.000000000000
         C           -1.983448861762     0.022117669678     0.266591828383    12.000000000000
         C           -1.403800861762     1.361535169678     0.057196828383    12.000000000000
         H            1.960305138238    -1.271550330322    -0.801728171617     1.007825032230
         H            2.130109138238     0.358624669678    -1.452970171617     1.007825032230
         H            2.569959138238     1.247633669678     0.847577828383     1.007825032230
         H            3.760249138238     0.001387669678     0.413580828383     1.007825032230
         H            2.425669138238    -0.387330330322     1.515604828383     1.007825032230
         H           -3.003907861762    -0.239122330322     0.513154828383     1.007825032230
         H           -1.994300861762     2.201675669678     0.147986828383     1.007825032230

  Basis Set: AUG-CC-PVTZ
    Blend: AUG-CC-PVTZ
  Basis Set: (AUG-CC-PVTZ AUX)
    Blend: AUG-CC-PVTZ-JKFIT
	 Reference Energy          =    -645.4690897294527758 [Eh]
	 Singles Energy            =      -0.0000000000000000 [Eh]
	 Same-Spin Energy          =      -0.3351858522225580 [Eh]
	 Opposite-Spin Energy      =      -1.0433612640589720 [Eh]
	 Correlation Energy        =      -1.3785471162815299 [Eh]
	 Total Energy              =    -646.8476368457343142 [Eh]

	 ================> DF-SCS-MP2 Energies <==================
	-----------------------------------------------------------
	 SCS Same-Spin Scale       =       0.3333333333333333 [-]
	 SCS Opposite-Spin Scale   =       1.2000000000000000 [-]
	 SCS Same-Spin Energy      =      -0.1117286174075193 [Eh]
	 SCS Opposite-Spin Energy  =      -1.2520335168707664 [Eh]
	 SCS Correlation Energy    =      -1.3637621342782857 [Eh]
	 SCS Total Energy          =    -646.8328518637310935 [Eh]
	-----------------------------------------------------------

  Dipole Moment: [D]
     X:    -0.3427      Y:    -1.2041      Z:     0.2550     Total:     1.2776

*** Psi4 exiting successfully. Buy a developer a beer!
