                               Psi4 1.3.2 release

  ==> Input File <==

--------------------------------------------------------------------------
#psi4
#
memory 32 gb

molecule  {
0 1
  S       -0.9179267    -1.2601082     0.0539938
  N       -0.1696500     1.2952110    -0.2577190
  C        1.7694220    -0.2160770    -0.5775760
  C        0.3234810     0.0737960    -0.3165740
  C        2.6425650     0.1799470     0.6157020
  C       -2.0442290     0.0157050     0.2553730
  C       -1.5038950     1.2642780     0.0601800
  H        1.8995250    -1.2779630    -0.8129470
  H        2.0693290     0.3522120    -1.4641890
  H        2.5091790     1.2412210     0.8363590
  H        3.6994690    -0.0050250     0.4023620
  H        2.3648890    -0.3937430     1.5043860
  H       -3.0646880    -0.2455350     0.5019360
  H       -2.0550810     2.1952630     0.1367680
units angstrom
no_reorient  #important for SAPT in psi4, default
symmetry c1  #important for SAPT in psi4, default
}

set PROPERTIES_ORIGIN ["COM"]
properties('MP2/aug-cc-pvtz', properties = ['dipole'])
--------------------------------------------------------------------------

    Molecular point group: c1
  Charge       = 0
  Multiplicity = 1
  Basis Set: AUG-CC-PVTZ
    Blend: AUG-CC-PVTZ
  Basis Set: (AUG-CC-PVTZ AUX)
    Blend: AUG-CC-PVTZ-JKFIT

    Orbital Energies [Eh]
    ---------------------

    Doubly Occupied:

       1A    -91.995125     2A    -15.572396     3A    -11.324419
       4A    -11.269110     5A    -11.262956     6A    -11.247382
       7A    -11.225234     8A     -8.993980     9A     -6.674852
      10A     -6.674128    11A     -6.673546    12A     -1.270128
      13A     -1.072648    14A     -1.055910    15A     -0.966669
      16A     -0.871247    17A     -0.789410    18A     -0.726040
      19A     -0.680378    20A     -0.629381    21A     -0.599861
      22A     -0.569356    23A     -0.547306    24A     -0.515798
      25A     -0.514457    26A     -0.503880    27A     -0.497256
      28A     -0.423908    29A     -0.393141    30A     -0.321382

  @DF-RHF Final Energy:  -645.47656382915579

   => Energetics <=

    Nuclear Repulsion Energy =            346.4893724389069121
    One-Electron Energy =               -1572.2093015213552007
    Two-Electron Energy =                 580.2433652532924953
    Total Energy =                       -645.4765638291557934
  Basis Set: (AUG-CC-PVTZ AUX)
    Blend: AUG-CC-PVTZ-RI
    Molecular point group: c1

    Geometry (in Angstrom), charge = 0, multiplicity = 1:

       Center              X                  Y                   Z               Mass
    ------------   -----------------  -----------------  -----------------  -----------------
         S           -0.829500493930    -1.220662797556     0.056860169313    31.972071174400
         N           -0.081223793930     1.334656402444    -0.254852630687    14.003074004430
         C            1.857848206070    -0.176631597556    -0.574709630687    12.000000000000
         C            0.411907206070     0.113241402444    -0.313707630687    12.000000000000
         C            2.730991206070     0.219392402444     0.618568369313    12.000000000000
         C           -1.955802793930     0.055150402444     0.258239369313    12.000000000000
         C           -1.415468793930     1.303723402444     0.063046369313    12.000000000000
         H            1.987951206070    -1.238517597556    -0.810080630687     1.007825032230
         H            2.157755206070     0.391657402444    -1.461322630687     1.007825032230
         H            2.597605206070     1.280666402444     0.839225369313     1.007825032230
         H            3.787895206070     0.034420402444     0.405228369313     1.007825032230
         H            2.453315206070    -0.354297597556     1.507252369313     1.007825032230
         H           -2.976261793930    -0.206089597556     0.504802369313     1.007825032230
         H           -1.966654793930     2.234708402444     0.139634369313     1.007825032230

  Basis Set: AUG-CC-PVTZ
    Blend: AUG-CC-PVTZ
  Basis Set: (AUG-CC-PVTZ AUX)
    Blend: AUG-CC-PVTZ-JKFIT
	 Reference Energy          =    -645.4765638291557934 [Eh]
	 Singles Energy            =      -0.0000000000000000 [Eh]
	 Same-Spin Energy          =      -0.3321162410661270 [Eh]
	 Opposite-Spin Energy      =      -1.0419131070342065 [Eh]
	 Correlation Energy        =      -1.3740293481003334 [Eh]
	 Total Energy              =    -646.8505931772560871 [Eh]

	 ================> DF-SCS-MP2 Energies <==================
	-----------------------------------------------------------
	 SCS Same-Spin Scale       =       0.3333333333333333 [-]
	 SCS Opposite-Spin Scale   =       1.2000000000000000 [-]
	 SCS Same-Spin Energy      =      -0.1107054136887090 [Eh]
	 SCS Opposite-Spin Energy  =      -1.2502957284410476 [Eh]
	 SCS Correlation Energy    =      -1.3610011421297565 [Eh]
	 SCS Total Energy          =    -646.8375649712855875 [Eh]
	-----------------------------------------------------------

  Dipole Moment: [D]
     X:    -0.1802      Y:    -1.0912      Z:     0.2319     Total:     1.1301

*** Psi4 exiting successfully. Buy a developer a beer!
