                               Psi4 1.4a3.dev225

  ==> Input File <==

--------------------------------------------------------------------------
#psi4
#
memory 32 gb

molecule  {
0 1
  S       -0.8349460    -1.1774250     0.0297960
  N       -0.1696500     1.2952110    -0.2577190
  C        1.7694220    -0.2160770    -0.5775760
  C        0.3234810     0.0737960    -0.3165740
  C        2.6425650     0.1799470     0.6157020
  C       -2.0442290     0.0157050     0.2553730
  C       -1.5038950     1.2642780     0.0601800
  H        1.8995250    -1.2779630    -0.8129470
  H        2.0693290     0.3522120    -1.4641890
  H        2.5091790     1.2412210     0.8363590
  H        3.6994690    -0.0050250     0.4023620
  H        2.3648890    -0.3937430     1.5043860
  H       -3.0646880    -0.2455350     0.5019360
  H       -2.0296719     2.1523455     0.1332374
units angstrom
no_reorient  #important for SAPT in psi4, default
symmetry c1  #important for SAPT in psi4, default
}

set PROPERTIES_ORIGIN ["COM"]
properties('MP2/aug-cc-pvtz', properties = ['dipole'])
--------------------------------------------------------------------------

    Molecular point group: c1
  Charge       = 0
  Multiplicity = 1
  Basis Set: AUG-CC-PVTZ
    Blend: AUG-CC-PVTZ
  Basis Set: (AUG-CC-PVTZ AUX)
    Blend: AUG-CC-PVTZ-JKFIT

    Orbital Energies [Eh]
    ---------------------

    Doubly Occupied:

       1A    -91.994041     2A    -15.564728     3A    -11.312367
       4A    -11.263591     5A    -11.260888     6A    -11.245552
       7A    -11.224079     8A     -8.994801     9A     -6.675705
      10A     -6.675194    11A     -6.674482    12A     -1.274611
      13A     -1.072520    14A     -1.061353    15A     -0.977198
      16A     -0.870870    17A     -0.794827    18A     -0.730616
      19A     -0.685983    20A     -0.629923    21A     -0.602929
      22A     -0.573872    23A     -0.555945    24A     -0.518388
      25A     -0.512028    26A     -0.504938    27A     -0.496961
      28A     -0.424668    29A     -0.387240    30A     -0.328437

  @DF-RHF Final Energy:  -645.48517210192665

   => Energetics <=

    Nuclear Repulsion Energy =            351.2751688834451897
    One-Electron Energy =               -1581.7432084818981366
    Two-Electron Energy =                 584.9828674965261825
    Total Energy =                       -645.4851721019266506
  Basis Set: (AUG-CC-PVTZ AUX)
    Blend: AUG-CC-PVTZ-RI
    Molecular point group: c1

    Geometry (in Angstrom), charge = 0, multiplicity = 1:

       Center              X                  Y                   Z               Mass
    ------------   -----------------  -----------------  -----------------  -----------------
         S           -0.770218587700    -1.160985009001     0.039538531024    31.972071174400
         N           -0.104922587700     1.311650990999    -0.247976468976    14.003074004430
         C            1.834149412300    -0.199637009001    -0.567833468976    12.000000000000
         C            0.388208412300     0.090235990999    -0.306831468976    12.000000000000
         C            2.707292412300     0.196386990999     0.625444531024    12.000000000000
         C           -1.979501587700     0.032144990999     0.265115531024    12.000000000000
         C           -1.439167587700     1.280717990999     0.069922531024    12.000000000000
         H            1.964252412300    -1.261523009001    -0.803204468976     1.007825032230
         H            2.134056412300     0.368651990999    -1.454446468976     1.007825032230
         H            2.573906412300     1.257660990999     0.846101531024     1.007825032230
         H            3.764196412300     0.011414990999     0.412104531024     1.007825032230
         H            2.429616412300    -0.377303009001     1.514128531024     1.007825032230
         H           -2.999960587700    -0.229095009001     0.511678531024     1.007825032230
         H           -1.964944487700     2.168785490999     0.142979931024     1.007825032230

  Basis Set: AUG-CC-PVTZ
    Blend: AUG-CC-PVTZ
  Basis Set: (AUG-CC-PVTZ AUX)
    Blend: AUG-CC-PVTZ-JKFIT
	 Reference Energy          =    -645.4851721019266506 [Eh]
	 Singles Energy            =      -0.0000000000000000 [Eh]
	 Same-Spin Energy          =      -0.3322269137159086 [Eh]
	 Opposite-Spin Energy      =      -1.0394483647012733 [Eh]
	 Correlation Energy        =      -1.3716752784171820 [Eh]
	 Total Energy              =    -646.8568473803438792 [Eh]

	 ================> DF-SCS-MP2 Energies <==================
	-----------------------------------------------------------
	 SCS Same-Spin Scale       =       0.3333333333333333 [-]
	 SCS Opposite-Spin Scale   =       1.2000000000000000 [-]
	 SCS Same-Spin Energy      =      -0.1107423045719695 [Eh]
	 SCS Opposite-Spin Energy  =      -1.2473380376415280 [Eh]
	 SCS Correlation Energy    =      -1.3580803422134975 [Eh]
	 SCS Total Energy          =    -646.8432524441401483 [Eh]
	-----------------------------------------------------------

  Dipole Moment: [D]
     X:    -0.3434      Y:    -1.2502      Z:     0.2684     Total:     1.3240

*** Psi4 exiting successfully. Buy a developer a beer!
