                               Psi4 1.3.2 release

  ==> Input File <==

--------------------------------------------------------------------------
#psi4
#
memory 32 gb

molecule  {
0 1
  S       -0.8349460    -1.1774250     0.0297960
  N       -0.1696500     1.2952110    -0.2577190
  C        1.7694220    -0.2160770    -0.5775760
  C        0.3234810     0.0737960    -0.3165740
  C        2.6425650     0.1799470     0.6157020
  C       -2.1853592     0.1549501     0.2816991
  C       -1.5038950     1.2642780     0.0601800
  H        1.8995250    -1.2779630    -0.8129470
  H        2.0693290     0.3522120    -1.4641890
  H        2.5091790     1.2412210     0.8363590
  H        3.6994690    -0.0050250     0.4023620
  H        2.3648890    -0.3937430     1.5043860
  H       -3.0646880    -0.2455350     0.5019360
  H       -2.0550810     2.1952630     0.1367680
units angstrom
no_reorient  #important for SAPT in psi4, default
symmetry c1  #important for SAPT in psi4, default
}

set PROPERTIES_ORIGIN ["COM"]
properties('MP2/aug-cc-pvtz', properties = ['dipole'])
--------------------------------------------------------------------------

    Molecular point group: c1
  Charge       = 0
  Multiplicity = 1
  Basis Set: AUG-CC-PVTZ
    Blend: AUG-CC-PVTZ
  Basis Set: (AUG-CC-PVTZ AUX)
    Blend: AUG-CC-PVTZ-JKFIT

    Orbital Energies [Eh]
    ---------------------

    Doubly Occupied:

       1A    -91.983930     2A    -15.564339     3A    -11.322517
       4A    -11.272775     5A    -11.266628     6A    -11.248400
       7A    -11.226761     8A     -8.983007     9A     -6.663879
      10A     -6.663081    11A     -6.662618    12A     -1.272144
      13A     -1.077932    14A     -1.040379    15A     -0.985331
      16A     -0.875020    17A     -0.808478    18A     -0.736996
      19A     -0.688405    20A     -0.636242    21A     -0.602555
      22A     -0.579626    23A     -0.558431    24A     -0.520680
      25A     -0.513586    26A     -0.504836    27A     -0.453658
      28A     -0.421407    29A     -0.374085    30A     -0.350834

  @DF-RHF Final Energy:  -645.46184193894010

   => Energetics <=

    Nuclear Repulsion Energy =            347.7981607625159199
    One-Electron Energy =               -1574.8028849015788637
    Two-Electron Energy =                 581.5428822001229037
    Total Energy =                       -645.4618419389400970
  Basis Set: (AUG-CC-PVTZ AUX)
    Blend: AUG-CC-PVTZ-RI
    Molecular point group: c1

    Geometry (in Angstrom), charge = 0, multiplicity = 1:

       Center              X                  Y                   Z               Mass
    ------------   -----------------  -----------------  -----------------  -----------------
         S           -0.755008718306    -1.176150856457     0.036712098643    31.972071174400
         N           -0.089712718306     1.296485143543    -0.250802901357    14.003074004430
         C            1.849359281694    -0.214802856457    -0.570659901357    12.000000000000
         C            0.403418281694     0.075070143543    -0.309657901357    12.000000000000
         C            2.722502281694     0.181221143543     0.622618098643    12.000000000000
         C           -2.105421918306     0.156224243543     0.288615198643    12.000000000000
         C           -1.423957718306     1.265552143543     0.067096098643    12.000000000000
         H            1.979462281694    -1.276688856457    -0.806030901357     1.007825032230
         H            2.149266281694     0.353486143543    -1.457272901357     1.007825032230
         H            2.589116281694     1.242495143543     0.843275098643     1.007825032230
         H            3.779406281694    -0.003750856457     0.409278098643     1.007825032230
         H            2.444826281694    -0.392468856457     1.511302098643     1.007825032230
         H           -2.984750718306    -0.244260856457     0.508852098643     1.007825032230
         H           -1.975143718306     2.196537143543     0.143684098643     1.007825032230

  Basis Set: AUG-CC-PVTZ
    Blend: AUG-CC-PVTZ
  Basis Set: (AUG-CC-PVTZ AUX)
    Blend: AUG-CC-PVTZ-JKFIT
	 Reference Energy          =    -645.4618419389400970 [Eh]
	 Singles Energy            =      -0.0000000000000000 [Eh]
	 Same-Spin Energy          =      -0.3296131193387287 [Eh]
	 Opposite-Spin Energy      =      -1.0383867550383932 [Eh]
	 Correlation Energy        =      -1.3679998743771220 [Eh]
	 Total Energy              =    -646.8298418133172163 [Eh]

	 ================> DF-SCS-MP2 Energies <==================
	-----------------------------------------------------------
	 SCS Same-Spin Scale       =       0.3333333333333333 [-]
	 SCS Opposite-Spin Scale   =       1.2000000000000000 [-]
	 SCS Same-Spin Energy      =      -0.1098710397795762 [Eh]
	 SCS Opposite-Spin Energy  =      -1.2460641060460718 [Eh]
	 SCS Correlation Energy    =      -1.3559351458256481 [Eh]
	 SCS Total Energy          =    -646.8177770847657939 [Eh]
	-----------------------------------------------------------

  Dipole Moment: [D]
     X:    -0.3385      Y:    -1.0284      Z:     0.2788     Total:     1.1180

*** Psi4 exiting successfully. Buy a developer a beer!
