                               Psi4 1.3.2 release

  ==> Input File <==

--------------------------------------------------------------------------
#psi4
#
memory 32 gb

molecule  {
0 1
  S       -0.8349460    -1.1774250     0.0297960
  N       -0.1696500     1.2952110    -0.2577190
  C        1.7694220    -0.2160770    -0.5775760
  C        0.3234810     0.0737960    -0.3165740
  C        2.6425650     0.1799470     0.6157020
  C       -2.0655228     0.0258376     0.2597675
  C       -1.5038950     1.2642780     0.0601800
  H        1.8995250    -1.2779630    -0.8129470
  H        2.0693290     0.3522120    -1.4641890
  H        2.5091790     1.2412210     0.8363590
  H        3.6994690    -0.0050250     0.4023620
  H        2.3648890    -0.3937430     1.5043860
  H       -3.0646880    -0.2455350     0.5019360
  H       -2.0550810     2.1952630     0.1367680
units angstrom
no_reorient  #important for SAPT in psi4, default
symmetry c1  #important for SAPT in psi4, default
}

set PROPERTIES_ORIGIN ["COM"]
properties('MP2/aug-cc-pvtz', properties = ['dipole'])
--------------------------------------------------------------------------

    Molecular point group: c1
  Charge       = 0
  Multiplicity = 1
  Basis Set: AUG-CC-PVTZ
    Blend: AUG-CC-PVTZ
  Basis Set: (AUG-CC-PVTZ AUX)
    Blend: AUG-CC-PVTZ-JKFIT

    Orbital Energies [Eh]
    ---------------------

    Doubly Occupied:

       1A    -91.993737     2A    -15.565361     3A    -11.314138
       4A    -11.270303     5A    -11.261649     6A    -11.246251
       7A    -11.224613     8A     -8.994100     9A     -6.674986
      10A     -6.674474    11A     -6.673793    12A     -1.274082
      13A     -1.072612    14A     -1.058061    15A     -0.976132
      16A     -0.870700    17A     -0.794655    18A     -0.728840
      19A     -0.681700    20A     -0.630672    21A     -0.602370
      22A     -0.573524    23A     -0.556924    24A     -0.518534
      25A     -0.512227    26A     -0.503007    27A     -0.493231
      28A     -0.424809    29A     -0.385964    30A     -0.330115

  @DF-RHF Final Energy:  -645.48591593552317

   => Energetics <=

    Nuclear Repulsion Energy =            350.4957159442292323
    One-Electron Energy =               -1580.2001371813325932
    Two-Electron Energy =                 584.2185053015801941
    Total Energy =                       -645.4859159355231668
  Basis Set: (AUG-CC-PVTZ AUX)
    Blend: AUG-CC-PVTZ-RI
    Molecular point group: c1

    Geometry (in Angstrom), charge = 0, multiplicity = 1:

       Center              X                  Y                   Z               Mass
    ------------   -----------------  -----------------  -----------------  -----------------
         S           -0.767731338961    -1.162443423996     0.039040501592    31.972071174400
         N           -0.102435338961     1.310192576004    -0.248474498408    14.003074004430
         C            1.836636661039    -0.201095423996    -0.568331498408    12.000000000000
         C            0.390695661039     0.088777576004    -0.307329498408    12.000000000000
         C            2.709779661039     0.194928576004     0.624946501592    12.000000000000
         C           -1.998308138961     0.040819176004     0.269012001592    12.000000000000
         C           -1.436680338961     1.279259576004     0.069424501592    12.000000000000
         H            1.966739661039    -1.262981423996    -0.803702498408     1.007825032230
         H            2.136543661039     0.367193576004    -1.454944498408     1.007825032230
         H            2.576393661039     1.256202576004     0.845603501592     1.007825032230
         H            3.766683661039     0.009956576004     0.411606501592     1.007825032230
         H            2.432103661039    -0.378761423996     1.513630501592     1.007825032230
         H           -2.997473338961    -0.230553423996     0.511180501592     1.007825032230
         H           -1.987866338961     2.210244576004     0.146012501592     1.007825032230

  Basis Set: AUG-CC-PVTZ
    Blend: AUG-CC-PVTZ
  Basis Set: (AUG-CC-PVTZ AUX)
    Blend: AUG-CC-PVTZ-JKFIT
	 Reference Energy          =    -645.4859159355231668 [Eh]
	 Singles Energy            =      -0.0000000000000000 [Eh]
	 Same-Spin Energy          =      -0.3319781311617178 [Eh]
	 Opposite-Spin Energy      =      -1.0395304168216517 [Eh]
	 Correlation Energy        =      -1.3715085479833695 [Eh]
	 Total Energy              =    -646.8574244835065201 [Eh]

	 ================> DF-SCS-MP2 Energies <==================
	-----------------------------------------------------------
	 SCS Same-Spin Scale       =       0.3333333333333333 [-]
	 SCS Opposite-Spin Scale   =       1.2000000000000000 [-]
	 SCS Same-Spin Energy      =      -0.1106593770539059 [Eh]
	 SCS Opposite-Spin Energy  =      -1.2474365001859820 [Eh]
	 SCS Correlation Energy    =      -1.3580958772398879 [Eh]
	 SCS Total Energy          =    -646.8440118127630285 [Eh]
	-----------------------------------------------------------

  Dipole Moment: [D]
     X:    -0.3245      Y:    -1.2295      Z:     0.2666     Total:     1.2992

*** Psi4 exiting successfully. Buy a developer a beer!
