                               Psi4 1.4a3.dev225

  ==> Input File <==

--------------------------------------------------------------------------
#psi4
#
memory 32 gb

molecule  {
0 1
  S       -0.8349460    -1.1774250     0.0297960
  N       -0.1696500     1.2952110    -0.2577190
  C        1.7694220    -0.2160770    -0.5775760
  C        0.3234810     0.0737960    -0.3165740
  C        2.6425650     0.1799470     0.6157020
  C       -2.0442290     0.0157050     0.2553730
  C       -1.5038950     1.2642780     0.0601800
  H        1.8995250    -1.2779630    -0.8129470
  H        2.0693290     0.3522120    -1.4641890
  H        2.5091790     1.2412210     0.8363590
  H        3.6994690    -0.0050250     0.4023620
  H        2.3648890    -0.3937430     1.5043860
  H       -3.0458227    -0.2407054     0.4973778
  H       -2.0550810     2.1952630     0.1367680
units angstrom
no_reorient  #important for SAPT in psi4, default
symmetry c1  #important for SAPT in psi4, default
}

set PROPERTIES_ORIGIN ["COM"]
properties('MP2/aug-cc-pvtz', properties = ['dipole'])
--------------------------------------------------------------------------

    Molecular point group: c1
  Charge       = 0
  Multiplicity = 1
  Basis Set: AUG-CC-PVTZ
    Blend: AUG-CC-PVTZ
  Basis Set: (AUG-CC-PVTZ AUX)
    Blend: AUG-CC-PVTZ-JKFIT

    Orbital Energies [Eh]
    ---------------------

    Doubly Occupied:

       1A    -91.994140     2A    -15.565082     3A    -11.312690
       4A    -11.269101     5A    -11.259086     6A    -11.245697
       7A    -11.224166     8A     -8.994905     9A     -6.675810
      10A     -6.675298    11A     -6.674585    12A     -1.274756
      13A     -1.072364    14A     -1.061971    15A     -0.975441
      16A     -0.870271    17A     -0.794040    18A     -0.729628
      19A     -0.682337    20A     -0.629754    21A     -0.602301
      22A     -0.572794    23A     -0.556749    24A     -0.518484
      25A     -0.512168    26A     -0.503701    27A     -0.496481
      28A     -0.424811    29A     -0.387425    30A     -0.328535

  @DF-RHF Final Energy:  -645.48610761592306

   => Energetics <=

    Nuclear Repulsion Energy =            351.1128098055273767
    One-Electron Energy =               -1581.4286940542929187
    Two-Electron Energy =                 584.8297766328424814
    Total Energy =                       -645.4861076159230606
  Basis Set: (AUG-CC-PVTZ AUX)
    Blend: AUG-CC-PVTZ-RI
    Molecular point group: c1

    Geometry (in Angstrom), charge = 0, multiplicity = 1:

       Center              X                  Y                   Z               Mass
    ------------   -----------------  -----------------  -----------------  -----------------
         S           -0.770160240270    -1.161410743377     0.039547693563    31.972071174400
         N           -0.104864240270     1.311225256623    -0.247967306437    14.003074004430
         C            1.834207759730    -0.200062743377    -0.567824306437    12.000000000000
         C            0.388266759730     0.089810256623    -0.306822306437    12.000000000000
         C            2.707350759730     0.195961256623     0.625453693563    12.000000000000
         C           -1.979443240270     0.031719256623     0.265124693563    12.000000000000
         C           -1.439109240270     1.280292256623     0.069931693563    12.000000000000
         H            1.964310759730    -1.261948743377    -0.803195306437     1.007825032230
         H            2.134114759730     0.368226256623    -1.454437306437     1.007825032230
         H            2.573964759730     1.257235256623     0.846110693563     1.007825032230
         H            3.764254759730     0.010989256623     0.412113693563     1.007825032230
         H            2.429674759730    -0.377728743377     1.514137693563     1.007825032230
         H           -2.981036940270    -0.224691143377     0.507129493563     1.007825032230
         H           -1.990295240270     2.211277256623     0.146519693563     1.007825032230

  Basis Set: AUG-CC-PVTZ
    Blend: AUG-CC-PVTZ
  Basis Set: (AUG-CC-PVTZ AUX)
    Blend: AUG-CC-PVTZ-JKFIT
	 Reference Energy          =    -645.4861076159230606 [Eh]
	 Singles Energy            =      -0.0000000000000000 [Eh]
	 Same-Spin Energy          =      -0.3322819899184465 [Eh]
	 Opposite-Spin Energy      =      -1.0395993710106224 [Eh]
	 Correlation Energy        =      -1.3718813609290690 [Eh]
	 Total Energy              =    -646.8579889768520843 [Eh]

	 ================> DF-SCS-MP2 Energies <==================
	-----------------------------------------------------------
	 SCS Same-Spin Scale       =       0.3333333333333333 [-]
	 SCS Opposite-Spin Scale   =       1.2000000000000000 [-]
	 SCS Same-Spin Energy      =      -0.1107606633061488 [Eh]
	 SCS Opposite-Spin Energy  =      -1.2475192452127468 [Eh]
	 SCS Correlation Energy    =      -1.3582799085188957 [Eh]
	 SCS Total Energy          =    -646.8443875244419132 [Eh]
	-----------------------------------------------------------

  Dipole Moment: [D]
     X:    -0.3304      Y:    -1.2507      Z:     0.2659     Total:     1.3207

*** Psi4 exiting successfully. Buy a developer a beer!
