                               Psi4 1.4a3.dev225

  ==> Input File <==

--------------------------------------------------------------------------
#psi4
#
memory 32 gb

molecule  {
0 1
  S       -0.8349460    -1.1774250     0.0297960
  N       -0.1696500     1.2952110    -0.2577190
  C        1.7694220    -0.2160770    -0.5775760
  C        0.3234810     0.0737960    -0.3165740
  C        2.6425650     0.1799470     0.6157020
  C       -2.0442290     0.0157050     0.2553730
  C       -1.5038950     1.2642780     0.0601800
  H        1.8995250    -1.2779630    -0.8129470
  H        2.0693290     0.3522120    -1.4641890
  H        2.5091790     1.2412210     0.8363590
  H        3.6994690    -0.0050250     0.4023620
  H        2.3648890    -0.3937430     1.5043860
  H       -3.0646880    -0.2455350     0.5019360
  H       -2.0449173     2.1780960     0.1353557
units angstrom
no_reorient  #important for SAPT in psi4, default
symmetry c1  #important for SAPT in psi4, default
}

set PROPERTIES_ORIGIN ["COM"]
properties('MP2/aug-cc-pvtz', properties = ['dipole'])
--------------------------------------------------------------------------

    Molecular point group: c1
  Charge       = 0
  Multiplicity = 1
  Basis Set: AUG-CC-PVTZ
    Blend: AUG-CC-PVTZ
  Basis Set: (AUG-CC-PVTZ AUX)
    Blend: AUG-CC-PVTZ-JKFIT

    Orbital Energies [Eh]
    ---------------------

    Doubly Occupied:

       1A    -91.994166     2A    -15.564984     3A    -11.312570
       4A    -11.266921     5A    -11.261109     6A    -11.245653
       7A    -11.224138     8A     -8.994923     9A     -6.675827
      10A     -6.675316    11A     -6.674602    12A     -1.274722
      13A     -1.072344    14A     -1.061494    15A     -0.975929
      16A     -0.870407    17A     -0.792988    18A     -0.729813
      19A     -0.682944    20A     -0.629361    21A     -0.602384
      22A     -0.572933    23A     -0.556042    24A     -0.518387
      25A     -0.512092    26A     -0.504213    27A     -0.496665
      28A     -0.424773    29A     -0.387371    30A     -0.328498

  @DF-RHF Final Energy:  -645.48610917184692

   => Energetics <=

    Nuclear Repulsion Energy =            351.1111525055742959
    One-Electron Energy =               -1581.4273897086043235
    Two-Electron Energy =                 584.8301280311832215
    Total Energy =                       -645.4861091718469197
  Basis Set: (AUG-CC-PVTZ AUX)
    Blend: AUG-CC-PVTZ-RI
    Molecular point group: c1

    Geometry (in Angstrom), charge = 0, multiplicity = 1:

       Center              X                  Y                   Z               Mass
    ------------   -----------------  -----------------  -----------------  -----------------
         S           -0.770082652935    -1.161214611910     0.039519643320    31.972071174400
         N           -0.104786652935     1.311421388090    -0.247995356680    14.003074004430
         C            1.834285347065    -0.199866611910    -0.567852356680    12.000000000000
         C            0.388344347065     0.090006388090    -0.306850356680    12.000000000000
         C            2.707428347065     0.196157388090     0.625425643320    12.000000000000
         C           -1.979365652935     0.031915388090     0.265096643320    12.000000000000
         C           -1.439031652935     1.280488388090     0.069903643320    12.000000000000
         H            1.964388347065    -1.261752611910    -0.803223356680     1.007825032230
         H            2.134192347065     0.368422388090    -1.454465356680     1.007825032230
         H            2.574042347065     1.257431388090     0.846082643320     1.007825032230
         H            3.764332347065     0.011185388090     0.412085643320     1.007825032230
         H            2.429752347065    -0.377532611910     1.514109643320     1.007825032230
         H           -2.999824652935    -0.229324611910     0.511659643320     1.007825032230
         H           -1.980053952935     2.194306388090     0.145079343320     1.007825032230

  Basis Set: AUG-CC-PVTZ
    Blend: AUG-CC-PVTZ
  Basis Set: (AUG-CC-PVTZ AUX)
    Blend: AUG-CC-PVTZ-JKFIT
	 Reference Energy          =    -645.4861091718469197 [Eh]
	 Singles Energy            =      -0.0000000000000000 [Eh]
	 Same-Spin Energy          =      -0.3322832837065632 [Eh]
	 Opposite-Spin Energy      =      -1.0395839060221415 [Eh]
	 Correlation Energy        =      -1.3718671897287047 [Eh]
	 Total Energy              =    -646.8579763615756519 [Eh]

	 ================> DF-SCS-MP2 Energies <==================
	-----------------------------------------------------------
	 SCS Same-Spin Scale       =       0.3333333333333333 [-]
	 SCS Opposite-Spin Scale   =       1.2000000000000000 [-]
	 SCS Same-Spin Energy      =      -0.1107610945688544 [Eh]
	 SCS Opposite-Spin Energy  =      -1.2475006872265697 [Eh]
	 SCS Correlation Energy    =      -1.3582617817954241 [Eh]
	 SCS Total Energy          =    -646.8443709536423967 [Eh]
	-----------------------------------------------------------

  Dipole Moment: [D]
     X:    -0.3372      Y:    -1.2512      Z:     0.2673     Total:     1.3231

*** Psi4 exiting successfully. Buy a developer a beer!
