                               Psi4 1.3.2 release

  ==> Input File <==

--------------------------------------------------------------------------
#psi4
#
memory 32 gb

molecule  {
0 1
  S       -0.8349460    -1.1774250     0.0297960
  N       -0.1696500     1.2952110    -0.2577190
  C        1.7694220    -0.2160770    -0.5775760
  C        0.1882294     0.1929613    -0.2905674
  C        2.6425650     0.1799470     0.6157020
  C       -2.0442290     0.0157050     0.2553730
  C       -1.5038950     1.2642780     0.0601800
  H        1.8995250    -1.2779630    -0.8129470
  H        2.0693290     0.3522120    -1.4641890
  H        2.5091790     1.2412210     0.8363590
  H        3.6994690    -0.0050250     0.4023620
  H        2.3648890    -0.3937430     1.5043860
  H       -3.0646880    -0.2455350     0.5019360
  H       -2.0550810     2.1952630     0.1367680
units angstrom
no_reorient  #important for SAPT in psi4, default
symmetry c1  #important for SAPT in psi4, default
}

set PROPERTIES_ORIGIN ["COM"]
properties('MP2/aug-cc-pvtz', properties = ['dipole'])
--------------------------------------------------------------------------

    Molecular point group: c1
  Charge       = 0
  Multiplicity = 1
  Basis Set: AUG-CC-PVTZ
    Blend: AUG-CC-PVTZ
  Basis Set: (AUG-CC-PVTZ AUX)
    Blend: AUG-CC-PVTZ-JKFIT

    Orbital Energies [Eh]
    ---------------------

    Doubly Occupied:

       1A    -91.986800     2A    -15.556237     3A    -11.297883
       4A    -11.271818     5A    -11.265125     6A    -11.243804
       7A    -11.218848     8A     -8.988790     9A     -6.669726
      10A     -6.668977    11A     -6.668138    12A     -1.340502
      13A     -1.083211    14A     -1.044940    15A     -0.975564
      16A     -0.848914    17A     -0.810791    18A     -0.723279
      19A     -0.688776    20A     -0.619222    21A     -0.602494
      22A     -0.584394    23A     -0.563450    24A     -0.517849
      25A     -0.507944    26A     -0.506093    27A     -0.491049
      28A     -0.408615    29A     -0.407842    30A     -0.334780

  @DF-RHF Final Energy:  -645.44752430040285

   => Energetics <=

    Nuclear Repulsion Energy =            352.7614090258401802
    One-Electron Energy =               -1584.6261555214914551
    Two-Electron Energy =                 586.4172221952483142
    Total Energy =                       -645.4475243004028471
  Basis Set: (AUG-CC-PVTZ AUX)
    Blend: AUG-CC-PVTZ-RI
    Molecular point group: c1

    Geometry (in Angstrom), charge = 0, multiplicity = 1:

       Center              X                  Y                   Z               Mass
    ------------   -----------------  -----------------  -----------------  -----------------
         S           -0.755632829158    -1.174019052779     0.036746018865    31.972071174400
         N           -0.090336829158     1.298616947221    -0.250768981135    14.003074004430
         C            1.848735170842    -0.212671052779    -0.570625981135    12.000000000000
         C            0.267542570842     0.196367247221    -0.283617381135    12.000000000000
         C            2.721878170842     0.183352947221     0.622652018865    12.000000000000
         C           -1.964915829158     0.019110947221     0.262323018865    12.000000000000
         C           -1.424581829158     1.267683947221     0.067130018865    12.000000000000
         H            1.978838170842    -1.274557052779    -0.805996981135     1.007825032230
         H            2.148642170842     0.355617947221    -1.457238981135     1.007825032230
         H            2.588492170842     1.244626947221     0.843309018865     1.007825032230
         H            3.778782170842    -0.001619052779     0.409312018865     1.007825032230
         H            2.444202170842    -0.390337052779     1.511336018865     1.007825032230
         H           -2.985374829158    -0.242129052779     0.508886018865     1.007825032230
         H           -1.975767829158     2.198668947221     0.143718018865     1.007825032230

  Basis Set: AUG-CC-PVTZ
    Blend: AUG-CC-PVTZ
  Basis Set: (AUG-CC-PVTZ AUX)
    Blend: AUG-CC-PVTZ-JKFIT
	 Reference Energy          =    -645.4475243004028471 [Eh]
	 Singles Energy            =      -0.0000000000000000 [Eh]
	 Same-Spin Energy          =      -0.3283872724710653 [Eh]
	 Opposite-Spin Energy      =      -1.0351849440663738 [Eh]
	 Correlation Energy        =      -1.3635722165374391 [Eh]
	 Total Energy              =    -646.8110965169403244 [Eh]

	 ================> DF-SCS-MP2 Energies <==================
	-----------------------------------------------------------
	 SCS Same-Spin Scale       =       0.3333333333333333 [-]
	 SCS Opposite-Spin Scale   =       1.2000000000000000 [-]
	 SCS Same-Spin Energy      =      -0.1094624241570217 [Eh]
	 SCS Opposite-Spin Energy  =      -1.2422219328796487 [Eh]
	 SCS Correlation Energy    =      -1.3516843570366703 [Eh]
	 SCS Total Energy          =    -646.7992086574395216 [Eh]
	-----------------------------------------------------------

  Dipole Moment: [D]
     X:    -0.4927      Y:    -1.0053      Z:     0.2503     Total:     1.1472

*** Psi4 exiting successfully. Buy a developer a beer!
