                               Psi4 1.3.2 release

  ==> Input File <==

--------------------------------------------------------------------------
#psi4
#
memory 32 gb

molecule  {
0 1
  S       -0.6975811    -1.2958826     0.0134136
  N       -0.1696500     1.2952110    -0.2577190
  C        1.7694220    -0.2160770    -0.5775760
  C        0.3234810     0.0737960    -0.3165740
  C        2.6425650     0.1799470     0.6157020
  C       -2.0442290     0.0157050     0.2553730
  C       -1.5038950     1.2642780     0.0601800
  H        1.8995250    -1.2779630    -0.8129470
  H        2.0693290     0.3522120    -1.4641890
  H        2.5091790     1.2412210     0.8363590
  H        3.6994690    -0.0050250     0.4023620
  H        2.3648890    -0.3937430     1.5043860
  H       -3.0646880    -0.2455350     0.5019360
  H       -2.0550810     2.1952630     0.1367680
units angstrom
no_reorient  #important for SAPT in psi4, default
symmetry c1  #important for SAPT in psi4, default
}

set PROPERTIES_ORIGIN ["COM"]
properties('MP2/aug-cc-pvtz', properties = ['dipole'])
--------------------------------------------------------------------------

    Molecular point group: c1
  Charge       = 0
  Multiplicity = 1
  Basis Set: AUG-CC-PVTZ
    Blend: AUG-CC-PVTZ
  Basis Set: (AUG-CC-PVTZ AUX)
    Blend: AUG-CC-PVTZ-JKFIT

    Orbital Energies [Eh]
    ---------------------

    Doubly Occupied:

       1A    -91.999090     2A    -15.564898     3A    -11.319359
       4A    -11.276501     5A    -11.274364     6A    -11.243987
       7A    -11.224457     8A     -8.997124     9A     -6.677981
      10A     -6.677034    11A     -6.676607    12A     -1.269177
      13A     -1.075466    14A     -1.032652    15A     -0.979526
      16A     -0.869707    17A     -0.798687    18A     -0.716781
      19A     -0.677361    20A     -0.630351    21A     -0.598461
      22A     -0.575211    23A     -0.551016    24A     -0.515452
      25A     -0.510042    26A     -0.504450    27A     -0.477237
      28A     -0.425833    29A     -0.383888    30A     -0.334114

  @DF-RHF Final Energy:  -645.46962561568353

   => Energetics <=

    Nuclear Repulsion Energy =            347.1273153195936061
    One-Electron Energy =               -1573.4802537390432917
    Two-Electron Energy =                 580.8833128037661027
    Total Energy =                       -645.4696256156835261
  Basis Set: (AUG-CC-PVTZ AUX)
    Blend: AUG-CC-PVTZ-RI
    Molecular point group: c1

    Geometry (in Angstrom), charge = 0, multiplicity = 1:

       Center              X                  Y                   Z               Mass
    ------------   -----------------  -----------------  -----------------  -----------------
         S           -0.671482684492    -1.246317915343     0.027758638306    31.972071174400
         N           -0.143551584492     1.344775684657    -0.243373961694    14.003074004430
         C            1.795520415508    -0.166512315343    -0.563230961694    12.000000000000
         C            0.349579415508     0.123360684657    -0.302228961694    12.000000000000
         C            2.668663415508     0.229511684657     0.630047038306    12.000000000000
         C           -2.018130584492     0.065269684657     0.269718038306    12.000000000000
         C           -1.477796584492     1.313842684657     0.074525038306    12.000000000000
         H            1.925623415508    -1.228398315343    -0.798601961694     1.007825032230
         H            2.095427415508     0.401776684657    -1.449843961694     1.007825032230
         H            2.535277415508     1.290785684657     0.850704038306     1.007825032230
         H            3.725567415508     0.044539684657     0.416707038306     1.007825032230
         H            2.390987415508    -0.344178315343     1.518731038306     1.007825032230
         H           -3.038589584492    -0.195970315343     0.516281038306     1.007825032230
         H           -2.028982584492     2.244827684657     0.151113038306     1.007825032230

  Basis Set: AUG-CC-PVTZ
    Blend: AUG-CC-PVTZ
  Basis Set: (AUG-CC-PVTZ AUX)
    Blend: AUG-CC-PVTZ-JKFIT
	 Reference Energy          =    -645.4696256156835261 [Eh]
	 Singles Energy            =      -0.0000000000000000 [Eh]
	 Same-Spin Energy          =      -0.3307456727484720 [Eh]
	 Opposite-Spin Energy      =      -1.0415416463356757 [Eh]
	 Correlation Energy        =      -1.3722873190841476 [Eh]
	 Total Energy              =    -646.8419129347677199 [Eh]

	 ================> DF-SCS-MP2 Energies <==================
	-----------------------------------------------------------
	 SCS Same-Spin Scale       =       0.3333333333333333 [-]
	 SCS Opposite-Spin Scale   =       1.2000000000000000 [-]
	 SCS Same-Spin Energy      =      -0.1102485575828240 [Eh]
	 SCS Opposite-Spin Energy  =      -1.2498499756028107 [Eh]
	 SCS Correlation Energy    =      -1.3600985331856348 [Eh]
	 SCS Total Energy          =    -646.8297241488691043 [Eh]
	-----------------------------------------------------------

  Dipole Moment: [D]
     X:    -0.2979      Y:    -1.1336      Z:     0.2559     Total:     1.1997

*** Psi4 exiting successfully. Buy a developer a beer!
