                               Psi4 1.3.2 release

  ==> Input File <==

--------------------------------------------------------------------------
#psi4
#
memory 32 gb

molecule  {
0 1
  S       -0.8349460    -1.1774250     0.0297960
  N       -0.0416325     1.3403043    -0.2827280
  C        1.7694220    -0.2160770    -0.5775760
  C        0.3234810     0.0737960    -0.3165740
  C        2.6425650     0.1799470     0.6157020
  C       -2.0442290     0.0157050     0.2553730
  C       -1.5038950     1.2642780     0.0601800
  H        1.8995250    -1.2779630    -0.8129470
  H        2.0693290     0.3522120    -1.4641890
  H        2.5091790     1.2412210     0.8363590
  H        3.6994690    -0.0050250     0.4023620
  H        2.3648890    -0.3937430     1.5043860
  H       -3.0646880    -0.2455350     0.5019360
  H       -2.0550810     2.1952630     0.1367680
units angstrom
no_reorient  #important for SAPT in psi4, default
symmetry c1  #important for SAPT in psi4, default
}

set PROPERTIES_ORIGIN ["COM"]
properties('MP2/aug-cc-pvtz', properties = ['dipole'])
--------------------------------------------------------------------------

    Molecular point group: c1
  Charge       = 0
  Multiplicity = 1
  Basis Set: AUG-CC-PVTZ
    Blend: AUG-CC-PVTZ
  Basis Set: (AUG-CC-PVTZ AUX)
    Blend: AUG-CC-PVTZ-JKFIT

    Orbital Energies [Eh]
    ---------------------

    Doubly Occupied:

       1A    -91.995777     2A    -15.579252     3A    -11.313724
       4A    -11.280968     5A    -11.268180     6A    -11.241416
       7A    -11.222235     8A     -8.996788     9A     -6.677788
      10A     -6.677123    11A     -6.676332    12A     -1.253303
      13A     -1.076501    14A     -1.055848    15A     -0.970116
      16A     -0.868503    17A     -0.783640    18A     -0.725049
      19A     -0.675827    20A     -0.626372    21A     -0.596412
      22A     -0.557711    23A     -0.553187    24A     -0.516165
      25A     -0.507453    26A     -0.506224    27A     -0.493325
      28A     -0.435805    29A     -0.385678    30A     -0.335735

  @DF-RHF Final Energy:  -645.46937046427661

   => Energetics <=

    Nuclear Repulsion Energy =            348.8728057398030273
    One-Electron Energy =               -1576.9794802851315580
    Two-Electron Energy =                 582.6373040810519797
    Total Energy =                       -645.4693704642766079
  Basis Set: (AUG-CC-PVTZ AUX)
    Blend: AUG-CC-PVTZ-RI
    Molecular point group: c1

    Geometry (in Angstrom), charge = 0, multiplicity = 1:

       Center              X                  Y                   Z               Mass
    ------------   -----------------  -----------------  -----------------  -----------------
         S           -0.785851887211    -1.166954208531     0.042605370756    31.972071174400
         N            0.007461612789     1.350775091469    -0.269918629244    14.003074004430
         C            1.818516112789    -0.205606208531    -0.564766629244    12.000000000000
         C            0.372575112789     0.084266791469    -0.303764629244    12.000000000000
         C            2.691659112789     0.190417791469     0.628511370756    12.000000000000
         C           -1.995134887211     0.026175791469     0.268182370756    12.000000000000
         C           -1.454800887211     1.274748791469     0.072989370756    12.000000000000
         H            1.948619112789    -1.267492208531    -0.800137629244     1.007825032230
         H            2.118423112789     0.362682791469    -1.451379629244     1.007825032230
         H            2.558273112789     1.251691791469     0.849168370756     1.007825032230
         H            3.748563112789     0.005445791469     0.415171370756     1.007825032230
         H            2.413983112789    -0.383272208531     1.517195370756     1.007825032230
         H           -3.015593887211    -0.235064208531     0.514745370756     1.007825032230
         H           -2.005986887211     2.205733791469     0.149577370756     1.007825032230

  Basis Set: AUG-CC-PVTZ
    Blend: AUG-CC-PVTZ
  Basis Set: (AUG-CC-PVTZ AUX)
    Blend: AUG-CC-PVTZ-JKFIT
	 Reference Energy          =    -645.4693704642766079 [Eh]
	 Singles Energy            =      -0.0000000000000000 [Eh]
	 Same-Spin Energy          =      -0.3311711922652687 [Eh]
	 Opposite-Spin Energy      =      -1.0422740914196464 [Eh]
	 Correlation Energy        =      -1.3734452836849151 [Eh]
	 Total Energy              =    -646.8428157479614811 [Eh]

	 ================> DF-SCS-MP2 Energies <==================
	-----------------------------------------------------------
	 SCS Same-Spin Scale       =       0.3333333333333333 [-]
	 SCS Opposite-Spin Scale   =       1.2000000000000000 [-]
	 SCS Same-Spin Energy      =      -0.1103903974217562 [Eh]
	 SCS Opposite-Spin Energy  =      -1.2507289097035756 [Eh]
	 SCS Correlation Energy    =      -1.3611193071253318 [Eh]
	 SCS Total Energy          =    -646.8304897714019717 [Eh]
	-----------------------------------------------------------

  Dipole Moment: [D]
     X:    -0.5705      Y:    -1.3478      Z:     0.3146     Total:     1.4970

*** Psi4 exiting successfully. Buy a developer a beer!
