                               Psi4 1.4a3.dev225

  ==> Input File <==

--------------------------------------------------------------------------
#psi4
#
memory 32 gb

molecule  {
0 1
  S       -0.8349460    -1.1774250     0.0297960
  N       -0.1696500     1.2952110    -0.2577190
  C        1.7694220    -0.2160770    -0.5775760
  C        0.3047808     0.1201136    -0.3143421
  C        2.6425650     0.1799470     0.6157020
  C       -2.0442290     0.0157050     0.2553730
  C       -1.5038950     1.2642780     0.0601800
  H        1.8995250    -1.2779630    -0.8129470
  H        2.0693290     0.3522120    -1.4641890
  H        2.5091790     1.2412210     0.8363590
  H        3.6994690    -0.0050250     0.4023620
  H        2.3648890    -0.3937430     1.5043860
  H       -3.0646880    -0.2455350     0.5019360
  H       -2.0550810     2.1952630     0.1367680
units angstrom
no_reorient  #important for SAPT in psi4, default
symmetry c1  #important for SAPT in psi4, default
}

set PROPERTIES_ORIGIN ["COM"]
properties('MP2/aug-cc-pvtz', properties = ['dipole'])
--------------------------------------------------------------------------

    Molecular point group: c1
  Charge       = 0
  Multiplicity = 1
  Basis Set: AUG-CC-PVTZ
    Blend: AUG-CC-PVTZ
  Basis Set: (AUG-CC-PVTZ AUX)
    Blend: AUG-CC-PVTZ-JKFIT

    Orbital Energies [Eh]
    ---------------------

    Doubly Occupied:

       1A    -91.989933     2A    -15.563327     3A    -11.309653
       4A    -11.269355     5A    -11.262751     6A    -11.246288
       7A    -11.223564     8A     -8.990808     9A     -6.671716
      10A     -6.671136    11A     -6.670407    12A     -1.290614
      13A     -1.069862    14A     -1.062064    15A     -0.974729
      16A     -0.866469    17A     -0.797860    18A     -0.726391
      19A     -0.682986    20A     -0.627467    21A     -0.602466
      22A     -0.576424    23A     -0.557302    24A     -0.518541
      25A     -0.512341    26A     -0.503506    27A     -0.495097
      28A     -0.421537    29A     -0.392853    30A     -0.329789

  @DF-RHF Final Energy:  -645.48657612072373

   => Energetics <=

    Nuclear Repulsion Energy =            351.2271284944939680
    One-Electron Energy =               -1581.6729378989568886
    Two-Electron Energy =                 584.9592332837393087
    Total Energy =                       -645.4865761207237256
  Basis Set: (AUG-CC-PVTZ AUX)
    Blend: AUG-CC-PVTZ-RI
    Molecular point group: c1

    Geometry (in Angstrom), charge = 0, multiplicity = 1:

       Center              X                  Y                   Z               Mass
    ------------   -----------------  -----------------  -----------------  -----------------
         S           -0.768006692601    -1.166285061665     0.039270097437    31.972071174400
         N           -0.102710692601     1.306350938335    -0.248244902563    14.003074004430
         C            1.836361307399    -0.204937061665    -0.568101902563    12.000000000000
         C            0.371720107399     0.131253538335    -0.304868002563    12.000000000000
         C            2.709504307399     0.191086938335     0.625176097437    12.000000000000
         C           -1.977289692601     0.026844938335     0.264847097437    12.000000000000
         C           -1.436955692601     1.275417938335     0.069654097437    12.000000000000
         H            1.966464307399    -1.266823061665    -0.803472902563     1.007825032230
         H            2.136268307399     0.363351938335    -1.454714902563     1.007825032230
         H            2.576118307399     1.252360938335     0.845833097437     1.007825032230
         H            3.766408307399     0.006114938335     0.411836097437     1.007825032230
         H            2.431828307399    -0.382603061665     1.513860097437     1.007825032230
         H           -2.997748692601    -0.234395061665     0.511410097437     1.007825032230
         H           -1.988141692601     2.206402938335     0.146242097437     1.007825032230

  Basis Set: AUG-CC-PVTZ
    Blend: AUG-CC-PVTZ
  Basis Set: (AUG-CC-PVTZ AUX)
    Blend: AUG-CC-PVTZ-JKFIT
	 Reference Energy          =    -645.4865761207237256 [Eh]
	 Singles Energy            =      -0.0000000000000000 [Eh]
	 Same-Spin Energy          =      -0.3308684437339084 [Eh]
	 Opposite-Spin Energy      =      -1.0378602228479488 [Eh]
	 Correlation Energy        =      -1.3687286665818572 [Eh]
	 Total Energy              =    -646.8553047873056130 [Eh]

	 ================> DF-SCS-MP2 Energies <==================
	-----------------------------------------------------------
	 SCS Same-Spin Scale       =       0.3333333333333333 [-]
	 SCS Opposite-Spin Scale   =       1.2000000000000000 [-]
	 SCS Same-Spin Energy      =      -0.1102894812446361 [Eh]
	 SCS Opposite-Spin Energy  =      -1.2454322674175384 [Eh]
	 SCS Correlation Energy    =      -1.3557217486621747 [Eh]
	 SCS Total Energy          =    -646.8422978693859022 [Eh]
	-----------------------------------------------------------

  Dipole Moment: [D]
     X:    -0.2832      Y:    -1.1335      Z:     0.2448     Total:     1.1937

*** Psi4 exiting successfully. Buy a developer a beer!
