                               Psi4 1.3.2 release

  ==> Input File <==

--------------------------------------------------------------------------
#psi4
#
memory 32 gb

molecule  {
0 1
  S       -0.8349460    -1.1774250     0.0297960
  N       -0.1696449     1.1995888    -0.2525794
  C        1.7694220    -0.2160770    -0.5775760
  C        0.3234810     0.0737960    -0.3165740
  C        2.6425650     0.1799470     0.6157020
  C       -2.0442290     0.0157050     0.2553730
  C       -1.5038950     1.2642780     0.0601800
  H        1.8995250    -1.2779630    -0.8129470
  H        2.0693290     0.3522120    -1.4641890
  H        2.5091790     1.2412210     0.8363590
  H        3.6994690    -0.0050250     0.4023620
  H        2.3648890    -0.3937430     1.5043860
  H       -3.0646880    -0.2455350     0.5019360
  H       -2.0550810     2.1952630     0.1367680
units angstrom
no_reorient  #important for SAPT in psi4, default
symmetry c1  #important for SAPT in psi4, default
}

set PROPERTIES_ORIGIN ["COM"]
properties('MP2/aug-cc-pvtz', properties = ['dipole'])
--------------------------------------------------------------------------

    Molecular point group: c1
  Charge       = 0
  Multiplicity = 1
  Basis Set: AUG-CC-PVTZ
    Blend: AUG-CC-PVTZ
  Basis Set: (AUG-CC-PVTZ AUX)
    Blend: AUG-CC-PVTZ-JKFIT

    Orbital Energies [Eh]
    ---------------------

    Doubly Occupied:

       1A    -91.984624     2A    -15.553263     3A    -11.298699
       4A    -11.270063     5A    -11.264087     6A    -11.243190
       7A    -11.223310     8A     -8.986270     9A     -6.667167
      10A     -6.666721    11A     -6.665887    12A     -1.301592
      13A     -1.074923    14A     -1.058212    15A     -0.981020
      16A     -0.870084    17A     -0.802065    18A     -0.725197
      19A     -0.684967    20A     -0.629870    21A     -0.609889
      22A     -0.583030    23A     -0.560991    24A     -0.521869
      25A     -0.513440    26A     -0.501489    27A     -0.495575
      28A     -0.406122    29A     -0.390412    30A     -0.333689

  @DF-RHF Final Energy:  -645.48374145814091

   => Energetics <=

    Nuclear Repulsion Energy =            353.6094590861273446
    One-Electron Energy =               -1586.4509665343134657
    Two-Electron Energy =                 587.3577659900452090
    Total Energy =                       -645.4837414581409121
  Basis Set: (AUG-CC-PVTZ AUX)
    Blend: AUG-CC-PVTZ-RI
    Molecular point group: c1

    Geometry (in Angstrom), charge = 0, multiplicity = 1:

       Center              X                  Y                   Z               Mass
    ------------   -----------------  -----------------  -----------------  -----------------
         S           -0.769992660696    -1.149521217753     0.038870314804    31.972071174400
         N           -0.104691560696     1.227492582247    -0.243505085196    14.003074004430
         C            1.834375339304    -0.188173217753    -0.568501685196    12.000000000000
         C            0.388434339304     0.101699782247    -0.307499685196    12.000000000000
         C            2.707518339304     0.207850782247     0.624776314804    12.000000000000
         C           -1.979275660696     0.043608782247     0.264447314804    12.000000000000
         C           -1.438941660696     1.292181782247     0.069254314804    12.000000000000
         H            1.964478339304    -1.250059217753    -0.803872685196     1.007825032230
         H            2.134282339304     0.380115782247    -1.455114685196     1.007825032230
         H            2.574132339304     1.269124782247     0.845433314804     1.007825032230
         H            3.764422339304     0.022878782247     0.411436314804     1.007825032230
         H            2.429842339304    -0.365839217753     1.513460314804     1.007825032230
         H           -2.999734660696    -0.217631217753     0.511010314804     1.007825032230
         H           -1.990127660696     2.223166782247     0.145842314804     1.007825032230

  Basis Set: AUG-CC-PVTZ
    Blend: AUG-CC-PVTZ
  Basis Set: (AUG-CC-PVTZ AUX)
    Blend: AUG-CC-PVTZ-JKFIT
	 Reference Energy          =    -645.4837414581409121 [Eh]
	 Singles Energy            =      -0.0000000000000000 [Eh]
	 Same-Spin Energy          =      -0.3305632489998834 [Eh]
	 Opposite-Spin Energy      =      -1.0362404050384977 [Eh]
	 Correlation Energy        =      -1.3668036540383812 [Eh]
	 Total Energy              =    -646.8505451121792476 [Eh]

	 ================> DF-SCS-MP2 Energies <==================
	-----------------------------------------------------------
	 SCS Same-Spin Scale       =       0.3333333333333333 [-]
	 SCS Opposite-Spin Scale   =       1.2000000000000000 [-]
	 SCS Same-Spin Energy      =      -0.1101877496666278 [Eh]
	 SCS Opposite-Spin Energy  =      -1.2434884860461972 [Eh]
	 SCS Correlation Energy    =      -1.3536762357128249 [Eh]
	 SCS Total Energy          =    -646.8374176938536948 [Eh]
	-----------------------------------------------------------

  Dipole Moment: [D]
     X:    -0.2662      Y:    -0.8648      Z:     0.2285     Total:     0.9333

*** Psi4 exiting successfully. Buy a developer a beer!
