                               Psi4 1.3.2 release

  ==> Input File <==

--------------------------------------------------------------------------
#psi4
#
memory 32 gb

molecule  {
0 1
  S       -0.8349460    -1.1774250     0.0297960
  N       -0.1721367     1.3429840    -0.2599007
  C        1.7694220    -0.2160770    -0.5775760
  C        0.3234810     0.0737960    -0.3165740
  C        2.6425650     0.1799470     0.6157020
  C       -2.0442290     0.0157050     0.2553730
  C       -1.5038950     1.2642780     0.0601800
  H        1.8995250    -1.2779630    -0.8129470
  H        2.0693290     0.3522120    -1.4641890
  H        2.5091790     1.2412210     0.8363590
  H        3.6994690    -0.0050250     0.4023620
  H        2.3648890    -0.3937430     1.5043860
  H       -3.0646880    -0.2455350     0.5019360
  H       -2.0550810     2.1952630     0.1367680
units angstrom
no_reorient  #important for SAPT in psi4, default
symmetry c1  #important for SAPT in psi4, default
}

set PROPERTIES_ORIGIN ["COM"]
properties('MP2/aug-cc-pvtz', properties = ['dipole'])
--------------------------------------------------------------------------

    Molecular point group: c1
  Charge       = 0
  Multiplicity = 1
  Basis Set: AUG-CC-PVTZ
    Blend: AUG-CC-PVTZ
  Basis Set: (AUG-CC-PVTZ AUX)
    Blend: AUG-CC-PVTZ-JKFIT

    Orbital Energies [Eh]
    ---------------------

    Doubly Occupied:

       1A    -91.998755     2A    -15.570741     3A    -11.319421
       4A    -11.268957     5A    -11.259720     6A    -11.246940
       7A    -11.224724     8A     -8.999105     9A     -6.679998
      10A     -6.679468    11A     -6.678807    12A     -1.263114
      13A     -1.072349    14A     -1.062573    15A     -0.972137
      16A     -0.870376    17A     -0.786397    18A     -0.731655
      19A     -0.679177    20A     -0.628857    21A     -0.598970
      22A     -0.566714    23A     -0.553888    24A     -0.517450
      25A     -0.511711    26A     -0.504176    27A     -0.496529
      28A     -0.432518    29A     -0.386844    30A     -0.325334

  @DF-RHF Final Energy:  -645.47975256456039

   => Energetics <=

    Nuclear Repulsion Energy =            349.7663462006931354
    One-Electron Energy =               -1578.7173888887407429
    Two-Electron Energy =                 583.4712901234872788
    Total Energy =                       -645.4797525645603855
  Basis Set: (AUG-CC-PVTZ AUX)
    Blend: AUG-CC-PVTZ-RI
    Molecular point group: c1

    Geometry (in Angstrom), charge = 0, multiplicity = 1:

       Center              X                  Y                   Z               Mass
    ------------   -----------------  -----------------  -----------------  -----------------
         S           -0.769683956065    -1.167286191756     0.039777337523    31.972071174400
         N           -0.106874656065     1.353122808244    -0.249919362477    14.003074004430
         C            1.834684043935    -0.205938191756    -0.567594662477    12.000000000000
         C            0.388743043935     0.083934808244    -0.306592662477    12.000000000000
         C            2.707827043935     0.190085808244     0.625683337523    12.000000000000
         C           -1.978966956065     0.025843808244     0.265354337523    12.000000000000
         C           -1.438632956065     1.274416808244     0.070161337523    12.000000000000
         H            1.964787043935    -1.267824191756    -0.802965662477     1.007825032230
         H            2.134591043935     0.362350808244    -1.454207662477     1.007825032230
         H            2.574441043935     1.251359808244     0.846340337523     1.007825032230
         H            3.764731043935     0.005113808244     0.412343337523     1.007825032230
         H            2.430151043935    -0.383604191756     1.514367337523     1.007825032230
         H           -2.999425956065    -0.235396191756     0.511917337523     1.007825032230
         H           -1.989818956065     2.205401808244     0.146749337523     1.007825032230

  Basis Set: AUG-CC-PVTZ
    Blend: AUG-CC-PVTZ
  Basis Set: (AUG-CC-PVTZ AUX)
    Blend: AUG-CC-PVTZ-JKFIT
	 Reference Energy          =    -645.4797525645603855 [Eh]
	 Singles Energy            =      -0.0000000000000000 [Eh]
	 Same-Spin Energy          =      -0.3334322335324538 [Eh]
	 Opposite-Spin Energy      =      -1.0418560115307589 [Eh]
	 Correlation Energy        =      -1.3752882450632127 [Eh]
	 Total Energy              =    -646.8550408096235742 [Eh]

	 ================> DF-SCS-MP2 Energies <==================
	-----------------------------------------------------------
	 SCS Same-Spin Scale       =       0.3333333333333333 [-]
	 SCS Opposite-Spin Scale   =       1.2000000000000000 [-]
	 SCS Same-Spin Energy      =      -0.1111440778441513 [Eh]
	 SCS Opposite-Spin Energy  =      -1.2502272138369106 [Eh]
	 SCS Correlation Energy    =      -1.3613712916810619 [Eh]
	 SCS Total Energy          =    -646.8411238562414383 [Eh]
	-----------------------------------------------------------

  Dipole Moment: [D]
     X:    -0.3627      Y:    -1.4135      Z:     0.2824     Total:     1.4864

*** Psi4 exiting successfully. Buy a developer a beer!
