                               Psi4 1.3.2 release

  ==> Input File <==

--------------------------------------------------------------------------
#psi4
#
memory 32 gb

molecule  {
0 1
  S       -0.8349460    -1.1774250     0.0297960
  N       -0.1696500     1.2952110    -0.2577190
  C        1.7694220    -0.2160770    -0.5775760
  C        0.3234810     0.0737960    -0.3165740
  C        2.6425650     0.1799470     0.6157020
  C       -2.0866455     0.0363474     0.2641013
  C       -1.5038950     1.2642780     0.0601800
  H        1.8995250    -1.2779630    -0.8129470
  H        2.0693290     0.3522120    -1.4641890
  H        2.5091790     1.2412210     0.8363590
  H        3.6994690    -0.0050250     0.4023620
  H        2.3648890    -0.3937430     1.5043860
  H       -3.0646880    -0.2455350     0.5019360
  H       -2.0550810     2.1952630     0.1367680
units angstrom
no_reorient  #important for SAPT in psi4, default
symmetry c1  #important for SAPT in psi4, default
}

set PROPERTIES_ORIGIN ["COM"]
properties('MP2/aug-cc-pvtz', properties = ['dipole'])
--------------------------------------------------------------------------

    Molecular point group: c1
  Charge       = 0
  Multiplicity = 1
  Basis Set: AUG-CC-PVTZ
    Blend: AUG-CC-PVTZ
  Basis Set: (AUG-CC-PVTZ AUX)
    Blend: AUG-CC-PVTZ-JKFIT

    Orbital Energies [Eh]
    ---------------------

    Doubly Occupied:

       1A    -91.993117     2A    -15.565571     3A    -11.315539
       4A    -11.271547     5A    -11.262182     6A    -11.246760
       7A    -11.225035     8A     -8.993133     9A     -6.674012
      10A     -6.673481    11A     -6.672837    12A     -1.273455
      13A     -1.073038    14A     -1.054707    15A     -0.977068
      16A     -0.871260    17A     -0.797572    18A     -0.728579
      19A     -0.682612    20A     -0.632280    21A     -0.602672
      22A     -0.574885    23A     -0.557515    24A     -0.518687
      25A     -0.512456    26A     -0.503016    27A     -0.488835
      28A     -0.424760    29A     -0.384498    30A     -0.331698

  @DF-RHF Final Energy:  -645.48462587854249

   => Energetics <=

    Nuclear Repulsion Energy =            349.9979501319348287
    One-Electron Energy =               -1579.1995361928297825
    Two-Electron Energy =                 583.7169601823524090
    Total Energy =                       -645.4846258785424880
  Basis Set: (AUG-CC-PVTZ AUX)
    Blend: AUG-CC-PVTZ-RI
    Molecular point group: c1

    Geometry (in Angstrom), charge = 0, multiplicity = 1:

       Center              X                  Y                   Z               Mass
    ------------   -----------------  -----------------  -----------------  -----------------
         S           -0.765488814158    -1.163559213510     0.038580396871    31.972071174400
         N           -0.100192814158     1.309076786490    -0.248934603129    14.003074004430
         C            1.838879185842    -0.202211213510    -0.568791603129    12.000000000000
         C            0.392938185842     0.087661786490    -0.307789603129    12.000000000000
         C            2.712022185842     0.193812786490     0.624486396871    12.000000000000
         C           -2.017188314158     0.050213186490     0.272885696871    12.000000000000
         C           -1.434437814158     1.278143786490     0.068964396871    12.000000000000
         H            1.968982185842    -1.264097213510    -0.804162603129     1.007825032230
         H            2.138786185842     0.366077786490    -1.455404603129     1.007825032230
         H            2.578636185842     1.255086786490     0.845143396871     1.007825032230
         H            3.768926185842     0.008840786490     0.411146396871     1.007825032230
         H            2.434346185842    -0.379877213510     1.513170396871     1.007825032230
         H           -2.995230814158    -0.231669213510     0.510720396871     1.007825032230
         H           -1.985623814158     2.209128786490     0.145552396871     1.007825032230

  Basis Set: AUG-CC-PVTZ
    Blend: AUG-CC-PVTZ
  Basis Set: (AUG-CC-PVTZ AUX)
    Blend: AUG-CC-PVTZ-JKFIT
	 Reference Energy          =    -645.4846258785424880 [Eh]
	 Singles Energy            =      -0.0000000000000000 [Eh]
	 Same-Spin Energy          =      -0.3316645227920891 [Eh]
	 Opposite-Spin Energy      =      -1.0394293674476531 [Eh]
	 Correlation Energy        =      -1.3710938902397423 [Eh]
	 Total Energy              =    -646.8557197687822509 [Eh]

	 ================> DF-SCS-MP2 Energies <==================
	-----------------------------------------------------------
	 SCS Same-Spin Scale       =       0.3333333333333333 [-]
	 SCS Opposite-Spin Scale   =       1.2000000000000000 [-]
	 SCS Same-Spin Energy      =      -0.1105548409306964 [Eh]
	 SCS Opposite-Spin Energy  =      -1.2473152409371837 [Eh]
	 SCS Correlation Energy    =      -1.3578700818678802 [Eh]
	 SCS Total Energy          =    -646.8424959604103606 [Eh]
	-----------------------------------------------------------

  Dipole Moment: [D]
     X:    -0.3166      Y:    -1.2060      Z:     0.2666     Total:     1.2750

*** Psi4 exiting successfully. Buy a developer a beer!
