                               Psi4 1.3.2 release

  ==> Input File <==

--------------------------------------------------------------------------
#psi4
#
memory 32 gb

molecule  {
0 1
  S       -0.8349460    -1.1774250     0.0297960
  N       -0.1695543     1.1996102    -0.2521968
  C        1.7694220    -0.2160770    -0.5775760
  C        0.3234810     0.0737960    -0.3165740
  C        2.6425650     0.1799470     0.6157020
  C       -2.0442290     0.0157050     0.2553730
  C       -1.5038950     1.2642780     0.0601800
  H        1.8995250    -1.2779630    -0.8129470
  H        2.0693290     0.3522120    -1.4641890
  H        2.5091790     1.2412210     0.8363590
  H        3.6994690    -0.0050250     0.4023620
  H        2.3648890    -0.3937430     1.5043860
  H       -3.0646880    -0.2455350     0.5019360
  H       -2.0550810     2.1952630     0.1367680
units angstrom
no_reorient  #important for SAPT in psi4, default
symmetry c1  #important for SAPT in psi4, default
}

set PROPERTIES_ORIGIN ["COM"]
properties('MP2/aug-cc-pvtz', properties = ['dipole'])
--------------------------------------------------------------------------

    Molecular point group: c1
  Charge       = 0
  Multiplicity = 1
  Basis Set: AUG-CC-PVTZ
    Blend: AUG-CC-PVTZ
  Basis Set: (AUG-CC-PVTZ AUX)
    Blend: AUG-CC-PVTZ-JKFIT

    Orbital Energies [Eh]
    ---------------------

    Doubly Occupied:

       1A    -91.984625     2A    -15.553263     3A    -11.298699
       4A    -11.270063     5A    -11.264086     6A    -11.243190
       7A    -11.223307     8A     -8.986270     9A     -6.667168
      10A     -6.666722    11A     -6.665887    12A     -1.301592
      13A     -1.074923    14A     -1.058211    15A     -0.981018
      16A     -0.870083    17A     -0.802065    18A     -0.725196
      19A     -0.684967    20A     -0.629870    21A     -0.609881
      22A     -0.583033    23A     -0.560991    24A     -0.521868
      25A     -0.513437    26A     -0.501490    27A     -0.495575
      28A     -0.406123    29A     -0.390411    30A     -0.333689

  @DF-RHF Final Energy:  -645.48374088323999

   => Energetics <=

    Nuclear Repulsion Energy =            353.6099929432134559
    One-Electron Energy =               -1586.4520578860735895
    Two-Electron Energy =                 587.3583240596201449
    Total Energy =                       -645.4837408832399888
  Basis Set: (AUG-CC-PVTZ AUX)
    Blend: AUG-CC-PVTZ-RI
    Molecular point group: c1

    Geometry (in Angstrom), charge = 0, multiplicity = 1:

       Center              X                  Y                   Z               Mass
    ------------   -----------------  -----------------  -----------------  -----------------
         S           -0.770003884967    -1.149523868961     0.038822915176    31.972071174400
         N           -0.104612184967     1.227511331039    -0.243169884824    14.003074004430
         C            1.834364115033    -0.188175868961    -0.568549084824    12.000000000000
         C            0.388423115033     0.101697131039    -0.307547084824    12.000000000000
         C            2.707507115033     0.207848131039     0.624728915176    12.000000000000
         C           -1.979286884967     0.043606131039     0.264399915176    12.000000000000
         C           -1.438952884967     1.292179131039     0.069206915176    12.000000000000
         H            1.964467115033    -1.250061868961    -0.803920084824     1.007825032230
         H            2.134271115033     0.380113131039    -1.455162084824     1.007825032230
         H            2.574121115033     1.269122131039     0.845385915176     1.007825032230
         H            3.764411115033     0.022876131039     0.411388915176     1.007825032230
         H            2.429831115033    -0.365841868961     1.513412915176     1.007825032230
         H           -2.999745884967    -0.217633868961     0.510962915176     1.007825032230
         H           -1.990138884967     2.223164131039     0.145794915176     1.007825032230

  Basis Set: AUG-CC-PVTZ
    Blend: AUG-CC-PVTZ
  Basis Set: (AUG-CC-PVTZ AUX)
    Blend: AUG-CC-PVTZ-JKFIT
	 Reference Energy          =    -645.4837408832399888 [Eh]
	 Singles Energy            =      -0.0000000000000000 [Eh]
	 Same-Spin Energy          =      -0.3305634866807582 [Eh]
	 Opposite-Spin Energy      =      -1.0362409034338869 [Eh]
	 Correlation Energy        =      -1.3668043901146452 [Eh]
	 Total Energy              =    -646.8505452733546690 [Eh]

	 ================> DF-SCS-MP2 Energies <==================
	-----------------------------------------------------------
	 SCS Same-Spin Scale       =       0.3333333333333333 [-]
	 SCS Opposite-Spin Scale   =       1.2000000000000000 [-]
	 SCS Same-Spin Energy      =      -0.1101878288935861 [Eh]
	 SCS Opposite-Spin Energy  =      -1.2434890841206643 [Eh]
	 SCS Correlation Energy    =      -1.3536769130142503 [Eh]
	 SCS Total Energy          =    -646.8374177962542717 [Eh]
	-----------------------------------------------------------

  Dipole Moment: [D]
     X:    -0.2663      Y:    -0.8649      Z:     0.2282     Total:     0.9333

*** Psi4 exiting successfully. Buy a developer a beer!
