                               Psi4 1.3.2 release

  ==> Input File <==

--------------------------------------------------------------------------
#psi4
#
memory 32 gb

molecule  {
0 1
  S       -0.8349460    -1.1774250     0.0297960
  N       -0.1904981     1.2863789    -0.2536062
  C        1.7694220    -0.2160770    -0.5775760
  C        0.3234810     0.0737960    -0.3165740
  C        2.6425650     0.1799470     0.6157020
  C       -2.0442290     0.0157050     0.2553730
  C       -1.5038950     1.2642780     0.0601800
  H        1.8995250    -1.2779630    -0.8129470
  H        2.0693290     0.3522120    -1.4641890
  H        2.5091790     1.2412210     0.8363590
  H        3.6994690    -0.0050250     0.4023620
  H        2.3648890    -0.3937430     1.5043860
  H       -3.0646880    -0.2455350     0.5019360
  H       -2.0550810     2.1952630     0.1367680
units angstrom
no_reorient  #important for SAPT in psi4, default
symmetry c1  #important for SAPT in psi4, default
}

set PROPERTIES_ORIGIN ["COM"]
properties('MP2/aug-cc-pvtz', properties = ['dipole'])
--------------------------------------------------------------------------

    Molecular point group: c1
  Charge       = 0
  Multiplicity = 1
  Basis Set: AUG-CC-PVTZ
    Blend: AUG-CC-PVTZ
  Basis Set: (AUG-CC-PVTZ AUX)
    Blend: AUG-CC-PVTZ-JKFIT

    Orbital Energies [Eh]
    ---------------------

    Doubly Occupied:

       1A    -91.994069     2A    -15.562638     3A    -11.312522
       4A    -11.266906     5A    -11.260050     6A    -11.246426
       7A    -11.224460     8A     -8.994771     9A     -6.675654
      10A     -6.675171    11A     -6.674470    12A     -1.279268
      13A     -1.073220    14A     -1.061000    15A     -0.976153
      16A     -0.870365    17A     -0.793971    18A     -0.729490
      19A     -0.682069    20A     -0.629429    21A     -0.603466
      22A     -0.574503    23A     -0.556712    24A     -0.519251
      25A     -0.512995    26A     -0.502882    27A     -0.496704
      28A     -0.421909    29A     -0.388075    30A     -0.327083

  @DF-RHF Final Energy:  -645.48592710176945

   => Energetics <=

    Nuclear Repulsion Energy =            351.4058343574283754
    One-Electron Energy =               -1582.0121548191309557
    Two-Electron Energy =                 585.1203933599331322
    Total Energy =                       -645.4859271017694482
  Basis Set: (AUG-CC-PVTZ AUX)
    Blend: AUG-CC-PVTZ-RI
    Molecular point group: c1

    Geometry (in Angstrom), charge = 0, multiplicity = 1:

       Center              X                  Y                   Z               Mass
    ------------   -----------------  -----------------  -----------------  -----------------
         S           -0.767409195169    -1.160273487496     0.038997523213    31.972071174400
         N           -0.122961295169     1.303530412504    -0.244404676787    14.003074004430
         C            1.836958804831    -0.198925487496    -0.568374476787    12.000000000000
         C            0.391017804831     0.090947512504    -0.307372476787    12.000000000000
         C            2.710101804831     0.197098512504     0.624903523213    12.000000000000
         C           -1.976692195169     0.032856512504     0.264574523213    12.000000000000
         C           -1.436358195169     1.281429512504     0.069381523213    12.000000000000
         H            1.967061804831    -1.260811487496    -0.803745476787     1.007825032230
         H            2.136865804831     0.369363512504    -1.454987476787     1.007825032230
         H            2.576715804831     1.258372512504     0.845560523213     1.007825032230
         H            3.767005804831     0.012126512504     0.411563523213     1.007825032230
         H            2.432425804831    -0.376591487496     1.513587523213     1.007825032230
         H           -2.997151195169    -0.228383487496     0.511137523213     1.007825032230
         H           -1.987544195169     2.212414512504     0.145969523213     1.007825032230

  Basis Set: AUG-CC-PVTZ
    Blend: AUG-CC-PVTZ
  Basis Set: (AUG-CC-PVTZ AUX)
    Blend: AUG-CC-PVTZ-JKFIT
	 Reference Energy          =    -645.4859271017694482 [Eh]
	 Singles Energy            =      -0.0000000000000000 [Eh]
	 Same-Spin Energy          =      -0.3326530625238315 [Eh]
	 Opposite-Spin Energy      =      -1.0395279262666004 [Eh]
	 Correlation Energy        =      -1.3721809887904319 [Eh]
	 Total Energy              =    -646.8581080905598810 [Eh]

	 ================> DF-SCS-MP2 Energies <==================
	-----------------------------------------------------------
	 SCS Same-Spin Scale       =       0.3333333333333333 [-]
	 SCS Opposite-Spin Scale   =       1.2000000000000000 [-]
	 SCS Same-Spin Energy      =      -0.1108843541746105 [Eh]
	 SCS Opposite-Spin Energy  =      -1.2474335115199204 [Eh]
	 SCS Correlation Energy    =      -1.3583178656945309 [Eh]
	 SCS Total Energy          =    -646.8442449674639647 [Eh]
	-----------------------------------------------------------

  Dipole Moment: [D]
     X:    -0.2904      Y:    -1.2269      Z:     0.2572     Total:     1.2867

*** Psi4 exiting successfully. Buy a developer a beer!
