                               Psi4 1.3.2 release

  ==> Input File <==

--------------------------------------------------------------------------
#psi4
#
memory 32 gb

molecule  {
0 1
  S       -0.8349460    -1.1774250     0.0297960
  N       -0.1696500     1.2952110    -0.2577190
  C        1.7694220    -0.2160770    -0.5775760
  C        0.3982816    -0.1114745    -0.3255014
  C        2.6425650     0.1799470     0.6157020
  C       -2.0442290     0.0157050     0.2553730
  C       -1.5038950     1.2642780     0.0601800
  H        1.8995250    -1.2779630    -0.8129470
  H        2.0693290     0.3522120    -1.4641890
  H        2.5091790     1.2412210     0.8363590
  H        3.6994690    -0.0050250     0.4023620
  H        2.3648890    -0.3937430     1.5043860
  H       -3.0646880    -0.2455350     0.5019360
  H       -2.0550810     2.1952630     0.1367680
units angstrom
no_reorient  #important for SAPT in psi4, default
symmetry c1  #important for SAPT in psi4, default
}

set PROPERTIES_ORIGIN ["COM"]
properties('MP2/aug-cc-pvtz', properties = ['dipole'])
--------------------------------------------------------------------------

    Molecular point group: c1
  Charge       = 0
  Multiplicity = 1
  Basis Set: AUG-CC-PVTZ
    Blend: AUG-CC-PVTZ
  Basis Set: (AUG-CC-PVTZ AUX)
    Blend: AUG-CC-PVTZ-JKFIT

    Orbital Energies [Eh]
    ---------------------

    Doubly Occupied:

       1A    -92.010555     2A    -15.567395     3A    -11.320851
       4A    -11.269801     5A    -11.255509     6A    -11.243257
       7A    -11.227124     8A     -9.010645     9A     -6.691656
      10A     -6.691133    11A     -6.690639    12A     -1.233788
      13A     -1.093704    14A     -1.055015    15A     -0.973036
      16A     -0.885666    17A     -0.770640    18A     -0.736771
      19A     -0.674824    20A     -0.635784    21A     -0.609451
      22A     -0.564768    23A     -0.552441    24A     -0.525850
      25A     -0.512666    26A     -0.502084    27A     -0.494932
      28A     -0.412758    29A     -0.379811    30A     -0.315039

  @DF-RHF Final Energy:  -645.43437160212318

   => Energetics <=

    Nuclear Repulsion Energy =            350.3861449384966704
    One-Electron Energy =               -1579.8258444340813185
    Two-Electron Energy =                 584.0053278934614127
    Total Energy =                       -645.4343716021231785
  Basis Set: (AUG-CC-PVTZ AUX)
    Blend: AUG-CC-PVTZ-RI
    Molecular point group: c1

    Geometry (in Angstrom), charge = 0, multiplicity = 1:

       Center              X                  Y                   Z               Mass
    ------------   -----------------  -----------------  -----------------  -----------------
         S           -0.777933352692    -1.141698145298     0.040454842144    31.972071174400
         N           -0.112637352692     1.330937854702    -0.247060157856    14.003074004430
         C            1.826434647308    -0.180350145298    -0.566917157856    12.000000000000
         C            0.455294247308    -0.075747645298    -0.314842557856    12.000000000000
         C            2.699577647308     0.215673854702     0.626360842144    12.000000000000
         C           -1.987216352692     0.051431854702     0.266031842144    12.000000000000
         C           -1.446882352692     1.300004854702     0.070838842144    12.000000000000
         H            1.956537647308    -1.242236145298    -0.802288157856     1.007825032230
         H            2.126341647308     0.387938854702    -1.453530157856     1.007825032230
         H            2.566191647308     1.276947854702     0.847017842144     1.007825032230
         H            3.756481647308     0.030701854702     0.413020842144     1.007825032230
         H            2.421901647308    -0.358016145298     1.515044842144     1.007825032230
         H           -3.007675352692    -0.209808145298     0.512594842144     1.007825032230
         H           -1.998068352692     2.230989854702     0.147426842144     1.007825032230

  Basis Set: AUG-CC-PVTZ
    Blend: AUG-CC-PVTZ
  Basis Set: (AUG-CC-PVTZ AUX)
    Blend: AUG-CC-PVTZ-JKFIT
	 Reference Energy          =    -645.4343716021231785 [Eh]
	 Singles Energy            =      -0.0000000000000000 [Eh]
	 Same-Spin Energy          =      -0.3391308643284133 [Eh]
	 Opposite-Spin Energy      =      -1.0496969685763726 [Eh]
	 Correlation Energy        =      -1.3888278329047861 [Eh]
	 Total Energy              =    -646.8231994350279592 [Eh]

	 ================> DF-SCS-MP2 Energies <==================
	-----------------------------------------------------------
	 SCS Same-Spin Scale       =       0.3333333333333333 [-]
	 SCS Opposite-Spin Scale   =       1.2000000000000000 [-]
	 SCS Same-Spin Energy      =      -0.1130436214428044 [Eh]
	 SCS Opposite-Spin Energy  =      -1.2596363622916471 [Eh]
	 SCS Correlation Energy    =      -1.3726799837344514 [Eh]
	 SCS Total Energy          =    -646.8070515858576073 [Eh]
	-----------------------------------------------------------

  Dipole Moment: [D]
     X:    -0.4981      Y:    -1.4751      Z:     0.3294     Total:     1.5914

*** Psi4 exiting successfully. Buy a developer a beer!
