                               Psi4 1.4a3.dev225

  ==> Input File <==

--------------------------------------------------------------------------
#psi4
#
memory 32 gb

molecule  {
0 1
  S       -0.8349460    -1.1774250     0.0297960
  N       -0.1696500     1.2952110    -0.2577190
  C        1.7694220    -0.2160770    -0.5775760
  C        0.3427907     0.0699249    -0.3200595
  C        2.6425650     0.1799470     0.6157020
  C       -2.0442290     0.0157050     0.2553730
  C       -1.5038950     1.2642780     0.0601800
  H        1.8995250    -1.2779630    -0.8129470
  H        2.0693290     0.3522120    -1.4641890
  H        2.5091790     1.2412210     0.8363590
  H        3.6994690    -0.0050250     0.4023620
  H        2.3648890    -0.3937430     1.5043860
  H       -3.0646880    -0.2455350     0.5019360
  H       -2.0550810     2.1952630     0.1367680
units angstrom
no_reorient  #important for SAPT in psi4, default
symmetry c1  #important for SAPT in psi4, default
}

set PROPERTIES_ORIGIN ["COM"]
properties('MP2/aug-cc-pvtz', properties = ['dipole'])
--------------------------------------------------------------------------

    Molecular point group: c1
  Charge       = 0
  Multiplicity = 1
  Basis Set: AUG-CC-PVTZ
    Blend: AUG-CC-PVTZ
  Basis Set: (AUG-CC-PVTZ AUX)
    Blend: AUG-CC-PVTZ-JKFIT

    Orbital Energies [Eh]
    ---------------------

    Doubly Occupied:

       1A    -91.994185     2A    -15.565837     3A    -11.314479
       4A    -11.269079     5A    -11.261287     6A    -11.245458
       7A    -11.224988     8A     -8.994667     9A     -6.675556
      10A     -6.675071    11A     -6.674370    12A     -1.270571
      13A     -1.076221    14A     -1.059289    15A     -0.974484
      16A     -0.873067    17A     -0.790489    18A     -0.729528
      19A     -0.680494    20A     -0.630561    21A     -0.603924
      22A     -0.572343    23A     -0.555366    24A     -0.518754
      25A     -0.514208    26A     -0.502870    27A     -0.496735
      28A     -0.422764    29A     -0.386159    30A     -0.327201

  @DF-RHF Final Energy:  -645.48437900544991

   => Energetics <=

    Nuclear Repulsion Energy =            350.8023758710138509
    One-Electron Energy =               -1580.8134991039573833
    Two-Electron Energy =                 584.5267442274937366
    Total Energy =                       -645.4843790054499095
  Basis Set: (AUG-CC-PVTZ AUX)
    Blend: AUG-CC-PVTZ-RI
    Molecular point group: c1

    Geometry (in Angstrom), charge = 0, multiplicity = 1:

       Center              X                  Y                   Z               Mass
    ------------   -----------------  -----------------  -----------------  -----------------
         S           -0.772042073661    -1.160956699070     0.039877094237    31.972071174400
         N           -0.106746073661     1.311679300930    -0.247637905763    14.003074004430
         C            1.832325926339    -0.199608699070    -0.567494905763    12.000000000000
         C            0.405694626339     0.086393200930    -0.309978405763    12.000000000000
         C            2.705468926339     0.196415300930     0.625783094237    12.000000000000
         C           -1.981325073661     0.032173300930     0.265454094237    12.000000000000
         C           -1.440991073661     1.280746300930     0.070261094237    12.000000000000
         H            1.962428926339    -1.261494699070    -0.802865905763     1.007825032230
         H            2.132232926339     0.368680300930    -1.454107905763     1.007825032230
         H            2.572082926339     1.257689300930     0.846440094237     1.007825032230
         H            3.762372926339     0.011443300930     0.412443094237     1.007825032230
         H            2.427792926339    -0.377274699070     1.514467094237     1.007825032230
         H           -3.001784073661    -0.229066699070     0.512017094237     1.007825032230
         H           -1.992177073661     2.211731300930     0.146849094237     1.007825032230

  Basis Set: AUG-CC-PVTZ
    Blend: AUG-CC-PVTZ
  Basis Set: (AUG-CC-PVTZ AUX)
    Blend: AUG-CC-PVTZ-JKFIT
	 Reference Energy          =    -645.4843790054499095 [Eh]
	 Singles Energy            =      -0.0000000000000000 [Eh]
	 Same-Spin Energy          =      -0.3327795196703014 [Eh]
	 Opposite-Spin Energy      =      -1.0403626397141770 [Eh]
	 Correlation Energy        =      -1.3731421593844784 [Eh]
	 Total Energy              =    -646.8575211648343384 [Eh]

	 ================> DF-SCS-MP2 Energies <==================
	-----------------------------------------------------------
	 SCS Same-Spin Scale       =       0.3333333333333333 [-]
	 SCS Opposite-Spin Scale   =       1.2000000000000000 [-]
	 SCS Same-Spin Energy      =      -0.1109265065567671 [Eh]
	 SCS Opposite-Spin Energy  =      -1.2484351676570122 [Eh]
	 SCS Correlation Energy    =      -1.3593616742137793 [Eh]
	 SCS Total Energy          =    -646.8437406796637106 [Eh]
	-----------------------------------------------------------

  Dipole Moment: [D]
     X:    -0.2941      Y:    -1.2399      Z:     0.2616     Total:     1.3009

*** Psi4 exiting successfully. Buy a developer a beer!
