                               Psi4 1.3.2 release

  ==> Input File <==

--------------------------------------------------------------------------
#psi4
#
memory 32 gb

molecule  {
0 1
  S       -0.8349460    -1.1774250     0.0297960
  N       -0.1696500     1.2952110    -0.2577190
  C        1.7694220    -0.2160770    -0.5775760
  C        0.3234810     0.0737960    -0.3165740
  C        2.6425650     0.1799470     0.6157020
  C       -2.1147941     0.0853275     0.2685361
  C       -1.5038950     1.2642780     0.0601800
  H        1.8995250    -1.2779630    -0.8129470
  H        2.0693290     0.3522120    -1.4641890
  H        2.5091790     1.2412210     0.8363590
  H        3.6994690    -0.0050250     0.4023620
  H        2.3648890    -0.3937430     1.5043860
  H       -3.0646880    -0.2455350     0.5019360
  H       -2.0550810     2.1952630     0.1367680
units angstrom
no_reorient  #important for SAPT in psi4, default
symmetry c1  #important for SAPT in psi4, default
}

set PROPERTIES_ORIGIN ["COM"]
properties('MP2/aug-cc-pvtz', properties = ['dipole'])
--------------------------------------------------------------------------

    Molecular point group: c1
  Charge       = 0
  Multiplicity = 1
  Basis Set: AUG-CC-PVTZ
    Blend: AUG-CC-PVTZ
  Basis Set: (AUG-CC-PVTZ AUX)
    Blend: AUG-CC-PVTZ-JKFIT

    Orbital Energies [Eh]
    ---------------------

    Doubly Occupied:

       1A    -91.990102     2A    -15.564556     3A    -11.318075
       4A    -11.269750     5A    -11.262426     6A    -11.247323
       7A    -11.225675     8A     -8.989670     9A     -6.670551
      10A     -6.669907    11A     -6.669340    12A     -1.273190
      13A     -1.075079    14A     -1.047814    15A     -0.981659
      16A     -0.872990    17A     -0.799434    18A     -0.730301
      19A     -0.685308    20A     -0.633530    21A     -0.602625
      22A     -0.576013    23A     -0.557731    24A     -0.519604
      25A     -0.512780    26A     -0.503964    27A     -0.477617
      28A     -0.423599    29A     -0.380266    30A     -0.340003

  @DF-RHF Final Energy:  -645.48100623601601

   => Energetics <=

    Nuclear Repulsion Energy =            349.3534406607982987
    One-Electron Energy =               -1577.9271294324157680
    Two-Electron Energy =                 583.0926825356015115
    Total Energy =                       -645.4810062360160146
  Basis Set: (AUG-CC-PVTZ AUX)
    Blend: AUG-CC-PVTZ-RI
    Molecular point group: c1

    Geometry (in Angstrom), charge = 0, multiplicity = 1:

       Center              X                  Y                   Z               Mass
    ------------   -----------------  -----------------  -----------------  -----------------
         S           -0.762500373586    -1.168759263178     0.038109569326    31.972071174400
         N           -0.097204373586     1.303876736822    -0.249405430674    14.003074004430
         C            1.841867626414    -0.207411263178    -0.569262430674    12.000000000000
         C            0.395926626414     0.082461736822    -0.308260430674    12.000000000000
         C            2.715010626414     0.188612736822     0.624015569326    12.000000000000
         C           -2.042348473586     0.093993236822     0.276849669326    12.000000000000
         C           -1.431449373586     1.272943736822     0.068493569326    12.000000000000
         H            1.971970626414    -1.269297263178    -0.804633430674     1.007825032230
         H            2.141774626414     0.360877736822    -1.455875430674     1.007825032230
         H            2.581624626414     1.249886736822     0.844672569326     1.007825032230
         H            3.771914626414     0.003640736822     0.410675569326     1.007825032230
         H            2.437334626414    -0.385077263178     1.512699569326     1.007825032230
         H           -2.992242373586    -0.236869263178     0.510249569326     1.007825032230
         H           -1.982635373586     2.203928736822     0.145081569326     1.007825032230

  Basis Set: AUG-CC-PVTZ
    Blend: AUG-CC-PVTZ
  Basis Set: (AUG-CC-PVTZ AUX)
    Blend: AUG-CC-PVTZ-JKFIT
	 Reference Energy          =    -645.4810062360160146 [Eh]
	 Singles Energy            =      -0.0000000000000000 [Eh]
	 Same-Spin Energy          =      -0.3306018601847450 [Eh]
	 Opposite-Spin Energy      =      -1.0385742926345547 [Eh]
	 Correlation Energy        =      -1.3691761528192998 [Eh]
	 Total Energy              =    -646.8501823888352646 [Eh]

	 ================> DF-SCS-MP2 Energies <==================
	-----------------------------------------------------------
	 SCS Same-Spin Scale       =       0.3333333333333333 [-]
	 SCS Opposite-Spin Scale   =       1.2000000000000000 [-]
	 SCS Same-Spin Energy      =      -0.1102006200615817 [Eh]
	 SCS Opposite-Spin Energy  =      -1.2462891511614655 [Eh]
	 SCS Correlation Energy    =      -1.3564897712230473 [Eh]
	 SCS Total Energy          =    -646.8374960072391104 [Eh]
	-----------------------------------------------------------

  Dipole Moment: [D]
     X:    -0.3218      Y:    -1.1470      Z:     0.2704     Total:     1.2216

*** Psi4 exiting successfully. Buy a developer a beer!
