                               Psi4 1.3.2 release

  ==> Input File <==

--------------------------------------------------------------------------
#psi4
#
memory 32 gb

molecule  {
0 1
  S       -0.8349460    -1.1774250     0.0297960
  N       -0.1696500     1.2952110    -0.2577190
  C        1.7694220    -0.2160770    -0.5775760
  C        0.3121126     0.0551329    -0.3640616
  C        2.6425650     0.1799470     0.6157020
  C       -2.0442290     0.0157050     0.2553730
  C       -1.5038950     1.2642780     0.0601800
  H        1.8995250    -1.2779630    -0.8129470
  H        2.0693290     0.3522120    -1.4641890
  H        2.5091790     1.2412210     0.8363590
  H        3.6994690    -0.0050250     0.4023620
  H        2.3648890    -0.3937430     1.5043860
  H       -3.0646880    -0.2455350     0.5019360
  H       -2.0550810     2.1952630     0.1367680
units angstrom
no_reorient  #important for SAPT in psi4, default
symmetry c1  #important for SAPT in psi4, default
}

set PROPERTIES_ORIGIN ["COM"]
properties('MP2/aug-cc-pvtz', properties = ['dipole'])
--------------------------------------------------------------------------

    Molecular point group: c1
  Charge       = 0
  Multiplicity = 1
  Basis Set: AUG-CC-PVTZ
    Blend: AUG-CC-PVTZ
  Basis Set: (AUG-CC-PVTZ AUX)
    Blend: AUG-CC-PVTZ-JKFIT

    Orbital Energies [Eh]
    ---------------------

    Doubly Occupied:

       1A    -91.995978     2A    -15.566032     3A    -11.313227
       4A    -11.269287     5A    -11.261014     6A    -11.245587
       7A    -11.224400     8A     -8.996776     9A     -6.677680
      10A     -6.677177    11A     -6.676470    12A     -1.270764
      13A     -1.071395    14A     -1.061600    15A     -0.975665
      16A     -0.871177    17A     -0.789980    18A     -0.729565
      19A     -0.679875    20A     -0.628548    21A     -0.600948
      22A     -0.571095    23A     -0.554956    24A     -0.521738
      25A     -0.509318    26A     -0.502994    27A     -0.496481
      28A     -0.426272    29A     -0.386049    30A     -0.328614

  @DF-RHF Final Energy:  -645.48359193342321

   => Energetics <=

    Nuclear Repulsion Energy =            350.8388856440508334
    One-Electron Energy =               -1580.8836355896735313
    Two-Electron Energy =                 584.5611580121994848
    Total Energy =                       -645.4835919334232130
  Basis Set: (AUG-CC-PVTZ AUX)
    Blend: AUG-CC-PVTZ-RI
    Molecular point group: c1

    Geometry (in Angstrom), charge = 0, multiplicity = 1:

       Center              X                  Y                   Z               Mass
    ------------   -----------------  -----------------  -----------------  -----------------
         S           -0.768785084726    -1.159386283030     0.044548646673    31.972071174400
         N           -0.103489084726     1.313249716970    -0.242966353327    14.003074004430
         C            1.835582915274    -0.198038283030    -0.562823353327    12.000000000000
         C            0.378273515274     0.073171616970    -0.349308953327    12.000000000000
         C            2.708725915274     0.197985716970     0.630454646673    12.000000000000
         C           -1.978068084726     0.033743716970     0.270125646673    12.000000000000
         C           -1.437734084726     1.282316716970     0.074932646673    12.000000000000
         H            1.965685915274    -1.259924283030    -0.798194353327     1.007825032230
         H            2.135489915274     0.370250716970    -1.449436353327     1.007825032230
         H            2.575339915274     1.259259716970     0.851111646673     1.007825032230
         H            3.765629915274     0.013013716970     0.417114646673     1.007825032230
         H            2.431049915274    -0.375704283030     1.519138646673     1.007825032230
         H           -2.998527084726    -0.227496283030     0.516688646673     1.007825032230
         H           -1.988920084726     2.213301716970     0.151520646673     1.007825032230

  Basis Set: AUG-CC-PVTZ
    Blend: AUG-CC-PVTZ
  Basis Set: (AUG-CC-PVTZ AUX)
    Blend: AUG-CC-PVTZ-JKFIT
	 Reference Energy          =    -645.4835919334232130 [Eh]
	 Singles Energy            =      -0.0000000000000000 [Eh]
	 Same-Spin Energy          =      -0.3328205082614839 [Eh]
	 Opposite-Spin Energy      =      -1.0404168270633802 [Eh]
	 Correlation Energy        =      -1.3732373353248641 [Eh]
	 Total Energy              =    -646.8568292687481289 [Eh]

	 ================> DF-SCS-MP2 Energies <==================
	-----------------------------------------------------------
	 SCS Same-Spin Scale       =       0.3333333333333333 [-]
	 SCS Opposite-Spin Scale   =       1.2000000000000000 [-]
	 SCS Same-Spin Energy      =      -0.1109401694204946 [Eh]
	 SCS Opposite-Spin Energy  =      -1.2485001924760561 [Eh]
	 SCS Correlation Energy    =      -1.3594403618965507 [Eh]
	 SCS Total Energy          =    -646.8430322953197447 [Eh]
	-----------------------------------------------------------

  Dipole Moment: [D]
     X:    -0.3735      Y:    -1.2834      Z:     0.3071     Total:     1.3715

*** Psi4 exiting successfully. Buy a developer a beer!
