                               Psi4 1.3.2 release

  ==> Input File <==

--------------------------------------------------------------------------
#psi4
#
memory 32 gb

molecule  {
0 1
  S       -0.8349460    -1.1774250     0.0297960
  N       -0.1696500     1.2952110    -0.2577190
  C        1.7694220    -0.2160770    -0.5775760
  C        0.3234810     0.0737960    -0.3165740
  C        2.6425650     0.1799470     0.6157020
  C       -2.0442290     0.0157050     0.2553730
  C       -1.4066427     1.2665327     0.0370085
  H        1.8995250    -1.2779630    -0.8129470
  H        2.0693290     0.3522120    -1.4641890
  H        2.5091790     1.2412210     0.8363590
  H        3.6994690    -0.0050250     0.4023620
  H        2.3648890    -0.3937430     1.5043860
  H       -3.0646880    -0.2455350     0.5019360
  H       -2.0550810     2.1952630     0.1367680
units angstrom
no_reorient  #important for SAPT in psi4, default
symmetry c1  #important for SAPT in psi4, default
}

set PROPERTIES_ORIGIN ["COM"]
properties('MP2/aug-cc-pvtz', properties = ['dipole'])
--------------------------------------------------------------------------

    Molecular point group: c1
  Charge       = 0
  Multiplicity = 1
  Basis Set: AUG-CC-PVTZ
    Blend: AUG-CC-PVTZ
  Basis Set: (AUG-CC-PVTZ AUX)
    Blend: AUG-CC-PVTZ-JKFIT

    Orbital Energies [Eh]
    ---------------------

    Doubly Occupied:

       1A    -91.998048     2A    -15.562099     3A    -11.313742
       4A    -11.271709     5A    -11.260576     6A    -11.245757
       7A    -11.224405     8A     -8.998202     9A     -6.678995
      10A     -6.678610    11A     -6.677998    12A     -1.303437
      13A     -1.077664    14A     -1.064337    15A     -0.968410
      16A     -0.866518    17A     -0.801129    18A     -0.730547
      19A     -0.678309    20A     -0.631424    21A     -0.602603
      22A     -0.581191    23A     -0.562209    24A     -0.520976
      25A     -0.512719    26A     -0.500540    27A     -0.482954
      28A     -0.429441    29A     -0.398588    30A     -0.314180

  @DF-RHF Final Energy:  -645.47080259762163

   => Energetics <=

    Nuclear Repulsion Energy =            352.4501160349827273
    One-Electron Energy =               -1583.9672007996618959
    Two-Electron Energy =                 586.0462821670574840
    Total Energy =                       -645.4708025976216277
  Basis Set: (AUG-CC-PVTZ AUX)
    Blend: AUG-CC-PVTZ-RI
    Molecular point group: c1

    Geometry (in Angstrom), charge = 0, multiplicity = 1:

       Center              X                  Y                   Z               Mass
    ------------   -----------------  -----------------  -----------------  -----------------
         S           -0.780316972879    -1.161607054302     0.041967089515    31.972071174400
         N           -0.115020972879     1.311028945698    -0.245547910485    14.003074004430
         C            1.824051027121    -0.200259054302    -0.565404910485    12.000000000000
         C            0.378110027121     0.089613945698    -0.304402910485    12.000000000000
         C            2.697194027121     0.195764945698     0.627873089515    12.000000000000
         C           -1.989599972879     0.031522945698     0.267544089515    12.000000000000
         C           -1.352013672879     1.282350645698     0.049179589515    12.000000000000
         H            1.954154027121    -1.262145054302    -0.800775910485     1.007825032230
         H            2.123958027121     0.368029945698    -1.452017910485     1.007825032230
         H            2.563808027121     1.257038945698     0.848530089515     1.007825032230
         H            3.754098027121     0.010792945698     0.414533089515     1.007825032230
         H            2.419518027121    -0.377925054302     1.516557089515     1.007825032230
         H           -3.010058972879    -0.229717054302     0.514107089515     1.007825032230
         H           -2.000451972879     2.211080945698     0.148939089515     1.007825032230

  Basis Set: AUG-CC-PVTZ
    Blend: AUG-CC-PVTZ
  Basis Set: (AUG-CC-PVTZ AUX)
    Blend: AUG-CC-PVTZ-JKFIT
	 Reference Energy          =    -645.4708025976216277 [Eh]
	 Singles Energy            =      -0.0000000000000000 [Eh]
	 Same-Spin Energy          =      -0.3348626765197810 [Eh]
	 Opposite-Spin Energy      =      -1.0412823845665997 [Eh]
	 Correlation Energy        =      -1.3761450610863806 [Eh]
	 Total Energy              =    -646.8469476587080180 [Eh]

	 ================> DF-SCS-MP2 Energies <==================
	-----------------------------------------------------------
	 SCS Same-Spin Scale       =       0.3333333333333333 [-]
	 SCS Opposite-Spin Scale   =       1.2000000000000000 [-]
	 SCS Same-Spin Energy      =      -0.1116208921732603 [Eh]
	 SCS Opposite-Spin Energy  =      -1.2495388614799197 [Eh]
	 SCS Correlation Energy    =      -1.3611597536531801 [Eh]
	 SCS Total Energy          =    -646.8319623512747967 [Eh]
	-----------------------------------------------------------

  Dipole Moment: [D]
     X:    -0.3081      Y:    -1.2961      Z:     0.2514     Total:     1.3558

*** Psi4 exiting successfully. Buy a developer a beer!
