                               Psi4 1.3.2 release

  ==> Input File <==

--------------------------------------------------------------------------
#psi4
#
memory 32 gb

molecule  {
0 1
  S       -0.8349460    -1.1774250     0.0297960
  N       -0.1696500     1.2952110    -0.2577190
  C        1.7694220    -0.2160770    -0.5775760
  C        0.3645176     0.0917412    -0.3271597
  C        2.6425650     0.1799470     0.6157020
  C       -2.0442290     0.0157050     0.2553730
  C       -1.5038950     1.2642780     0.0601800
  H        1.8995250    -1.2779630    -0.8129470
  H        2.0693290     0.3522120    -1.4641890
  H        2.5091790     1.2412210     0.8363590
  H        3.6994690    -0.0050250     0.4023620
  H        2.3648890    -0.3937430     1.5043860
  H       -3.0646880    -0.2455350     0.5019360
  H       -2.0550810     2.1952630     0.1367680
units angstrom
no_reorient  #important for SAPT in psi4, default
symmetry c1  #important for SAPT in psi4, default
}

set PROPERTIES_ORIGIN ["COM"]
properties('MP2/aug-cc-pvtz', properties = ['dipole'])
--------------------------------------------------------------------------

    Molecular point group: c1
  Charge       = 0
  Multiplicity = 1
  Basis Set: AUG-CC-PVTZ
    Blend: AUG-CC-PVTZ
  Basis Set: (AUG-CC-PVTZ AUX)
    Blend: AUG-CC-PVTZ-JKFIT

    Orbital Energies [Eh]
    ---------------------

    Doubly Occupied:

       1A    -91.991201     2A    -15.566168     3A    -11.315928
       4A    -11.268973     5A    -11.262245     6A    -11.245532
       7A    -11.226097     8A     -8.991353     9A     -6.672230
      10A     -6.671729    11A     -6.671047    12A     -1.271948
      13A     -1.080485    14A     -1.056930    15A     -0.973101
      16A     -0.875980    17A     -0.791732    18A     -0.728064
      19A     -0.680849    20A     -0.632411    21A     -0.607496
      22A     -0.575088    23A     -0.554449    24A     -0.520456
      25A     -0.516237    26A     -0.501564    27A     -0.496181
      28A     -0.417932    29A     -0.386746    30A     -0.325846

  @DF-RHF Final Energy:  -645.48317301042664

   => Energetics <=

    Nuclear Repulsion Energy =            350.5716964138330809
    One-Electron Energy =               -1580.3577463010294650
    Two-Electron Energy =                 584.3028768767698011
    Total Energy =                       -645.4831730104266398
  Basis Set: (AUG-CC-PVTZ AUX)
    Blend: AUG-CC-PVTZ-RI
    Molecular point group: c1

    Geometry (in Angstrom), charge = 0, multiplicity = 1:

       Center              X                  Y                   Z               Mass
    ------------   -----------------  -----------------  -----------------  -----------------
         S           -0.774348744311    -1.163272861013     0.040630898182    31.972071174400
         N           -0.109052744311     1.309363138987    -0.246884101818    14.003074004430
         C            1.830019255689    -0.201924861013    -0.566741101818    12.000000000000
         C            0.425114855689     0.105893338987    -0.316324801818    12.000000000000
         C            2.703162255689     0.194099138987     0.626536898182    12.000000000000
         C           -1.983631744311     0.029857138987     0.266207898182    12.000000000000
         C           -1.443297744311     1.278430138987     0.071014898182    12.000000000000
         H            1.960122255689    -1.263810861013    -0.802112101818     1.007825032230
         H            2.129926255689     0.366364138987    -1.453354101818     1.007825032230
         H            2.569776255689     1.255373138987     0.847193898182     1.007825032230
         H            3.760066255689     0.009127138987     0.413196898182     1.007825032230
         H            2.425486255689    -0.379590861013     1.515220898182     1.007825032230
         H           -3.004090744311    -0.231382861013     0.512770898182     1.007825032230
         H           -1.994483744311     2.209415138987     0.147602898182     1.007825032230

  Basis Set: AUG-CC-PVTZ
    Blend: AUG-CC-PVTZ
  Basis Set: (AUG-CC-PVTZ AUX)
    Blend: AUG-CC-PVTZ-JKFIT
	 Reference Energy          =    -645.4831730104266398 [Eh]
	 Singles Energy            =      -0.0000000000000000 [Eh]
	 Same-Spin Energy          =      -0.3326874634574237 [Eh]
	 Opposite-Spin Energy      =      -1.0403773260538653 [Eh]
	 Correlation Energy        =      -1.3730647895112891 [Eh]
	 Total Energy              =    -646.8562377999379578 [Eh]

	 ================> DF-SCS-MP2 Energies <==================
	-----------------------------------------------------------
	 SCS Same-Spin Scale       =       0.3333333333333333 [-]
	 SCS Opposite-Spin Scale   =       1.2000000000000000 [-]
	 SCS Same-Spin Energy      =      -0.1108958211524746 [Eh]
	 SCS Opposite-Spin Energy  =      -1.2484527912646384 [Eh]
	 SCS Correlation Energy    =      -1.3593486124171130 [Eh]
	 SCS Total Energy          =    -646.8425216228437193 [Eh]
	-----------------------------------------------------------

  Dipole Moment: [D]
     X:    -0.1876      Y:    -1.1502      Z:     0.2402     Total:     1.1899

*** Psi4 exiting successfully. Buy a developer a beer!
