                               Psi4 1.3.2 release

  ==> Input File <==

--------------------------------------------------------------------------
#psi4
#
memory 32 gb

molecule  {
0 1
  S       -0.8349460    -1.1774250     0.0297960
  N       -0.1696500     1.2952110    -0.2577190
  C        1.7694220    -0.2160770    -0.5775760
  C        0.3234810     0.0737960    -0.3165740
  C        2.6425650     0.1799470     0.6157020
  C       -2.0442290     0.0157050     0.2553730
  C       -1.4252671     1.4459669     0.0317760
  H        1.8995250    -1.2779630    -0.8129470
  H        2.0693290     0.3522120    -1.4641890
  H        2.5091790     1.2412210     0.8363590
  H        3.6994690    -0.0050250     0.4023620
  H        2.3648890    -0.3937430     1.5043860
  H       -3.0646880    -0.2455350     0.5019360
  H       -2.0550810     2.1952630     0.1367680
units angstrom
no_reorient  #important for SAPT in psi4, default
symmetry c1  #important for SAPT in psi4, default
}

set PROPERTIES_ORIGIN ["COM"]
properties('MP2/aug-cc-pvtz', properties = ['dipole'])
--------------------------------------------------------------------------

    Molecular point group: c1
  Charge       = 0
  Multiplicity = 1
  Basis Set: AUG-CC-PVTZ
    Blend: AUG-CC-PVTZ
  Basis Set: (AUG-CC-PVTZ AUX)
    Blend: AUG-CC-PVTZ-JKFIT

    Orbital Energies [Eh]
    ---------------------

    Doubly Occupied:

       1A    -92.004767     2A    -15.567033     3A    -11.307984
       4A    -11.281755     5A    -11.276215     6A    -11.244057
       7A    -11.221819     8A     -9.003989     9A     -6.684768
      10A     -6.684298    11A     -6.683881    12A     -1.281662
      13A     -1.076552    14A     -1.053294    15A     -0.965307
      16A     -0.866092    17A     -0.802448    18A     -0.745498
      19A     -0.673505    20A     -0.640054    21A     -0.606171
      22A     -0.584989    23A     -0.553641    24A     -0.514243
      25A     -0.511503    26A     -0.498292    27A     -0.485953
      28A     -0.411572    29A     -0.399800    30A     -0.296190

  @DF-RHF Final Energy:  -645.43379285750257

   => Energetics <=

    Nuclear Repulsion Energy =            349.0803808513275044
    One-Electron Energy =               -1577.1736830274085150
    Two-Electron Energy =                 582.6595093185785572
    Total Energy =                       -645.4337928575025671
  Basis Set: (AUG-CC-PVTZ AUX)
    Blend: AUG-CC-PVTZ-RI
    Molecular point group: c1

    Geometry (in Angstrom), charge = 0, multiplicity = 1:

       Center              X                  Y                   Z               Mass
    ------------   -----------------  -----------------  -----------------  -----------------
         S           -0.778339684041    -1.180656969512     0.042522606141    31.972071174400
         N           -0.113043684041     1.291979030488    -0.244992393859    14.003074004430
         C            1.826028315959    -0.219308969512    -0.564849393859    12.000000000000
         C            0.380087315959     0.070564030488    -0.303847393859    12.000000000000
         C            2.699171315959     0.176715030488     0.628428606141    12.000000000000
         C           -1.987622684041     0.012473030488     0.268099606141    12.000000000000
         C           -1.368660784041     1.442734930488     0.044502606141    12.000000000000
         H            1.956131315959    -1.281194969512    -0.800220393859     1.007825032230
         H            2.125935315959     0.348980030488    -1.451462393859     1.007825032230
         H            2.565785315959     1.237989030488     0.849085606141     1.007825032230
         H            3.756075315959    -0.008256969512     0.415088606141     1.007825032230
         H            2.421495315959    -0.396974969512     1.517112606141     1.007825032230
         H           -3.008081684041    -0.248766969512     0.514662606141     1.007825032230
         H           -1.998474684041     2.192031030488     0.149494606141     1.007825032230

  Basis Set: AUG-CC-PVTZ
    Blend: AUG-CC-PVTZ
  Basis Set: (AUG-CC-PVTZ AUX)
    Blend: AUG-CC-PVTZ-JKFIT
	 Reference Energy          =    -645.4337928575025671 [Eh]
	 Singles Energy            =      -0.0000000000000000 [Eh]
	 Same-Spin Energy          =      -0.3385005297253457 [Eh]
	 Opposite-Spin Energy      =      -1.0481855473851254 [Eh]
	 Correlation Energy        =      -1.3866860771104710 [Eh]
	 Total Energy              =    -646.8204789346129928 [Eh]

	 ================> DF-SCS-MP2 Energies <==================
	-----------------------------------------------------------
	 SCS Same-Spin Scale       =       0.3333333333333333 [-]
	 SCS Opposite-Spin Scale   =       1.2000000000000000 [-]
	 SCS Same-Spin Energy      =      -0.1128335099084486 [Eh]
	 SCS Opposite-Spin Energy  =      -1.2578226568621504 [Eh]
	 SCS Correlation Energy    =      -1.3706561667705990 [Eh]
	 SCS Total Energy          =    -646.8044490242731399 [Eh]
	-----------------------------------------------------------

  Dipole Moment: [D]
     X:    -0.3097      Y:    -1.0927      Z:     0.2313     Total:     1.1591

*** Psi4 exiting successfully. Buy a developer a beer!
