                               Psi4 1.3.2 release

  ==> Input File <==

--------------------------------------------------------------------------
#psi4
#
memory 32 gb

molecule  {
0 1
  S       -0.8132866    -1.1982836     0.0255549
  N       -0.1696500     1.2952110    -0.2577190
  C        1.7694220    -0.2160770    -0.5775760
  C        0.3234810     0.0737960    -0.3165740
  C        2.6425650     0.1799470     0.6157020
  C       -2.0442290     0.0157050     0.2553730
  C       -1.5038950     1.2642780     0.0601800
  H        1.8995250    -1.2779630    -0.8129470
  H        2.0693290     0.3522120    -1.4641890
  H        2.5091790     1.2412210     0.8363590
  H        3.6994690    -0.0050250     0.4023620
  H        2.3648890    -0.3937430     1.5043860
  H       -3.0646880    -0.2455350     0.5019360
  H       -2.0550810     2.1952630     0.1367680
units angstrom
no_reorient  #important for SAPT in psi4, default
symmetry c1  #important for SAPT in psi4, default
}

set PROPERTIES_ORIGIN ["COM"]
properties('MP2/aug-cc-pvtz', properties = ['dipole'])
--------------------------------------------------------------------------

    Molecular point group: c1
  Charge       = 0
  Multiplicity = 1
  Basis Set: AUG-CC-PVTZ
    Blend: AUG-CC-PVTZ
  Basis Set: (AUG-CC-PVTZ AUX)
    Blend: AUG-CC-PVTZ-JKFIT

    Orbital Energies [Eh]
    ---------------------

    Doubly Occupied:

       1A    -91.995334     2A    -15.565092     3A    -11.313963
       4A    -11.270316     5A    -11.263492     6A    -11.245486
       7A    -11.224277     8A     -8.995477     9A     -6.676368
      10A     -6.675793    11A     -6.675140    12A     -1.273557
      13A     -1.072272    14A     -1.056351    15A     -0.975964
      16A     -0.870155    17A     -0.792960    18A     -0.727007
      19A     -0.680154    20A     -0.629207    21A     -0.601203
      22A     -0.572626    23A     -0.554779    24A     -0.517413
      25A     -0.511586    26A     -0.504330    27A     -0.494451
      28A     -0.425143    29A     -0.386376    30A     -0.329823

  @DF-RHF Final Energy:  -645.48534642732216

   => Energetics <=

    Nuclear Repulsion Energy =            350.2776144325056293
    One-Electron Energy =               -1579.7737313951674878
    Two-Electron Energy =                 584.0107705353395886
    Total Energy =                       -645.4853464273221562
  Basis Set: (AUG-CC-PVTZ AUX)
    Blend: AUG-CC-PVTZ-RI
    Molecular point group: c1

    Geometry (in Angstrom), charge = 0, multiplicity = 1:

       Center              X                  Y                   Z               Mass
    ------------   -----------------  -----------------  -----------------  -----------------
         S           -0.754459288744    -1.176326137957     0.036465604226    31.972071174400
         N           -0.110822688744     1.317168462043    -0.246808295774    14.003074004430
         C            1.828249311256    -0.194119537957    -0.566665295774    12.000000000000
         C            0.382308311256     0.095753462043    -0.305663295774    12.000000000000
         C            2.701392311256     0.201904462043     0.626612704226    12.000000000000
         C           -1.985401688744     0.037662462043     0.266283704226    12.000000000000
         C           -1.445067688744     1.286235462043     0.071090704226    12.000000000000
         H            1.958352311256    -1.256005537957    -0.802036295774     1.007825032230
         H            2.128156311256     0.374169462043    -1.453278295774     1.007825032230
         H            2.568006311256     1.263178462043     0.847269704226     1.007825032230
         H            3.758296311256     0.016932462043     0.413272704226     1.007825032230
         H            2.423716311256    -0.371785537957     1.515296704226     1.007825032230
         H           -3.005860688744    -0.223577537957     0.512846704226     1.007825032230
         H           -1.996253688744     2.217220462043     0.147678704226     1.007825032230

  Basis Set: AUG-CC-PVTZ
    Blend: AUG-CC-PVTZ
  Basis Set: (AUG-CC-PVTZ AUX)
    Blend: AUG-CC-PVTZ-JKFIT
	 Reference Energy          =    -645.4853464273221562 [Eh]
	 Singles Energy            =      -0.0000000000000000 [Eh]
	 Same-Spin Energy          =      -0.3319663096661275 [Eh]
	 Opposite-Spin Energy      =      -1.0398755930653394 [Eh]
	 Correlation Energy        =      -1.3718419027314668 [Eh]
	 Total Energy              =    -646.8571883300536456 [Eh]

	 ================> DF-SCS-MP2 Energies <==================
	-----------------------------------------------------------
	 SCS Same-Spin Scale       =       0.3333333333333333 [-]
	 SCS Opposite-Spin Scale   =       1.2000000000000000 [-]
	 SCS Same-Spin Energy      =      -0.1106554365553758 [Eh]
	 SCS Opposite-Spin Energy  =      -1.2478507116784072 [Eh]
	 SCS Correlation Energy    =      -1.3585061482337830 [Eh]
	 SCS Total Energy          =    -646.8438525755559567 [Eh]
	-----------------------------------------------------------

  Dipole Moment: [D]
     X:    -0.3217      Y:    -1.2353      Z:     0.2627     Total:     1.3032

*** Psi4 exiting successfully. Buy a developer a beer!
