                               Psi4 1.3.2 release

  ==> Input File <==

--------------------------------------------------------------------------
#psi4
#
memory 32 gb

molecule  {
0 1
  S       -0.8349460    -1.1774250     0.0297960
  N       -0.1696500     1.2952110    -0.2577190
  C        1.7694220    -0.2160770    -0.5775760
  C        0.3234810     0.0737960    -0.3165740
  C        2.6425650     0.1799470     0.6157020
  C       -2.0442290     0.0157050     0.2553730
  C       -1.5038950     1.2642780     0.0601800
  H        1.8995250    -1.2779630    -0.8129470
  H        2.0693290     0.3522120    -1.4641890
  H        2.5091790     1.2412210     0.8363590
  H        3.6994690    -0.0050250     0.4023620
  H        2.3648890    -0.3937430     1.5043860
  H       -2.8760354    -0.1972395     0.4563538
  H       -2.0550810     2.1952630     0.1367680
units angstrom
no_reorient  #important for SAPT in psi4, default
symmetry c1  #important for SAPT in psi4, default
}

set PROPERTIES_ORIGIN ["COM"]
properties('MP2/aug-cc-pvtz', properties = ['dipole'])
--------------------------------------------------------------------------

    Molecular point group: c1
  Charge       = 0
  Multiplicity = 1
  Basis Set: AUG-CC-PVTZ
    Blend: AUG-CC-PVTZ
  Basis Set: (AUG-CC-PVTZ AUX)
    Blend: AUG-CC-PVTZ-JKFIT

    Orbital Energies [Eh]
    ---------------------

    Doubly Occupied:

       1A    -91.993445     2A    -15.564546     3A    -11.312797
       4A    -11.269113     5A    -11.245637     6A    -11.239168
       7A    -11.224170     8A     -8.994256     9A     -6.675179
      10A     -6.674661    11A     -6.673964    12A     -1.274571
      13A     -1.075716    14A     -1.066128    15A     -0.979277
      16A     -0.872968    17A     -0.820532    18A     -0.732646
      19A     -0.694701    20A     -0.635948    21A     -0.604474
      22A     -0.577299    23A     -0.559916    24A     -0.519168
      25A     -0.512408    26A     -0.503634    27A     -0.496995
      28A     -0.424652    29A     -0.387270    30A     -0.328778

  @DF-RHF Final Energy:  -645.44987590620121

   => Energetics <=

    Nuclear Repulsion Energy =            352.2196021482467927
    One-Electron Energy =               -1583.4709288165236103
    Two-Electron Energy =                 585.8014507620755467
    Total Energy =                       -645.4498759062012141
  Basis Set: (AUG-CC-PVTZ AUX)
    Blend: AUG-CC-PVTZ-RI
    Molecular point group: c1

    Geometry (in Angstrom), charge = 0, multiplicity = 1:

       Center              X                  Y                   Z               Mass
    ------------   -----------------  -----------------  -----------------  -----------------
         S           -0.771674139337    -1.161798304669     0.039913481789    31.972071174400
         N           -0.106378139337     1.310837695331    -0.247601518211    14.003074004430
         C            1.832693860663    -0.200450304669    -0.567458518211    12.000000000000
         C            0.386752860663     0.089422695331    -0.306456518211    12.000000000000
         C            2.705836860663     0.195573695331     0.625819481789    12.000000000000
         C           -1.980957139337     0.031331695331     0.265490481789    12.000000000000
         C           -1.440623139337     1.279904695331     0.070297481789    12.000000000000
         H            1.962796860663    -1.262336304669    -0.802829518211     1.007825032230
         H            2.132600860663     0.367838695331    -1.454071518211     1.007825032230
         H            2.572450860663     1.256847695331     0.846476481789     1.007825032230
         H            3.762740860663     0.010601695331     0.412479481789     1.007825032230
         H            2.428160860663    -0.378116304669     1.514503481789     1.007825032230
         H           -2.812763539337    -0.181612804669     0.466471281789     1.007825032230
         H           -1.991809139337     2.210889695331     0.146885481789     1.007825032230

  Basis Set: AUG-CC-PVTZ
    Blend: AUG-CC-PVTZ
  Basis Set: (AUG-CC-PVTZ AUX)
    Blend: AUG-CC-PVTZ-JKFIT
	 Reference Energy          =    -645.4498759062012141 [Eh]
	 Singles Energy            =      -0.0000000000000000 [Eh]
	 Same-Spin Energy          =      -0.3320594513613311 [Eh]
	 Opposite-Spin Energy      =      -1.0395370441183447 [Eh]
	 Correlation Energy        =      -1.3715964954796758 [Eh]
	 Total Energy              =    -646.8214724016809214 [Eh]

	 ================> DF-SCS-MP2 Energies <==================
	-----------------------------------------------------------
	 SCS Same-Spin Scale       =       0.3333333333333333 [-]
	 SCS Opposite-Spin Scale   =       1.2000000000000000 [-]
	 SCS Same-Spin Energy      =      -0.1106864837871104 [Eh]
	 SCS Opposite-Spin Energy  =      -1.2474444529420137 [Eh]
	 SCS Correlation Energy    =      -1.3581309367291241 [Eh]
	 SCS Total Energy          =    -646.8080068429303537 [Eh]
	-----------------------------------------------------------

  Dipole Moment: [D]
     X:    -0.2934      Y:    -1.2345      Z:     0.2569     Total:     1.2947

*** Psi4 exiting successfully. Buy a developer a beer!
