                               Psi4 1.3.2 release

  ==> Input File <==

--------------------------------------------------------------------------
#psi4
#
memory 32 gb

molecule  {
0 1
  S       -0.8758828    -1.2195519     0.0410899
  N       -0.1696500     1.2952110    -0.2577190
  C        1.7694220    -0.2160770    -0.5775760
  C        0.3234810     0.0737960    -0.3165740
  C        2.6425650     0.1799470     0.6157020
  C       -2.0442290     0.0157050     0.2553730
  C       -1.5038950     1.2642780     0.0601800
  H        1.8995250    -1.2779630    -0.8129470
  H        2.0693290     0.3522120    -1.4641890
  H        2.5091790     1.2412210     0.8363590
  H        3.6994690    -0.0050250     0.4023620
  H        2.3648890    -0.3937430     1.5043860
  H       -3.0646880    -0.2455350     0.5019360
  H       -2.0550810     2.1952630     0.1367680
units angstrom
no_reorient  #important for SAPT in psi4, default
symmetry c1  #important for SAPT in psi4, default
}

set PROPERTIES_ORIGIN ["COM"]
properties('MP2/aug-cc-pvtz', properties = ['dipole'])
--------------------------------------------------------------------------

    Molecular point group: c1
  Charge       = 0
  Multiplicity = 1
  Basis Set: AUG-CC-PVTZ
    Blend: AUG-CC-PVTZ
  Basis Set: (AUG-CC-PVTZ AUX)
    Blend: AUG-CC-PVTZ-JKFIT

    Orbital Energies [Eh]
    ---------------------

    Doubly Occupied:

       1A    -91.994916     2A    -15.568791     3A    -11.318765
       4A    -11.269124     5A    -11.262122     6A    -11.246444
       7A    -11.224660     8A     -8.994601     9A     -6.675485
      10A     -6.674875    11A     -6.674235    12A     -1.272035
      13A     -1.072269    14A     -1.058582    15A     -0.970705
      16A     -0.870619    17A     -0.790499    18A     -0.727802
      19A     -0.680602    20A     -0.629083    21A     -0.600596
      22A     -0.570687    23A     -0.551519    24A     -0.516999
      25A     -0.513247    26A     -0.503737    27A     -0.497315
      28A     -0.424803    29A     -0.390368    30A     -0.324817

  @DF-RHF Final Energy:  -645.48266811149347

   => Energetics <=

    Nuclear Repulsion Energy =            348.6917395195742984
    One-Electron Energy =               -1576.6082175710885167
    Two-Electron Energy =                 582.4338099400208648
    Total Energy =                       -645.4826681114934672
  Basis Set: (AUG-CC-PVTZ AUX)
    Blend: AUG-CC-PVTZ-RI
    Molecular point group: c1

    Geometry (in Angstrom), charge = 0, multiplicity = 1:

       Center              X                  Y                   Z               Mass
    ------------   -----------------  -----------------  -----------------  -----------------
         S           -0.799349290646    -1.191578406105     0.047606315316    31.972071174400
         N           -0.093116490646     1.323184493895    -0.251202584684    14.003074004430
         C            1.845955509354    -0.188103506105    -0.571059584684    12.000000000000
         C            0.400014509354     0.101769493895    -0.310057584684    12.000000000000
         C            2.719098509354     0.207920493895     0.622218415316    12.000000000000
         C           -1.967695490646     0.043678493895     0.261889415316    12.000000000000
         C           -1.427361490646     1.292251493895     0.066696415316    12.000000000000
         H            1.976058509354    -1.249989506105    -0.806430584684     1.007825032230
         H            2.145862509354     0.380185493895    -1.457672584684     1.007825032230
         H            2.585712509354     1.269194493895     0.842875415316     1.007825032230
         H            3.776002509354     0.022948493895     0.408878415316     1.007825032230
         H            2.441422509354    -0.365769506105     1.510902415316     1.007825032230
         H           -2.988154490646    -0.217561506105     0.508452415316     1.007825032230
         H           -1.978547490646     2.223236493895     0.143284415316     1.007825032230

  Basis Set: AUG-CC-PVTZ
    Blend: AUG-CC-PVTZ
  Basis Set: (AUG-CC-PVTZ AUX)
    Blend: AUG-CC-PVTZ-JKFIT
	 Reference Energy          =    -645.4826681114934672 [Eh]
	 Singles Energy            =      -0.0000000000000000 [Eh]
	 Same-Spin Energy          =      -0.3321438112188116 [Eh]
	 Opposite-Spin Energy      =      -1.0406890000274132 [Eh]
	 Correlation Energy        =      -1.3728328112462247 [Eh]
	 Total Energy              =    -646.8555009227396795 [Eh]

	 ================> DF-SCS-MP2 Energies <==================
	-----------------------------------------------------------
	 SCS Same-Spin Scale       =       0.3333333333333333 [-]
	 SCS Opposite-Spin Scale   =       1.2000000000000000 [-]
	 SCS Same-Spin Energy      =      -0.1107146037396039 [Eh]
	 SCS Opposite-Spin Energy  =      -1.2488268000328957 [Eh]
	 SCS Correlation Energy    =      -1.3595414037724995 [Eh]
	 SCS Total Energy          =    -646.8422095152659494 [Eh]
	-----------------------------------------------------------

  Dipole Moment: [D]
     X:    -0.2644      Y:    -1.1788      Z:     0.2505     Total:     1.2338

*** Psi4 exiting successfully. Buy a developer a beer!
