                               Psi4 1.3.2 release

  ==> Input File <==

--------------------------------------------------------------------------
#psi4
#
memory 32 gb

molecule  {
0 1
  S       -0.8349460    -1.1774250     0.0297960
  N       -0.1696500     1.2952110    -0.2577190
  C        1.7694220    -0.2160770    -0.5775760
  C        0.2860807     0.1664313    -0.3121103
  C        2.6425650     0.1799470     0.6157020
  C       -2.0442290     0.0157050     0.2553730
  C       -1.5038950     1.2642780     0.0601800
  H        1.8995250    -1.2779630    -0.8129470
  H        2.0693290     0.3522120    -1.4641890
  H        2.5091790     1.2412210     0.8363590
  H        3.6994690    -0.0050250     0.4023620
  H        2.3648890    -0.3937430     1.5043860
  H       -3.0646880    -0.2455350     0.5019360
  H       -2.0550810     2.1952630     0.1367680
units angstrom
no_reorient  #important for SAPT in psi4, default
symmetry c1  #important for SAPT in psi4, default
}

set PROPERTIES_ORIGIN ["COM"]
properties('MP2/aug-cc-pvtz', properties = ['dipole'])
--------------------------------------------------------------------------

    Molecular point group: c1
  Charge       = 0
  Multiplicity = 1
  Basis Set: AUG-CC-PVTZ
    Blend: AUG-CC-PVTZ
  Basis Set: (AUG-CC-PVTZ AUX)
    Blend: AUG-CC-PVTZ-JKFIT

    Orbital Energies [Eh]
    ---------------------

    Doubly Occupied:

       1A    -91.985411     2A    -15.561028     3A    -11.306188
       4A    -11.269822     5A    -11.264379     6A    -11.246697
       7A    -11.222974     8A     -8.986414     9A     -6.667327
      10A     -6.666673    11A     -6.665933    12A     -1.309031
      13A     -1.072037    14A     -1.058605    15A     -0.973836
      16A     -0.862907    17A     -0.803655    18A     -0.723248
      19A     -0.685318    20A     -0.626021    21A     -0.604144
      22A     -0.580984    23A     -0.559144    24A     -0.519129
      25A     -0.513188    26A     -0.503510    27A     -0.493699
      28A     -0.415084    29A     -0.399251    30A     -0.330187

  @DF-RHF Final Energy:  -645.47966091767012

   => Energetics <=

    Nuclear Repulsion Energy =            351.4929630040021493
    One-Electron Energy =               -1582.1935987009383098
    Two-Electron Energy =                 585.2209747792660437
    Total Energy =                       -645.4796609176701168
  Basis Set: (AUG-CC-PVTZ AUX)
    Blend: AUG-CC-PVTZ-RI
    Molecular point group: c1

    Geometry (in Angstrom), charge = 0, multiplicity = 1:

       Center              X                  Y                   Z               Mass
    ------------   -----------------  -----------------  -----------------  -----------------
         S           -0.766021366953    -1.171202453432     0.039033154865    31.972071174400
         N           -0.100725366953     1.301433546568    -0.248481845135    14.003074004430
         C            1.838346633047    -0.209854453432    -0.568338845135    12.000000000000
         C            0.355005333047     0.172653846568    -0.302873145135    12.000000000000
         C            2.711489633047     0.186169546568     0.624939154865    12.000000000000
         C           -1.975304366953     0.021927546568     0.264610154865    12.000000000000
         C           -1.434970366953     1.270500546568     0.069417154865    12.000000000000
         H            1.968449633047    -1.271740453432    -0.803709845135     1.007825032230
         H            2.138253633047     0.358434546568    -1.454951845135     1.007825032230
         H            2.578103633047     1.247443546568     0.845596154865     1.007825032230
         H            3.768393633047     0.001197546568     0.411599154865     1.007825032230
         H            2.433813633047    -0.387520453432     1.513623154865     1.007825032230
         H           -2.995763366953    -0.239312453432     0.511173154865     1.007825032230
         H           -1.986156366953     2.201485546568     0.146005154865     1.007825032230

  Basis Set: AUG-CC-PVTZ
    Blend: AUG-CC-PVTZ
  Basis Set: (AUG-CC-PVTZ AUX)
    Blend: AUG-CC-PVTZ-JKFIT
	 Reference Energy          =    -645.4796609176701168 [Eh]
	 Singles Energy            =      -0.0000000000000000 [Eh]
	 Same-Spin Energy          =      -0.3295956948754761 [Eh]
	 Opposite-Spin Energy      =      -1.0363528774024493 [Eh]
	 Correlation Energy        =      -1.3659485722779254 [Eh]
	 Total Energy              =    -646.8456094899480604 [Eh]

	 ================> DF-SCS-MP2 Energies <==================
	-----------------------------------------------------------
	 SCS Same-Spin Scale       =       0.3333333333333333 [-]
	 SCS Opposite-Spin Scale   =       1.2000000000000000 [-]
	 SCS Same-Spin Energy      =      -0.1098652316251587 [Eh]
	 SCS Opposite-Spin Energy  =      -1.2436234528829391 [Eh]
	 SCS Correlation Energy    =      -1.3534886845080978 [Eh]
	 SCS Total Energy          =    -646.8331496021781959 [Eh]
	-----------------------------------------------------------

  Dipole Moment: [D]
     X:    -0.2349      Y:    -0.9842      Z:     0.2210     Total:     1.0357

*** Psi4 exiting successfully. Buy a developer a beer!
