                               Psi4 1.3.2 release

  ==> Input File <==

--------------------------------------------------------------------------
#psi4
#
memory 32 gb

molecule  {
0 1
  S       -0.8349460    -1.1774250     0.0297960
  N       -0.1696500     1.2952110    -0.2577190
  C        1.7694220    -0.2160770    -0.5775760
  C        0.3037602    -0.0272827    -0.3344999
  C        2.6425650     0.1799470     0.6157020
  C       -2.0442290     0.0157050     0.2553730
  C       -1.5038950     1.2642780     0.0601800
  H        1.8995250    -1.2779630    -0.8129470
  H        2.0693290     0.3522120    -1.4641890
  H        2.5091790     1.2412210     0.8363590
  H        3.6994690    -0.0050250     0.4023620
  H        2.3648890    -0.3937430     1.5043860
  H       -3.0646880    -0.2455350     0.5019360
  H       -2.0550810     2.1952630     0.1367680
units angstrom
no_reorient  #important for SAPT in psi4, default
symmetry c1  #important for SAPT in psi4, default
}

set PROPERTIES_ORIGIN ["COM"]
properties('MP2/aug-cc-pvtz', properties = ['dipole'])
--------------------------------------------------------------------------

    Molecular point group: c1
  Charge       = 0
  Multiplicity = 1
  Basis Set: AUG-CC-PVTZ
    Blend: AUG-CC-PVTZ
  Basis Set: (AUG-CC-PVTZ AUX)
    Blend: AUG-CC-PVTZ-JKFIT

    Orbital Energies [Eh]
    ---------------------

    Doubly Occupied:

       1A    -92.003751     2A    -15.566511     3A    -11.313408
       4A    -11.269472     5A    -11.257394     6A    -11.245753
       7A    -11.223620     8A     -9.005331     9A     -6.686365
      10A     -6.685720    11A     -6.685093    12A     -1.256559
      13A     -1.073050    14A     -1.062964    15A     -0.976833
      16A     -0.870697    17A     -0.782234    18A     -0.734243
      19A     -0.677751    20A     -0.627695    21A     -0.599323
      22A     -0.562060    23A     -0.557140    24A     -0.521256
      25A     -0.507100    26A     -0.505071    27A     -0.495400
      28A     -0.430223    29A     -0.383185    30A     -0.326501

  @DF-RHF Final Energy:  -645.47069048308754

   => Energetics <=

    Nuclear Repulsion Energy =            351.1350829335095227
    One-Electron Energy =               -1581.4281378562984628
    Two-Electron Energy =                 584.8223644397014596
    Total Energy =                       -645.4706904830875374
  Basis Set: (AUG-CC-PVTZ AUX)
    Blend: AUG-CC-PVTZ-RI
    Molecular point group: c1

    Geometry (in Angstrom), charge = 0, multiplicity = 1:

       Center              X                  Y                   Z               Mass
    ------------   -----------------  -----------------  -----------------  -----------------
         S           -0.767898338990    -1.150636500703     0.041410182107    31.972071174400
         N           -0.102602338990     1.321999499297    -0.246104817893    14.003074004430
         C            1.836469661010    -0.189288500703    -0.565961817893    12.000000000000
         C            0.370807861010    -0.000494200703    -0.322885717893    12.000000000000
         C            2.709612661010     0.206735499297     0.627316182107    12.000000000000
         C           -1.977181338990     0.042493499297     0.266987182107    12.000000000000
         C           -1.436847338990     1.291066499297     0.071794182107    12.000000000000
         H            1.966572661010    -1.251174500703    -0.801332817893     1.007825032230
         H            2.136376661010     0.379000499297    -1.452574817893     1.007825032230
         H            2.576226661010     1.268009499297     0.847973182107     1.007825032230
         H            3.766516661010     0.021763499297     0.413976182107     1.007825032230
         H            2.431936661010    -0.366954500703     1.516000182107     1.007825032230
         H           -2.997640338990    -0.218746500703     0.513550182107     1.007825032230
         H           -1.988033338990     2.222051499297     0.148382182107     1.007825032230

  Basis Set: AUG-CC-PVTZ
    Blend: AUG-CC-PVTZ
  Basis Set: (AUG-CC-PVTZ AUX)
    Blend: AUG-CC-PVTZ-JKFIT
	 Reference Energy          =    -645.4706904830875374 [Eh]
	 Singles Energy            =      -0.0000000000000000 [Eh]
	 Same-Spin Energy          =      -0.3349221216286046 [Eh]
	 Opposite-Spin Energy      =      -1.0430812410483425 [Eh]
	 Correlation Energy        =      -1.3780033626769472 [Eh]
	 Total Energy              =    -646.8486938457645010 [Eh]

	 ================> DF-SCS-MP2 Energies <==================
	-----------------------------------------------------------
	 SCS Same-Spin Scale       =       0.3333333333333333 [-]
	 SCS Opposite-Spin Scale   =       1.2000000000000000 [-]
	 SCS Same-Spin Energy      =      -0.1116407072095349 [Eh]
	 SCS Opposite-Spin Energy  =      -1.2516974892580111 [Eh]
	 SCS Correlation Energy    =      -1.3633381964675459 [Eh]
	 SCS Total Energy          =    -646.8340286795551037 [Eh]
	-----------------------------------------------------------

  Dipole Moment: [D]
     X:    -0.5327      Y:    -1.4707      Z:     0.3391     Total:     1.6006

*** Psi4 exiting successfully. Buy a developer a beer!
