                               Psi4 1.3.2 release

  ==> Input File <==

--------------------------------------------------------------------------
#psi4
#
memory 32 gb

molecule  {
0 1
  S       -0.7575404    -1.0888634     0.0080460
  N       -0.1696500     1.2952110    -0.2577190
  C        1.7694220    -0.2160770    -0.5775760
  C        0.3234810     0.0737960    -0.3165740
  C        2.6425650     0.1799470     0.6157020
  C       -2.0442290     0.0157050     0.2553730
  C       -1.5038950     1.2642780     0.0601800
  H        1.8995250    -1.2779630    -0.8129470
  H        2.0693290     0.3522120    -1.4641890
  H        2.5091790     1.2412210     0.8363590
  H        3.6994690    -0.0050250     0.4023620
  H        2.3648890    -0.3937430     1.5043860
  H       -3.0646880    -0.2455350     0.5019360
  H       -2.0550810     2.1952630     0.1367680
units angstrom
no_reorient  #important for SAPT in psi4, default
symmetry c1  #important for SAPT in psi4, default
}

set PROPERTIES_ORIGIN ["COM"]
properties('MP2/aug-cc-pvtz', properties = ['dipole'])
--------------------------------------------------------------------------

    Molecular point group: c1
  Charge       = 0
  Multiplicity = 1
  Basis Set: AUG-CC-PVTZ
    Blend: AUG-CC-PVTZ
  Basis Set: (AUG-CC-PVTZ AUX)
    Blend: AUG-CC-PVTZ-JKFIT

    Orbital Energies [Eh]
    ---------------------

    Doubly Occupied:

       1A    -91.991424     2A    -15.557863     3A    -11.299323
       4A    -11.269294     5A    -11.259157     6A    -11.245005
       7A    -11.223534     8A     -8.995246     9A     -6.676399
      10A     -6.675636    11A     -6.674879    12A     -1.283768
      13A     -1.075963    14A     -1.066282    15A     -0.984935
      16A     -0.869717    17A     -0.795489    18A     -0.731673
      19A     -0.681878    20A     -0.629330    21A     -0.607433
      22A     -0.575165    23A     -0.566205    24A     -0.521854
      25A     -0.511487    26A     -0.503405    27A     -0.491103
      28A     -0.422669    29A     -0.381741    30A     -0.336655

  @DF-RHF Final Energy:  -645.48031492309565

   => Energetics <=

    Nuclear Repulsion Energy =            355.9828621744279644
    One-Electron Energy =               -1591.1173336557978928
    Two-Electron Energy =                 589.6541565582742805
    Total Energy =                       -645.4803149230956478
  Basis Set: (AUG-CC-PVTZ AUX)
    Blend: AUG-CC-PVTZ-RI
    Molecular point group: c1

    Geometry (in Angstrom), charge = 0, multiplicity = 1:

       Center              X                  Y                   Z               Mass
    ------------   -----------------  -----------------  -----------------  -----------------
         S           -0.714481669910    -1.097856949952     0.023909337962    31.972071174400
         N           -0.126591269910     1.286217450048    -0.241855662038    14.003074004430
         C            1.812480730090    -0.225070549952    -0.561712662038    12.000000000000
         C            0.366539730090     0.064802450048    -0.300710662038    12.000000000000
         C            2.685623730090     0.170953450048     0.631565337962    12.000000000000
         C           -2.001170269910     0.006711450048     0.271236337962    12.000000000000
         C           -1.460836269910     1.255284450048     0.076043337962    12.000000000000
         H            1.942583730090    -1.286956549952    -0.797083662038     1.007825032230
         H            2.112387730090     0.343218450048    -1.448325662038     1.007825032230
         H            2.552237730090     1.232227450048     0.852222337962     1.007825032230
         H            3.742527730090    -0.014018549952     0.418225337962     1.007825032230
         H            2.407947730090    -0.402736549952     1.520249337962     1.007825032230
         H           -3.021629269910    -0.254528549952     0.517799337962     1.007825032230
         H           -2.012022269910     2.186269450048     0.152631337962     1.007825032230

  Basis Set: AUG-CC-PVTZ
    Blend: AUG-CC-PVTZ
  Basis Set: (AUG-CC-PVTZ AUX)
    Blend: AUG-CC-PVTZ-JKFIT
	 Reference Energy          =    -645.4803149230956478 [Eh]
	 Singles Energy            =      -0.0000000000000000 [Eh]
	 Same-Spin Energy          =      -0.3331466855934613 [Eh]
	 Opposite-Spin Energy      =      -1.0384800752576009 [Eh]
	 Correlation Energy        =      -1.3716267608510622 [Eh]
	 Total Energy              =    -646.8519416839467340 [Eh]

	 ================> DF-SCS-MP2 Energies <==================
	-----------------------------------------------------------
	 SCS Same-Spin Scale       =       0.3333333333333333 [-]
	 SCS Opposite-Spin Scale   =       1.2000000000000000 [-]
	 SCS Same-Spin Energy      =      -0.1110488951978204 [Eh]
	 SCS Opposite-Spin Energy  =      -1.2461760903091210 [Eh]
	 SCS Correlation Energy    =      -1.3572249855069414 [Eh]
	 SCS Total Energy          =    -646.8375399086025936 [Eh]
	-----------------------------------------------------------

  Dipole Moment: [D]
     X:    -0.4156      Y:    -1.3541      Z:     0.2877     Total:     1.4454

*** Psi4 exiting successfully. Buy a developer a beer!
