                               Psi4 1.4a3.dev225

  ==> Input File <==

--------------------------------------------------------------------------
#psi4
#
memory 32 gb

molecule  {
0 1
  S       -0.8349460    -1.1774250     0.0297960
  N       -0.1696500     1.2952110    -0.2577190
  C        1.7694220    -0.2160770    -0.5775760
  C        0.3234810     0.0737960    -0.3165740
  C        2.6425650     0.1799470     0.6157020
  C       -2.0442290     0.0157050     0.2553730
  C       -1.5038950     1.2642780     0.0601800
  H        1.8995250    -1.2779630    -0.8129470
  H        2.0693290     0.3522120    -1.4641890
  H        2.5091790     1.2412210     0.8363590
  H        3.6994690    -0.0050250     0.4023620
  H        2.3648890    -0.3937430     1.5043860
  H       -3.1118512    -0.2576089     0.5133315
  H       -2.0550810     2.1952630     0.1367680
units angstrom
no_reorient  #important for SAPT in psi4, default
symmetry c1  #important for SAPT in psi4, default
}

set PROPERTIES_ORIGIN ["COM"]
properties('MP2/aug-cc-pvtz', properties = ['dipole'])
--------------------------------------------------------------------------

    Molecular point group: c1
  Charge       = 0
  Multiplicity = 1
  Basis Set: AUG-CC-PVTZ
    Blend: AUG-CC-PVTZ
  Basis Set: (AUG-CC-PVTZ AUX)
    Blend: AUG-CC-PVTZ-JKFIT

    Orbital Energies [Eh]
    ---------------------

    Doubly Occupied:

       1A    -91.994595     2A    -15.565407     3A    -11.312803
       4A    -11.269405     5A    -11.266344     6A    -11.245811
       7A    -11.224231     8A     -8.995320     9A     -6.676217
      10A     -6.675708    11A     -6.674988    12A     -1.274984
      13A     -1.072077    14A     -1.060790    15A     -0.974615
      16A     -0.869896    17A     -0.787251    18A     -0.728744
      19A     -0.677627    20A     -0.627052    21A     -0.601241
      22A     -0.570979    23A     -0.554118    24A     -0.518146
      25A     -0.512051    26A     -0.503835    27A     -0.496134
      28A     -0.424957    29A     -0.387595    30A     -0.328622

  @DF-RHF Final Energy:  -645.48343387901002

   => Energetics <=

    Nuclear Repulsion Energy =            350.7469100421283201
    One-Electron Energy =               -1580.7176071375338324
    Two-Electron Energy =                 584.4872632163954904
    Total Energy =                       -645.4834338790100219
  Basis Set: (AUG-CC-PVTZ AUX)
    Blend: AUG-CC-PVTZ-RI
    Molecular point group: c1

    Geometry (in Angstrom), charge = 0, multiplicity = 1:

       Center              X                  Y                   Z               Mass
    ------------   -----------------  -----------------  -----------------  -----------------
         S           -0.769571500802    -1.161260024254     0.039405443279    31.972071174400
         N           -0.104275500802     1.311375975746    -0.248109556721    14.003074004430
         C            1.834796499198    -0.199912024254    -0.567966556721    12.000000000000
         C            0.388855499198     0.089960975746    -0.306964556721    12.000000000000
         C            2.707939499198     0.196111975746     0.625311443279    12.000000000000
         C           -1.978854500802     0.031869975746     0.264982443279    12.000000000000
         C           -1.438520500802     1.280442975746     0.069789443279    12.000000000000
         H            1.964899499198    -1.261798024254    -0.803337556721     1.007825032230
         H            2.134703499198     0.368376975746    -1.454579556721     1.007825032230
         H            2.574553499198     1.257385975746     0.845968443279     1.007825032230
         H            3.764843499198     0.011139975746     0.411971443279     1.007825032230
         H            2.430263499198    -0.377578024254     1.513995443279     1.007825032230
         H           -3.046476700802    -0.241443924254     0.522940943279     1.007825032230
         H           -1.989706500802     2.211427975746     0.146377443279     1.007825032230

  Basis Set: AUG-CC-PVTZ
    Blend: AUG-CC-PVTZ
  Basis Set: (AUG-CC-PVTZ AUX)
    Blend: AUG-CC-PVTZ-JKFIT
	 Reference Energy          =    -645.4834338790100219 [Eh]
	 Singles Energy            =      -0.0000000000000000 [Eh]
	 Same-Spin Energy          =      -0.3324464588991284 [Eh]
	 Opposite-Spin Energy      =      -1.0400297526077491 [Eh]
	 Correlation Energy        =      -1.3724762115068776 [Eh]
	 Total Energy              =    -646.8559100905168862 [Eh]

	 ================> DF-SCS-MP2 Energies <==================
	-----------------------------------------------------------
	 SCS Same-Spin Scale       =       0.3333333333333333 [-]
	 SCS Opposite-Spin Scale   =       1.2000000000000000 [-]
	 SCS Same-Spin Energy      =      -0.1108154862997095 [Eh]
	 SCS Opposite-Spin Energy  =      -1.2480357031292988 [Eh]
	 SCS Correlation Energy    =      -1.3588511894290083 [Eh]
	 SCS Total Energy          =    -646.8422850684390824 [Eh]
	-----------------------------------------------------------

  Dipole Moment: [D]
     X:    -0.3362      Y:    -1.2566      Z:     0.2677     Total:     1.3280

*** Psi4 exiting successfully. Buy a developer a beer!
