                               Psi4 1.3.2 release

  ==> Input File <==

--------------------------------------------------------------------------
#psi4
#
memory 32 gb

molecule  {
0 1
  S       -0.8349460    -1.1774250     0.0297960
  N       -0.1706676     1.3191112    -0.2587627
  C        1.7694220    -0.2160770    -0.5775760
  C        0.3234810     0.0737960    -0.3165740
  C        2.6425650     0.1799470     0.6157020
  C       -2.0442290     0.0157050     0.2553730
  C       -1.5038950     1.2642780     0.0601800
  H        1.8995250    -1.2779630    -0.8129470
  H        2.0693290     0.3522120    -1.4641890
  H        2.5091790     1.2412210     0.8363590
  H        3.6994690    -0.0050250     0.4023620
  H        2.3648890    -0.3937430     1.5043860
  H       -3.0646880    -0.2455350     0.5019360
  H       -2.0550810     2.1952630     0.1367680
units angstrom
no_reorient  #important for SAPT in psi4, default
symmetry c1  #important for SAPT in psi4, default
}

set PROPERTIES_ORIGIN ["COM"]
properties('MP2/aug-cc-pvtz', properties = ['dipole'])
--------------------------------------------------------------------------

    Molecular point group: c1
  Charge       = 0
  Multiplicity = 1
  Basis Set: AUG-CC-PVTZ
    Blend: AUG-CC-PVTZ
  Basis Set: (AUG-CC-PVTZ AUX)
    Blend: AUG-CC-PVTZ-JKFIT

    Orbital Energies [Eh]
    ---------------------

    Doubly Occupied:

       1A    -91.996534     2A    -15.567996     3A    -11.316105
       4A    -11.269037     5A    -11.260479     6A    -11.246335
       7A    -11.224443     8A     -8.997083     9A     -6.677982
      10A     -6.677460    11A     -6.676772    12A     -1.268819
      13A     -1.072167    14A     -1.062166    15A     -0.973653
      16A     -0.870243    17A     -0.789175    18A     -0.730493
      19A     -0.680036    20A     -0.628901    21A     -0.600394
      22A     -0.569516    23A     -0.554969    24A     -0.517861
      25A     -0.511862    26A     -0.504046    27A     -0.496496
      28A     -0.428838    29A     -0.387085    30A     -0.326984

  @DF-RHF Final Energy:  -645.48337691641973

   => Energetics <=

    Nuclear Repulsion Energy =            350.3805695497006809
    One-Electron Energy =               -1579.9600325565756975
    Two-Electron Energy =                 584.0960860904551737
    Total Energy =                       -645.4833769164197292
  Basis Set: (AUG-CC-PVTZ AUX)
    Blend: AUG-CC-PVTZ-RI
    Molecular point group: c1

    Geometry (in Angstrom), charge = 0, multiplicity = 1:

       Center              X                  Y                   Z               Mass
    ------------   -----------------  -----------------  -----------------  -----------------
         S           -0.769865960228    -1.164328633404     0.039636352745    31.972071174400
         N           -0.105587560228     1.332207566596    -0.248922347255    14.003074004430
         C            1.834502039772    -0.202980633404    -0.567735647255    12.000000000000
         C            0.388561039772     0.086892366596    -0.306733647255    12.000000000000
         C            2.707645039772     0.193043366596     0.625542352745    12.000000000000
         C           -1.979148960228     0.028801366596     0.265213352745    12.000000000000
         C           -1.438814960228     1.277374366596     0.070020352745    12.000000000000
         H            1.964605039772    -1.264866633404    -0.803106647255     1.007825032230
         H            2.134409039772     0.365308366596    -1.454348647255     1.007825032230
         H            2.574259039772     1.254317366596     0.846199352745     1.007825032230
         H            3.764549039772     0.008071366596     0.412202352745     1.007825032230
         H            2.429969039772    -0.380646633404     1.514226352745     1.007825032230
         H           -2.999607960228    -0.232438633404     0.511776352745     1.007825032230
         H           -1.990000960228     2.208359366596     0.146608352745     1.007825032230

  Basis Set: AUG-CC-PVTZ
    Blend: AUG-CC-PVTZ
  Basis Set: (AUG-CC-PVTZ AUX)
    Blend: AUG-CC-PVTZ-JKFIT
	 Reference Energy          =    -645.4833769164197292 [Eh]
	 Singles Energy            =      -0.0000000000000000 [Eh]
	 Same-Spin Energy          =      -0.3328636463763150 [Eh]
	 Opposite-Spin Energy      =      -1.0407446938751794 [Eh]
	 Correlation Energy        =      -1.3736083402514945 [Eh]
	 Total Energy              =    -646.8569852566712370 [Eh]

	 ================> DF-SCS-MP2 Energies <==================
	-----------------------------------------------------------
	 SCS Same-Spin Scale       =       0.3333333333333333 [-]
	 SCS Opposite-Spin Scale   =       1.2000000000000000 [-]
	 SCS Same-Spin Energy      =      -0.1109545487921050 [Eh]
	 SCS Opposite-Spin Energy  =      -1.2488936326502154 [Eh]
	 SCS Correlation Energy    =      -1.3598481814423204 [Eh]
	 SCS Total Energy          =    -646.8432250978620459 [Eh]
	-----------------------------------------------------------

  Dipole Moment: [D]
     X:    -0.3477      Y:    -1.3356      Z:     0.2746     Total:     1.4072

*** Psi4 exiting successfully. Buy a developer a beer!
