                               Psi4 1.3.2 release

  ==> Input File <==

--------------------------------------------------------------------------
#psi4
#
memory 32 gb

molecule  {
0 1
  S       -0.8566449    -1.1563119     0.0321617
  N       -0.1696500     1.2952110    -0.2577190
  C        1.7694220    -0.2160770    -0.5775760
  C        0.3234810     0.0737960    -0.3165740
  C        2.6425650     0.1799470     0.6157020
  C       -2.0442290     0.0157050     0.2553730
  C       -1.5038950     1.2642780     0.0601800
  H        1.8995250    -1.2779630    -0.8129470
  H        2.0693290     0.3522120    -1.4641890
  H        2.5091790     1.2412210     0.8363590
  H        3.6994690    -0.0050250     0.4023620
  H        2.3648890    -0.3937430     1.5043860
  H       -3.0646880    -0.2455350     0.5019360
  H       -2.0550810     2.1952630     0.1367680
units angstrom
no_reorient  #important for SAPT in psi4, default
symmetry c1  #important for SAPT in psi4, default
}

set PROPERTIES_ORIGIN ["COM"]
properties('MP2/aug-cc-pvtz', properties = ['dipole'])
--------------------------------------------------------------------------

    Molecular point group: c1
  Charge       = 0
  Multiplicity = 1
  Basis Set: AUG-CC-PVTZ
    Blend: AUG-CC-PVTZ
  Basis Set: (AUG-CC-PVTZ AUX)
    Blend: AUG-CC-PVTZ-JKFIT

    Orbital Energies [Eh]
    ---------------------

    Doubly Occupied:

       1A    -91.993078     2A    -15.565253     3A    -11.311402
       4A    -11.268019     5A    -11.258938     6A    -11.245937
       7A    -11.224060     8A     -8.994522     9A     -6.675455
      10A     -6.674969    11A     -6.674201    12A     -1.276227
      13A     -1.073741    14A     -1.065702    15A     -0.974361
      16A     -0.870085    17A     -0.790899    18A     -0.731755
      19A     -0.681812    20A     -0.628755    21A     -0.602935
      22A     -0.571933    23A     -0.557667    24A     -0.519628
      25A     -0.512695    26A     -0.502887    27A     -0.497831
      28A     -0.424487    29A     -0.388772    30A     -0.327131

  @DF-RHF Final Energy:  -645.48548938696126

   => Energetics <=

    Nuclear Repulsion Energy =            351.7606341541814459
    One-Electron Energy =               -1582.7219722276506673
    Two-Electron Energy =                 585.4758486865080158
    Total Energy =                       -645.4854893869612624
  Basis Set: (AUG-CC-PVTZ AUX)
    Blend: AUG-CC-PVTZ-RI
    Molecular point group: c1

    Geometry (in Angstrom), charge = 0, multiplicity = 1:

       Center              X                  Y                   Z               Mass
    ------------   -----------------  -----------------  -----------------  -----------------
         S           -0.785553095868    -1.146226711908     0.041203579767    31.972071174400
         N           -0.098558195868     1.305296188092    -0.248677120233    14.003074004430
         C            1.840513804132    -0.205991811908    -0.568534120233    12.000000000000
         C            0.394572804132     0.083881188092    -0.307532120233    12.000000000000
         C            2.713656804132     0.190032188092     0.624743879767    12.000000000000
         C           -1.973137195868     0.025790188092     0.264414879767    12.000000000000
         C           -1.432803195868     1.274363188092     0.069221879767    12.000000000000
         H            1.970616804132    -1.267877811908    -0.803905120233     1.007825032230
         H            2.140420804132     0.362297188092    -1.455147120233     1.007825032230
         H            2.580270804132     1.251306188092     0.845400879767     1.007825032230
         H            3.770560804132     0.005060188092     0.411403879767     1.007825032230
         H            2.435980804132    -0.383657811908     1.513427879767     1.007825032230
         H           -2.993596195868    -0.235449811908     0.510977879767     1.007825032230
         H           -1.983989195868     2.205348188092     0.145809879767     1.007825032230

  Basis Set: AUG-CC-PVTZ
    Blend: AUG-CC-PVTZ
  Basis Set: (AUG-CC-PVTZ AUX)
    Blend: AUG-CC-PVTZ-JKFIT
	 Reference Energy          =    -645.4854893869612624 [Eh]
	 Singles Energy            =      -0.0000000000000000 [Eh]
	 Same-Spin Energy          =      -0.3327222424988168 [Eh]
	 Opposite-Spin Energy      =      -1.0395761383629962 [Eh]
	 Correlation Energy        =      -1.3722983808618130 [Eh]
	 Total Energy              =    -646.8577877678230834 [Eh]

	 ================> DF-SCS-MP2 Energies <==================
	-----------------------------------------------------------
	 SCS Same-Spin Scale       =       0.3333333333333333 [-]
	 SCS Opposite-Spin Scale   =       1.2000000000000000 [-]
	 SCS Same-Spin Energy      =      -0.1109074141662723 [Eh]
	 SCS Opposite-Spin Energy  =      -1.2474913660355955 [Eh]
	 SCS Correlation Energy    =      -1.3583987802018678 [Eh]
	 SCS Total Energy          =    -646.8438881671631862 [Eh]
	-----------------------------------------------------------

  Dipole Moment: [D]
     X:    -0.3464      Y:    -1.2683      Z:     0.2698     Total:     1.3421

*** Psi4 exiting successfully. Buy a developer a beer!
