                               Psi4 1.3.2 release

  ==> Input File <==

--------------------------------------------------------------------------
#psi4
#
memory 32 gb

molecule  {
0 1
  S       -0.8349460    -1.1774250     0.0297960
  N       -0.1696500     1.2952110    -0.2577190
  C        1.7694220    -0.2160770    -0.5775760
  C        0.3234810     0.0737960    -0.3165740
  C        2.6425650     0.1799470     0.6157020
  C       -2.0442290     0.0157050     0.2553730
  C       -1.5907869     1.3009421     0.0777452
  H        1.8995250    -1.2779630    -0.8129470
  H        2.0693290     0.3522120    -1.4641890
  H        2.5091790     1.2412210     0.8363590
  H        3.6994690    -0.0050250     0.4023620
  H        2.3648890    -0.3937430     1.5043860
  H       -3.0646880    -0.2455350     0.5019360
  H       -2.0550810     2.1952630     0.1367680
units angstrom
no_reorient  #important for SAPT in psi4, default
symmetry c1  #important for SAPT in psi4, default
}

set PROPERTIES_ORIGIN ["COM"]
properties('MP2/aug-cc-pvtz', properties = ['dipole'])
--------------------------------------------------------------------------

    Molecular point group: c1
  Charge       = 0
  Multiplicity = 1
  Basis Set: AUG-CC-PVTZ
    Blend: AUG-CC-PVTZ
  Basis Set: (AUG-CC-PVTZ AUX)
    Blend: AUG-CC-PVTZ-JKFIT

    Orbital Energies [Eh]
    ---------------------

    Doubly Occupied:

       1A    -91.993777     2A    -15.567245     3A    -11.311105
       4A    -11.270260     5A    -11.266848     6A    -11.245626
       7A    -11.223650     8A     -8.994695     9A     -6.675675
      10A     -6.675038    11A     -6.674301    12A     -1.253645
      13A     -1.071392    14A     -1.053510    15A     -0.979658
      16A     -0.871862    17A     -0.793443    18A     -0.725415
      19A     -0.686447    20A     -0.627397    21A     -0.602381
      22A     -0.568454    23A     -0.550137    24A     -0.518640
      25A     -0.513233    26A     -0.510647    27A     -0.496307
      28A     -0.414712    29A     -0.380246    30A     -0.335044

  @DF-RHF Final Energy:  -645.47446023327893

   => Energetics <=

    Nuclear Repulsion Energy =            349.1587289437818526
    One-Electron Energy =               -1577.5648039557004267
    Two-Electron Energy =                 582.9316147786396414
    Total Energy =                       -645.4744602332789327
  Basis Set: (AUG-CC-PVTZ AUX)
    Blend: AUG-CC-PVTZ-RI
    Molecular point group: c1

    Geometry (in Angstrom), charge = 0, multiplicity = 1:

       Center              X                  Y                   Z               Mass
    ------------   -----------------  -----------------  -----------------  -----------------
         S           -0.760767013080    -1.165260182593     0.037642213427    31.972071174400
         N           -0.095471013080     1.307375817407    -0.249872786573    14.003074004430
         C            1.843600986920    -0.203912182593    -0.569729786573    12.000000000000
         C            0.397659986920     0.085960817407    -0.308727786573    12.000000000000
         C            2.716743986920     0.192111817407     0.623548213427    12.000000000000
         C           -1.970050013080     0.027869817407     0.263219213427    12.000000000000
         C           -1.516607913080     1.313106917407     0.085591413427    12.000000000000
         H            1.973703986920    -1.265798182593    -0.805100786573     1.007825032230
         H            2.143507986920     0.364376817407    -1.456342786573     1.007825032230
         H            2.583357986920     1.253385817407     0.844205213427     1.007825032230
         H            3.773647986920     0.007139817407     0.410208213427     1.007825032230
         H            2.439067986920    -0.381578182593     1.512232213427     1.007825032230
         H           -2.990509013080    -0.233370182593     0.509782213427     1.007825032230
         H           -1.980902013080     2.207427817407     0.144614213427     1.007825032230

  Basis Set: AUG-CC-PVTZ
    Blend: AUG-CC-PVTZ
  Basis Set: (AUG-CC-PVTZ AUX)
    Blend: AUG-CC-PVTZ-JKFIT
	 Reference Energy          =    -645.4744602332789327 [Eh]
	 Singles Energy            =      -0.0000000000000000 [Eh]
	 Same-Spin Energy          =      -0.3313547524426097 [Eh]
	 Opposite-Spin Energy      =      -1.0408557147217872 [Eh]
	 Correlation Energy        =      -1.3722104671643969 [Eh]
	 Total Energy              =    -646.8466707004433829 [Eh]

	 ================> DF-SCS-MP2 Energies <==================
	-----------------------------------------------------------
	 SCS Same-Spin Scale       =       0.3333333333333333 [-]
	 SCS Opposite-Spin Scale   =       1.2000000000000000 [-]
	 SCS Same-Spin Energy      =      -0.1104515841475366 [Eh]
	 SCS Opposite-Spin Energy  =      -1.2490268576661445 [Eh]
	 SCS Correlation Energy    =      -1.3594784418136812 [Eh]
	 SCS Total Energy          =    -646.8339386750926678 [Eh]
	-----------------------------------------------------------

  Dipole Moment: [D]
     X:    -0.3426      Y:    -1.2033      Z:     0.2729     Total:     1.2805

*** Psi4 exiting successfully. Buy a developer a beer!
