                               Psi4 1.3.2 release

  ==> Input File <==

--------------------------------------------------------------------------
#psi4
#
memory 32 gb

molecule  {
0 1
  S       -0.8349460    -1.1774250     0.0297960
  N       -0.1696500     1.2952110    -0.2577190
  C        1.7694220    -0.2160770    -0.5775760
  C        0.2486804     0.2590665    -0.3076466
  C        2.6425650     0.1799470     0.6157020
  C       -2.0442290     0.0157050     0.2553730
  C       -1.5038950     1.2642780     0.0601800
  H        1.8995250    -1.2779630    -0.8129470
  H        2.0693290     0.3522120    -1.4641890
  H        2.5091790     1.2412210     0.8363590
  H        3.6994690    -0.0050250     0.4023620
  H        2.3648890    -0.3937430     1.5043860
  H       -3.0646880    -0.2455350     0.5019360
  H       -2.0550810     2.1952630     0.1367680
units angstrom
no_reorient  #important for SAPT in psi4, default
symmetry c1  #important for SAPT in psi4, default
}

set PROPERTIES_ORIGIN ["COM"]
properties('MP2/aug-cc-pvtz', properties = ['dipole'])
--------------------------------------------------------------------------

    Molecular point group: c1
  Charge       = 0
  Multiplicity = 1
  Basis Set: AUG-CC-PVTZ
    Blend: AUG-CC-PVTZ
  Basis Set: (AUG-CC-PVTZ AUX)
    Blend: AUG-CC-PVTZ-JKFIT

    Orbital Energies [Eh]
    ---------------------

    Doubly Occupied:

       1A    -91.975424     2A    -15.555605     3A    -11.298342
       4A    -11.271842     5A    -11.268171     6A    -11.246818
       7A    -11.221828     8A     -8.976758     9A     -6.657675
      10A     -6.656871    11A     -6.656119    12A     -1.353545
      13A     -1.080252    14A     -1.049300    15A     -0.970907
      16A     -0.856114    17A     -0.814475    18A     -0.717221
      19A     -0.690878    20A     -0.624037    21A     -0.611499
      22A     -0.593404    23A     -0.563060    24A     -0.523032
      25A     -0.515281    26A     -0.503884    27A     -0.491017
      28A     -0.413131    29A     -0.393991    30A     -0.329281

  @DF-RHF Final Energy:  -645.43475011618375

   => Energetics <=

    Nuclear Repulsion Energy =            352.1962306035364918
    One-Electron Energy =               -1583.5024363194290800
    Two-Electron Energy =                 585.8714555997089519
    Total Energy =                       -645.4347501161837499
  Basis Set: (AUG-CC-PVTZ AUX)
    Blend: AUG-CC-PVTZ-RI
    Molecular point group: c1

    Geometry (in Angstrom), charge = 0, multiplicity = 1:

       Center              X                  Y                   Z               Mass
    ------------   -----------------  -----------------  -----------------  -----------------
         S           -0.762050705039    -1.181037215733     0.038559259105    31.972071174400
         N           -0.096754705039     1.291598784267    -0.248955740895    14.003074004430
         C            1.842317294961    -0.219689215733    -0.568812740895    12.000000000000
         C            0.321575694961     0.255454284267    -0.298883340895    12.000000000000
         C            2.715460294961     0.176334784267     0.624465259105    12.000000000000
         C           -1.971333705039     0.012092784267     0.264136259105    12.000000000000
         C           -1.430999705039     1.260665784267     0.068943259105    12.000000000000
         H            1.972420294961    -1.281575215733    -0.804183740895     1.007825032230
         H            2.142224294961     0.348599784267    -1.455425740895     1.007825032230
         H            2.582074294961     1.237608784267     0.845122259105     1.007825032230
         H            3.772364294961    -0.008637215733     0.411125259105     1.007825032230
         H            2.437784294961    -0.397355215733     1.513149259105     1.007825032230
         H           -2.991792705039    -0.249147215733     0.510699259105     1.007825032230
         H           -1.982185705039     2.191650784267     0.145531259105     1.007825032230

  Basis Set: AUG-CC-PVTZ
    Blend: AUG-CC-PVTZ
  Basis Set: (AUG-CC-PVTZ AUX)
    Blend: AUG-CC-PVTZ-JKFIT
	 Reference Energy          =    -645.4347501161837499 [Eh]
	 Singles Energy            =      -0.0000000000000000 [Eh]
	 Same-Spin Energy          =      -0.3277341357622783 [Eh]
	 Opposite-Spin Energy      =      -1.0343350793460113 [Eh]
	 Correlation Energy        =      -1.3620692151082896 [Eh]
	 Total Energy              =    -646.7968193312919993 [Eh]

	 ================> DF-SCS-MP2 Energies <==================
	-----------------------------------------------------------
	 SCS Same-Spin Scale       =       0.3333333333333333 [-]
	 SCS Opposite-Spin Scale   =       1.2000000000000000 [-]
	 SCS Same-Spin Energy      =      -0.1092447119207594 [Eh]
	 SCS Opposite-Spin Energy  =      -1.2412020952152136 [Eh]
	 SCS Correlation Energy    =      -1.3504468071359730 [Eh]
	 SCS Total Energy          =    -646.7851969233197451 [Eh]
	-----------------------------------------------------------

  Dipole Moment: [D]
     X:    -0.1470      Y:    -0.5914      Z:     0.1684     Total:     0.6322

*** Psi4 exiting successfully. Buy a developer a beer!
