                               Psi4 1.4a3.dev225

  ==> Input File <==

--------------------------------------------------------------------------
#psi4
#
memory 32 gb

molecule  {
0 1
  S       -0.8349460    -1.1774250     0.0297960
  N       -0.1696500     1.2952110    -0.2577190
  C        1.7694220    -0.2160770    -0.5775760
  C        0.3234810     0.0737960    -0.3165740
  C        2.6425650     0.1799470     0.6157020
  C       -2.0301160     0.0017805     0.2527404
  C       -1.5038950     1.2642780     0.0601800
  H        1.8995250    -1.2779630    -0.8129470
  H        2.0693290     0.3522120    -1.4641890
  H        2.5091790     1.2412210     0.8363590
  H        3.6994690    -0.0050250     0.4023620
  H        2.3648890    -0.3937430     1.5043860
  H       -3.0646880    -0.2455350     0.5019360
  H       -2.0550810     2.1952630     0.1367680
units angstrom
no_reorient  #important for SAPT in psi4, default
symmetry c1  #important for SAPT in psi4, default
}

set PROPERTIES_ORIGIN ["COM"]
properties('MP2/aug-cc-pvtz', properties = ['dipole'])
--------------------------------------------------------------------------

    Molecular point group: c1
  Charge       = 0
  Multiplicity = 1
  Basis Set: AUG-CC-PVTZ
    Blend: AUG-CC-PVTZ
  Basis Set: (AUG-CC-PVTZ AUX)
    Blend: AUG-CC-PVTZ-JKFIT

    Orbital Energies [Eh]
    ---------------------

    Doubly Occupied:

       1A    -91.994876     2A    -15.565348     3A    -11.311513
       4A    -11.269264     5A    -11.261280     6A    -11.245344
       7A    -11.223831     8A     -8.995971     9A     -6.676895
      10A     -6.676375    11A     -6.675638    12A     -1.275223
      13A     -1.071837    14A     -1.064953    15A     -0.973646
      16A     -0.869469    17A     -0.790504    18A     -0.729732
      19A     -0.680211    20A     -0.627932    21A     -0.601786
      22A     -0.571674    23A     -0.555751    24A     -0.518229
      25A     -0.512490    26A     -0.504388    27A     -0.497797
      28A     -0.425084    29A     -0.389063    30A     -0.326198

  @DF-RHF Final Energy:  -645.48482101668367

   => Energetics <=

    Nuclear Repulsion Energy =            351.3513107627887848
    One-Electron Energy =               -1581.9076628088910184
    Two-Electron Energy =                 585.0715310294186793
    Total Energy =                       -645.4848210166836679
  Basis Set: (AUG-CC-PVTZ AUX)
    Blend: AUG-CC-PVTZ-RI
    Molecular point group: c1

    Geometry (in Angstrom), charge = 0, multiplicity = 1:

       Center              X                  Y                   Z               Mass
    ------------   -----------------  -----------------  -----------------  -----------------
         S           -0.771490357798    -1.159889363983     0.039786544761    31.972071174400
         N           -0.106194357798     1.312746636017    -0.247728455239    14.003074004430
         C            1.832877642202    -0.198541363983    -0.567585455239    12.000000000000
         C            0.386936642202     0.091331636017    -0.306583455239    12.000000000000
         C            2.706020642202     0.197482636017     0.625692544761    12.000000000000
         C           -1.966660357798     0.019316136017     0.262730944761    12.000000000000
         C           -1.440439357798     1.281813636017     0.070170544761    12.000000000000
         H            1.962980642202    -1.260427363983    -0.802956455239     1.007825032230
         H            2.132784642202     0.369747636017    -1.454198455239     1.007825032230
         H            2.572634642202     1.258756636017     0.846349544761     1.007825032230
         H            3.762924642202     0.012510636017     0.412352544761     1.007825032230
         H            2.428344642202    -0.376207363983     1.514376544761     1.007825032230
         H           -3.001232357798    -0.227999363983     0.511926544761     1.007825032230
         H           -1.991625357798     2.212798636017     0.146758544761     1.007825032230

  Basis Set: AUG-CC-PVTZ
    Blend: AUG-CC-PVTZ
  Basis Set: (AUG-CC-PVTZ AUX)
    Blend: AUG-CC-PVTZ-JKFIT
	 Reference Energy          =    -645.4848210166836679 [Eh]
	 Singles Energy            =      -0.0000000000000000 [Eh]
	 Same-Spin Energy          =      -0.3327663094845980 [Eh]
	 Opposite-Spin Energy      =      -1.0400556054407446 [Eh]
	 Correlation Energy        =      -1.3728219149253427 [Eh]
	 Total Energy              =    -646.8576429316090071 [Eh]

	 ================> DF-SCS-MP2 Energies <==================
	-----------------------------------------------------------
	 SCS Same-Spin Scale       =       0.3333333333333333 [-]
	 SCS Opposite-Spin Scale   =       1.2000000000000000 [-]
	 SCS Same-Spin Energy      =      -0.1109221031615326 [Eh]
	 SCS Opposite-Spin Energy  =      -1.2480667265288934 [Eh]
	 SCS Correlation Energy    =      -1.3589888296904260 [Eh]
	 SCS Total Energy          =    -646.8438098463741426 [Eh]
	-----------------------------------------------------------

  Dipole Moment: [D]
     X:    -0.3379      Y:    -1.2719      Z:     0.2663     Total:     1.3427

*** Psi4 exiting successfully. Buy a developer a beer!
