                               Psi4 1.3.2 release

  ==> Input File <==

--------------------------------------------------------------------------
#psi4
#
memory 32 gb

molecule  {
0 1
  S       -0.8349460    -1.1774250     0.0297960
  N       -0.1696500     1.2952110    -0.2577190
  C        1.7694220    -0.2160770    -0.5775760
  C        0.3234810     0.0737960    -0.3165740
  C        2.6425650     0.1799470     0.6157020
  C       -2.1692977     0.0820933     0.2808022
  C       -1.5038950     1.2642780     0.0601800
  H        1.8995250    -1.2779630    -0.8129470
  H        2.0693290     0.3522120    -1.4641890
  H        2.5091790     1.2412210     0.8363590
  H        3.6994690    -0.0050250     0.4023620
  H        2.3648890    -0.3937430     1.5043860
  H       -3.0646880    -0.2455350     0.5019360
  H       -2.0550810     2.1952630     0.1367680
units angstrom
no_reorient  #important for SAPT in psi4, default
symmetry c1  #important for SAPT in psi4, default
}

set PROPERTIES_ORIGIN ["COM"]
properties('MP2/aug-cc-pvtz', properties = ['dipole'])
--------------------------------------------------------------------------

    Molecular point group: c1
  Charge       = 0
  Multiplicity = 1
  Basis Set: AUG-CC-PVTZ
    Blend: AUG-CC-PVTZ
  Basis Set: (AUG-CC-PVTZ AUX)
    Blend: AUG-CC-PVTZ-JKFIT

    Orbital Energies [Eh]
    ---------------------

    Doubly Occupied:

       1A    -91.989536     2A    -15.566544     3A    -11.320855
       4A    -11.277584     5A    -11.265559     6A    -11.248564
       7A    -11.226585     8A     -8.988585     9A     -6.669457
      10A     -6.668787    11A     -6.668283    12A     -1.271830
      13A     -1.074883    14A     -1.043740    15A     -0.980439
      16A     -0.873448    17A     -0.810937    18A     -0.730743
      19A     -0.686683    20A     -0.637119    21A     -0.603277
      22A     -0.579954    23A     -0.558621    24A     -0.519455
      25A     -0.513359    26A     -0.504217    27A     -0.467715
      28A     -0.424296    29A     -0.378962    30A     -0.338257

  @DF-RHF Final Energy:  -645.46816165358223

   => Energetics <=

    Nuclear Repulsion Energy =            348.1191949779786228
    One-Electron Energy =               -1575.3981681092745930
    Two-Electron Energy =                 581.8108114777137416
    Total Energy =                       -645.4681616535822286
  Basis Set: (AUG-CC-PVTZ AUX)
    Blend: AUG-CC-PVTZ-RI
    Molecular point group: c1

    Geometry (in Angstrom), charge = 0, multiplicity = 1:

       Center              X                  Y                   Z               Mass
    ------------   -----------------  -----------------  -----------------  -----------------
         S           -0.756713912818    -1.168415899227     0.036807319448    31.972071174400
         N           -0.091417912818     1.304220100773    -0.250707680552    14.003074004430
         C            1.847654087182    -0.207067899227    -0.570564680552    12.000000000000
         C            0.401713087182     0.082805100773    -0.309562680552    12.000000000000
         C            2.720797087182     0.188956100773     0.622713319448    12.000000000000
         C           -2.091065612818     0.091102400773     0.287813519448    12.000000000000
         C           -1.425662912818     1.273287100773     0.067191319448    12.000000000000
         H            1.977757087182    -1.268953899227    -0.805935680552     1.007825032230
         H            2.147561087182     0.361221100773    -1.457177680552     1.007825032230
         H            2.587411087182     1.250230100773     0.843370319448     1.007825032230
         H            3.777701087182     0.003984100773     0.409373319448     1.007825032230
         H            2.443121087182    -0.384733899227     1.511397319448     1.007825032230
         H           -2.986455912818    -0.236525899227     0.508947319448     1.007825032230
         H           -1.976848912818     2.204272100773     0.143779319448     1.007825032230

  Basis Set: AUG-CC-PVTZ
    Blend: AUG-CC-PVTZ
  Basis Set: (AUG-CC-PVTZ AUX)
    Blend: AUG-CC-PVTZ-JKFIT
	 Reference Energy          =    -645.4681616535822286 [Eh]
	 Singles Energy            =      -0.0000000000000000 [Eh]
	 Same-Spin Energy          =      -0.3307325281108568 [Eh]
	 Opposite-Spin Energy      =      -1.0396018247718453 [Eh]
	 Correlation Energy        =      -1.3703343528827021 [Eh]
	 Total Energy              =    -646.8384960064648794 [Eh]

	 ================> DF-SCS-MP2 Energies <==================
	-----------------------------------------------------------
	 SCS Same-Spin Scale       =       0.3333333333333333 [-]
	 SCS Opposite-Spin Scale   =       1.2000000000000000 [-]
	 SCS Same-Spin Energy      =      -0.1102441760369523 [Eh]
	 SCS Opposite-Spin Energy  =      -1.2475221897262143 [Eh]
	 SCS Correlation Energy    =      -1.3577663657631667 [Eh]
	 SCS Total Energy          =    -646.8259280193453833 [Eh]
	-----------------------------------------------------------

  Dipole Moment: [D]
     X:    -0.2891      Y:    -1.1074      Z:     0.2670     Total:     1.1752

*** Psi4 exiting successfully. Buy a developer a beer!
