                               Psi4 1.3.2 release

  ==> Input File <==

--------------------------------------------------------------------------
#psi4
#
memory 32 gb

molecule  {
0 1
  S       -0.8349460    -1.1774250     0.0297960
  N       -0.1696500     1.2952110    -0.2577190
  C        1.7694220    -0.2160770    -0.5775760
  C        0.2346347     0.1548466    -0.2996412
  C        2.6425650     0.1799470     0.6157020
  C       -2.0442290     0.0157050     0.2553730
  C       -1.5038950     1.2642780     0.0601800
  H        1.8995250    -1.2779630    -0.8129470
  H        2.0693290     0.3522120    -1.4641890
  H        2.5091790     1.2412210     0.8363590
  H        3.6994690    -0.0050250     0.4023620
  H        2.3648890    -0.3937430     1.5043860
  H       -3.0646880    -0.2455350     0.5019360
  H       -2.0550810     2.1952630     0.1367680
units angstrom
no_reorient  #important for SAPT in psi4, default
symmetry c1  #important for SAPT in psi4, default
}

set PROPERTIES_ORIGIN ["COM"]
properties('MP2/aug-cc-pvtz', properties = ['dipole'])
--------------------------------------------------------------------------

    Molecular point group: c1
  Charge       = 0
  Multiplicity = 1
  Basis Set: AUG-CC-PVTZ
    Blend: AUG-CC-PVTZ
  Basis Set: (AUG-CC-PVTZ AUX)
    Blend: AUG-CC-PVTZ-JKFIT

    Orbital Energies [Eh]
    ---------------------

    Doubly Occupied:

       1A    -91.988678     2A    -15.559488     3A    -11.302639
       4A    -11.270323     5A    -11.263542     6A    -11.245667
       7A    -11.220788     8A     -8.990322     9A     -6.671257
      10A     -6.670579    11A     -6.669786    12A     -1.315968
      13A     -1.075867    14A     -1.052888    15A     -0.975836
      16A     -0.855862    17A     -0.804825    18A     -0.724751
      19A     -0.685879    20A     -0.622265    21A     -0.599567
      22A     -0.580022    23A     -0.561296    24A     -0.517961
      25A     -0.507447    26A     -0.505528    27A     -0.492707
      28A     -0.418722    29A     -0.400886    30A     -0.333251

  @DF-RHF Final Energy:  -645.47303025008307

   => Energetics <=

    Nuclear Repulsion Energy =            352.0962347956275380
    One-Electron Energy =               -1583.3693348478605003
    Two-Electron Energy =                 585.8000698021500057
    Total Energy =                       -645.4730302500830703
  Basis Set: (AUG-CC-PVTZ AUX)
    Blend: AUG-CC-PVTZ-RI
    Molecular point group: c1

    Geometry (in Angstrom), charge = 0, multiplicity = 1:

       Center              X                  Y                   Z               Mass
    ------------   -----------------  -----------------  -----------------  -----------------
         S           -0.760559521118    -1.169972545462     0.037709353172    31.972071174400
         N           -0.095263521118     1.302663454538    -0.249805646828    14.003074004430
         C            1.843808478882    -0.208624545462    -0.569662646828    12.000000000000
         C            0.309021178882     0.162299054538    -0.291727846828    12.000000000000
         C            2.716951478882     0.187399454538     0.623615353172    12.000000000000
         C           -1.969842521118     0.023157454538     0.263286353172    12.000000000000
         C           -1.429508521118     1.271730454538     0.068093353172    12.000000000000
         H            1.973911478882    -1.270510545462    -0.805033646828     1.007825032230
         H            2.143715478882     0.359664454538    -1.456275646828     1.007825032230
         H            2.583565478882     1.248673454538     0.844272353172     1.007825032230
         H            3.773855478882     0.002427454538     0.410275353172     1.007825032230
         H            2.439275478882    -0.386290545462     1.512299353172     1.007825032230
         H           -2.990301521118    -0.238082545462     0.509849353172     1.007825032230
         H           -1.980694521118     2.202715454538     0.144681353172     1.007825032230

  Basis Set: AUG-CC-PVTZ
    Blend: AUG-CC-PVTZ
  Basis Set: (AUG-CC-PVTZ AUX)
    Blend: AUG-CC-PVTZ-JKFIT
	 Reference Energy          =    -645.4730302500830703 [Eh]
	 Singles Energy            =      -0.0000000000000000 [Eh]
	 Same-Spin Energy          =      -0.3293242573753898 [Eh]
	 Opposite-Spin Energy      =      -1.0360314832499815 [Eh]
	 Correlation Energy        =      -1.3653557406253714 [Eh]
	 Total Energy              =    -646.8383859907083888 [Eh]

	 ================> DF-SCS-MP2 Energies <==================
	-----------------------------------------------------------
	 SCS Same-Spin Scale       =       0.3333333333333333 [-]
	 SCS Opposite-Spin Scale   =       1.2000000000000000 [-]
	 SCS Same-Spin Energy      =      -0.1097747524584633 [Eh]
	 SCS Opposite-Spin Energy  =      -1.2432377798999779 [Eh]
	 SCS Correlation Energy    =      -1.3530125323584412 [Eh]
	 SCS Total Energy          =    -646.8260427824415046 [Eh]
	-----------------------------------------------------------

  Dipole Moment: [D]
     X:    -0.4080      Y:    -1.0997      Z:     0.2516     Total:     1.1997

*** Psi4 exiting successfully. Buy a developer a beer!
