                               Psi4 1.3.2 release

  ==> Input File <==

--------------------------------------------------------------------------
#psi4
#
memory 32 gb

molecule  {
0 1
  S       -0.8349460    -1.1774250     0.0297960
  N       -0.1696500     1.2952110    -0.2577190
  C        1.7694220    -0.2160770    -0.5775760
  C        0.3234810     0.0737960    -0.3165740
  C        2.6425650     0.1799470     0.6157020
  C       -2.0442290     0.0157050     0.2553730
  C       -1.5470381     1.2833823     0.0688490
  H        1.8995250    -1.2779630    -0.8129470
  H        2.0693290     0.3522120    -1.4641890
  H        2.5091790     1.2412210     0.8363590
  H        3.6994690    -0.0050250     0.4023620
  H        2.3648890    -0.3937430     1.5043860
  H       -3.0646880    -0.2455350     0.5019360
  H       -2.0550810     2.1952630     0.1367680
units angstrom
no_reorient  #important for SAPT in psi4, default
symmetry c1  #important for SAPT in psi4, default
}

set PROPERTIES_ORIGIN ["COM"]
properties('MP2/aug-cc-pvtz', properties = ['dipole'])
--------------------------------------------------------------------------

    Molecular point group: c1
  Charge       = 0
  Multiplicity = 1
  Basis Set: AUG-CC-PVTZ
    Blend: AUG-CC-PVTZ
  Basis Set: (AUG-CC-PVTZ AUX)
    Blend: AUG-CC-PVTZ-JKFIT

    Orbital Energies [Eh]
    ---------------------

    Doubly Occupied:

       1A    -91.993915     2A    -15.566316     3A    -11.311856
       4A    -11.269540     5A    -11.263901     6A    -11.245645
       7A    -11.223887     8A     -8.994756     9A     -6.675699
      10A     -6.675124    11A     -6.674398    12A     -1.263474
      13A     -1.071672    14A     -1.057395    15A     -0.977341
      16A     -0.870976    17A     -0.791499    18A     -0.727634
      19A     -0.683433    20A     -0.628357    21A     -0.602267
      22A     -0.570251    23A     -0.552916    24A     -0.517125
      25A     -0.511867    26A     -0.509517    27A     -0.497051
      28A     -0.419969    29A     -0.383673    30A     -0.331774

  @DF-RHF Final Energy:  -645.48302850943139

   => Energetics <=

    Nuclear Repulsion Energy =            350.0588498461584663
    One-Electron Energy =               -1579.3573030947102325
    Two-Electron Energy =                 583.8154247391204308
    Total Energy =                       -645.4830285094313922
  Basis Set: (AUG-CC-PVTZ AUX)
    Blend: AUG-CC-PVTZ-RI
    Molecular point group: c1

    Geometry (in Angstrom), charge = 0, multiplicity = 1:

       Center              X                  Y                   Z               Mass
    ------------   -----------------  -----------------  -----------------  -----------------
         S           -0.765411673521    -1.163395918695     0.038586692549    31.972071174400
         N           -0.100115673521     1.309240081305    -0.248928307451    14.003074004430
         C            1.838956326479    -0.202047918695    -0.568785307451    12.000000000000
         C            0.393015326479     0.087825081305    -0.307783307451    12.000000000000
         C            2.712099326479     0.193976081305     0.624492692549    12.000000000000
         C           -1.974694673521     0.029734081305     0.264163692549    12.000000000000
         C           -1.477503773521     1.297411381305     0.077639692549    12.000000000000
         H            1.969059326479    -1.263933918695    -0.804156307451     1.007825032230
         H            2.138863326479     0.366241081305    -1.455398307451     1.007825032230
         H            2.578713326479     1.255250081305     0.845149692549     1.007825032230
         H            3.769003326479     0.009004081305     0.411152692549     1.007825032230
         H            2.434423326479    -0.379713918695     1.513176692549     1.007825032230
         H           -2.995153673521    -0.231505918695     0.510726692549     1.007825032230
         H           -1.985546673521     2.209292081305     0.145558692549     1.007825032230

  Basis Set: AUG-CC-PVTZ
    Blend: AUG-CC-PVTZ
  Basis Set: (AUG-CC-PVTZ AUX)
    Blend: AUG-CC-PVTZ-JKFIT
	 Reference Energy          =    -645.4830285094313922 [Eh]
	 Singles Energy            =      -0.0000000000000000 [Eh]
	 Same-Spin Energy          =      -0.3317752323676654 [Eh]
	 Opposite-Spin Energy      =      -1.0401088608303595 [Eh]
	 Correlation Energy        =      -1.3718840931980250 [Eh]
	 Total Energy              =    -646.8549126026293834 [Eh]

	 ================> DF-SCS-MP2 Energies <==================
	-----------------------------------------------------------
	 SCS Same-Spin Scale       =       0.3333333333333333 [-]
	 SCS Opposite-Spin Scale   =       1.2000000000000000 [-]
	 SCS Same-Spin Energy      =      -0.1105917441225551 [Eh]
	 SCS Opposite-Spin Energy  =      -1.2481306329964312 [Eh]
	 SCS Correlation Energy    =      -1.3587223771189865 [Eh]
	 SCS Total Energy          =    -646.8417508865503578 [Eh]
	-----------------------------------------------------------

  Dipole Moment: [D]
     X:    -0.3413      Y:    -1.2239      Z:     0.2703     Total:     1.2990

*** Psi4 exiting successfully. Buy a developer a beer!
