                               Psi4 1.3.2 release

  ==> Input File <==

--------------------------------------------------------------------------
#psi4
#
memory 32 gb

molecule  {
0 1
  S       -0.8349460    -1.1774250     0.0297960
  N       -0.1275096     1.3117565    -0.2659971
  C        1.7694220    -0.2160770    -0.5775760
  C        0.3234810     0.0737960    -0.3165740
  C        2.6425650     0.1799470     0.6157020
  C       -2.0442290     0.0157050     0.2553730
  C       -1.5038950     1.2642780     0.0601800
  H        1.8995250    -1.2779630    -0.8129470
  H        2.0693290     0.3522120    -1.4641890
  H        2.5091790     1.2412210     0.8363590
  H        3.6994690    -0.0050250     0.4023620
  H        2.3648890    -0.3937430     1.5043860
  H       -3.0646880    -0.2455350     0.5019360
  H       -2.0550810     2.1952630     0.1367680
units angstrom
no_reorient  #important for SAPT in psi4, default
symmetry c1  #important for SAPT in psi4, default
}

set PROPERTIES_ORIGIN ["COM"]
properties('MP2/aug-cc-pvtz', properties = ['dipole'])
--------------------------------------------------------------------------

    Molecular point group: c1
  Charge       = 0
  Multiplicity = 1
  Basis Set: AUG-CC-PVTZ
    Blend: AUG-CC-PVTZ
  Basis Set: (AUG-CC-PVTZ AUX)
    Blend: AUG-CC-PVTZ-JKFIT

    Orbital Energies [Eh]
    ---------------------

    Doubly Occupied:

       1A    -91.994696     2A    -15.570075     3A    -11.313059
       4A    -11.273439     5A    -11.263579     6A    -11.244295
       7A    -11.223575     8A     -8.995548     9A     -6.676488
      10A     -6.675922    11A     -6.675180    12A     -1.266666
      13A     -1.072018    14A     -1.061201    15A     -0.973315
      16A     -0.869649    17A     -0.788286    18A     -0.728589
      19A     -0.678943    20A     -0.628099    21A     -0.599572
      22A     -0.567495    23A     -0.555013    24A     -0.516933
      25A     -0.510319    26A     -0.505378    27A     -0.495596
      28A     -0.429834    29A     -0.386504    30A     -0.331274

  @DF-RHF Final Energy:  -645.48337851532267

   => Energetics <=

    Nuclear Repulsion Energy =            350.2428917036683060
    One-Electron Energy =               -1579.7114567279443236
    Two-Electron Energy =                 583.9851865089532339
    Total Energy =                       -645.4833785153226700
  Basis Set: (AUG-CC-PVTZ AUX)
    Blend: AUG-CC-PVTZ-RI
    Molecular point group: c1

    Geometry (in Angstrom), charge = 0, multiplicity = 1:

       Center              X                  Y                   Z               Mass
    ------------   -----------------  -----------------  -----------------  -----------------
         S           -0.775212727400    -1.163417472819     0.040532609579    31.972071174400
         N           -0.067776327400     1.325764027181    -0.255260490421    14.003074004430
         C            1.829155272600    -0.202069472819    -0.566839390421    12.000000000000
         C            0.383214272600     0.087803527181    -0.305837390421    12.000000000000
         C            2.702298272600     0.193954527181     0.626438609579    12.000000000000
         C           -1.984495727400     0.029712527181     0.266109609579    12.000000000000
         C           -1.444161727400     1.278285527181     0.070916609579    12.000000000000
         H            1.959258272600    -1.263955472819    -0.802210390421     1.007825032230
         H            2.129062272600     0.366219527181    -1.453452390421     1.007825032230
         H            2.568912272600     1.255228527181     0.847095609579     1.007825032230
         H            3.759202272600     0.008982527181     0.413098609579     1.007825032230
         H            2.424622272600    -0.379735472819     1.515122609579     1.007825032230
         H           -3.004954727400    -0.231527472819     0.512672609579     1.007825032230
         H           -1.995347727400     2.209270527181     0.147504609579     1.007825032230

  Basis Set: AUG-CC-PVTZ
    Blend: AUG-CC-PVTZ
  Basis Set: (AUG-CC-PVTZ AUX)
    Blend: AUG-CC-PVTZ-JKFIT
	 Reference Energy          =    -645.4833785153226700 [Eh]
	 Singles Energy            =      -0.0000000000000000 [Eh]
	 Same-Spin Energy          =      -0.3317825630911858 [Eh]
	 Opposite-Spin Energy      =      -1.0402647973581911 [Eh]
	 Correlation Energy        =      -1.3720473604493768 [Eh]
	 Total Energy              =    -646.8554258757720845 [Eh]

	 ================> DF-SCS-MP2 Energies <==================
	-----------------------------------------------------------
	 SCS Same-Spin Scale       =       0.3333333333333333 [-]
	 SCS Opposite-Spin Scale   =       1.2000000000000000 [-]
	 SCS Same-Spin Energy      =      -0.1105941876970619 [Eh]
	 SCS Opposite-Spin Energy  =      -1.2483177568298294 [Eh]
	 SCS Correlation Energy    =      -1.3589119445268913 [Eh]
	 SCS Total Energy          =    -646.8422904598495506 [Eh]
	-----------------------------------------------------------

  Dipole Moment: [D]
     X:    -0.4142      Y:    -1.2946      Z:     0.2839     Total:     1.3886

*** Psi4 exiting successfully. Buy a developer a beer!
