                               Psi4 1.3.2 release

  ==> Input File <==

--------------------------------------------------------------------------
#psi4
#
memory 32 gb

molecule  {
0 1
  S       -0.8349460    -1.1774250     0.0297960
  N       -0.1696500     1.2952110    -0.2577190
  C        1.7694220    -0.2160770    -0.5775760
  C        0.2396561     0.0423900    -0.2952004
  C        2.6425650     0.1799470     0.6157020
  C       -2.0442290     0.0157050     0.2553730
  C       -1.5038950     1.2642780     0.0601800
  H        1.8995250    -1.2779630    -0.8129470
  H        2.0693290     0.3522120    -1.4641890
  H        2.5091790     1.2412210     0.8363590
  H        3.6994690    -0.0050250     0.4023620
  H        2.3648890    -0.3937430     1.5043860
  H       -3.0646880    -0.2455350     0.5019360
  H       -2.0550810     2.1952630     0.1367680
units angstrom
no_reorient  #important for SAPT in psi4, default
symmetry c1  #important for SAPT in psi4, default
}

set PROPERTIES_ORIGIN ["COM"]
properties('MP2/aug-cc-pvtz', properties = ['dipole'])
--------------------------------------------------------------------------

    Molecular point group: c1
  Charge       = 0
  Multiplicity = 1
  Basis Set: AUG-CC-PVTZ
    Blend: AUG-CC-PVTZ
  Basis Set: (AUG-CC-PVTZ AUX)
    Blend: AUG-CC-PVTZ-JKFIT

    Orbital Energies [Eh]
    ---------------------

    Doubly Occupied:

       1A    -91.998772     2A    -15.563547     3A    -11.306957
       4A    -11.269458     5A    -11.258672     6A    -11.246424
       7A    -11.220964     8A     -9.001215     9A     -6.682263
      10A     -6.681518    11A     -6.680789    12A     -1.281626
      13A     -1.073954    14A     -1.057812    15A     -0.978388
      16A     -0.858837    17A     -0.792606    18A     -0.731801
      19A     -0.681208    20A     -0.622698    21A     -0.594533
      22A     -0.568841    23A     -0.559323    24A     -0.518400
      25A     -0.508722    26A     -0.496457    27A     -0.494575
      28A     -0.435458    29A     -0.389226    30A     -0.332970

  @DF-RHF Final Energy:  -645.47828795163480

   => Energetics <=

    Nuclear Repulsion Energy =            351.9856302386937159
    One-Electron Energy =               -1583.1518035687577139
    Two-Electron Energy =                 585.6878853784290868
    Total Energy =                       -645.4782879516347975
  Basis Set: (AUG-CC-PVTZ AUX)
    Blend: AUG-CC-PVTZ-RI
    Molecular point group: c1

    Geometry (in Angstrom), charge = 0, multiplicity = 1:

       Center              X                  Y                   Z               Mass
    ------------   -----------------  -----------------  -----------------  -----------------
         S           -0.761092625978    -1.158033412928     0.037237888627    31.972071174400
         N           -0.095796625978     1.314602587072    -0.250277111373    14.003074004430
         C            1.843275374022    -0.196685412928    -0.570134111373    12.000000000000
         C            0.313509474022     0.061781587072    -0.287758511373    12.000000000000
         C            2.716418374022     0.199338587072     0.623143888627    12.000000000000
         C           -1.970375625978     0.035096587072     0.262814888627    12.000000000000
         C           -1.430041625978     1.283669587072     0.067621888627    12.000000000000
         H            1.973378374022    -1.258571412928    -0.805505111373     1.007825032230
         H            2.143182374022     0.371603587072    -1.456747111373     1.007825032230
         H            2.583032374022     1.260612587072     0.843800888627     1.007825032230
         H            3.773322374022     0.014366587072     0.409803888627     1.007825032230
         H            2.438742374022    -0.374351412928     1.511827888627     1.007825032230
         H           -2.990834625978    -0.226143412928     0.509377888627     1.007825032230
         H           -1.981227625978     2.214654587072     0.144209888627     1.007825032230

  Basis Set: AUG-CC-PVTZ
    Blend: AUG-CC-PVTZ
  Basis Set: (AUG-CC-PVTZ AUX)
    Blend: AUG-CC-PVTZ-JKFIT
	 Reference Energy          =    -645.4782879516347975 [Eh]
	 Singles Energy            =      -0.0000000000000000 [Eh]
	 Same-Spin Energy          =      -0.3322171740923295 [Eh]
	 Opposite-Spin Energy      =      -1.0393801451652305 [Eh]
	 Correlation Energy        =      -1.3715973192575599 [Eh]
	 Total Energy              =    -646.8498852708924005 [Eh]

	 ================> DF-SCS-MP2 Energies <==================
	-----------------------------------------------------------
	 SCS Same-Spin Scale       =       0.3333333333333333 [-]
	 SCS Opposite-Spin Scale   =       1.2000000000000000 [-]
	 SCS Same-Spin Energy      =      -0.1107390580307765 [Eh]
	 SCS Opposite-Spin Energy  =      -1.2472561741982766 [Eh]
	 SCS Correlation Energy    =      -1.3579952322290532 [Eh]
	 SCS Total Energy          =    -646.8362831838638840 [Eh]
	-----------------------------------------------------------

  Dipole Moment: [D]
     X:    -0.5629      Y:    -1.4364      Z:     0.3091     Total:     1.5734

*** Psi4 exiting successfully. Buy a developer a beer!
