                               Psi4 1.3.2 release

  ==> Input File <==

--------------------------------------------------------------------------
#psi4
#
memory 32 gb

molecule  {
0 1
  S       -0.8349460    -1.1774250     0.0297960
  N       -0.1688342     1.2473896    -0.2553414
  C        1.7694220    -0.2160770    -0.5775760
  C        0.3234810     0.0737960    -0.3165740
  C        2.6425650     0.1799470     0.6157020
  C       -2.0442290     0.0157050     0.2553730
  C       -1.5038950     1.2642780     0.0601800
  H        1.8995250    -1.2779630    -0.8129470
  H        2.0693290     0.3522120    -1.4641890
  H        2.5091790     1.2412210     0.8363590
  H        3.6994690    -0.0050250     0.4023620
  H        2.3648890    -0.3937430     1.5043860
  H       -3.0646880    -0.2455350     0.5019360
  H       -2.0550810     2.1952630     0.1367680
units angstrom
no_reorient  #important for SAPT in psi4, default
symmetry c1  #important for SAPT in psi4, default
}

set PROPERTIES_ORIGIN ["COM"]
properties('MP2/aug-cc-pvtz', properties = ['dipole'])
--------------------------------------------------------------------------

    Molecular point group: c1
  Charge       = 0
  Multiplicity = 1
  Basis Set: AUG-CC-PVTZ
    Blend: AUG-CC-PVTZ
  Basis Set: (AUG-CC-PVTZ AUX)
    Blend: AUG-CC-PVTZ-JKFIT

    Orbital Energies [Eh]
    ---------------------

    Doubly Occupied:

       1A    -91.989555     2A    -15.559305     3A    -11.305762
       4A    -11.269521     5A    -11.262678     6A    -11.244477
       7A    -11.223707     8A     -8.990740     9A     -6.671646
      10A     -6.671162    11A     -6.670390    12A     -1.287655
      13A     -1.073170    14A     -1.060061    15A     -0.978172
      16A     -0.870037    17A     -0.797149    18A     -0.727177
      19A     -0.682882    20A     -0.629271    21A     -0.605734
      22A     -0.577602    23A     -0.558527    24A     -0.519868
      25A     -0.512829    26A     -0.502730    27A     -0.496062
      28A     -0.416006    29A     -0.388663    30A     -0.331368

  @DF-RHF Final Energy:  -645.48764744113214

   => Energetics <=

    Nuclear Repulsion Energy =            352.2862115817230801
    One-Electron Energy =               -1583.7999053948453820
    Two-Electron Energy =                 586.0260463719901054
    Total Energy =                       -645.4876474411321396
  Basis Set: (AUG-CC-PVTZ AUX)
    Blend: AUG-CC-PVTZ-RI
    Molecular point group: c1

    Geometry (in Angstrom), charge = 0, multiplicity = 1:

       Center              X                  Y                   Z               Mass
    ------------   -----------------  -----------------  -----------------  -----------------
         S           -0.770093096864    -1.155443173086     0.039212494027    31.972071174400
         N           -0.103981296864     1.269371426914    -0.245924905973    14.003074004430
         C            1.834274903136    -0.194095173086    -0.568159505973    12.000000000000
         C            0.388333903136     0.095777826914    -0.307157505973    12.000000000000
         C            2.707417903136     0.201928826914     0.625118494027    12.000000000000
         C           -1.979376096864     0.037686826914     0.264789494027    12.000000000000
         C           -1.439042096864     1.286259826914     0.069596494027    12.000000000000
         H            1.964377903136    -1.255981173086    -0.803530505973     1.007825032230
         H            2.134181903136     0.374193826914    -1.454772505973     1.007825032230
         H            2.574031903136     1.263202826914     0.845775494027     1.007825032230
         H            3.764321903136     0.016956826914     0.411778494027     1.007825032230
         H            2.429741903136    -0.371761173086     1.513802494027     1.007825032230
         H           -2.999835096864    -0.223553173086     0.511352494027     1.007825032230
         H           -1.990228096864     2.217244826914     0.146184494027     1.007825032230

  Basis Set: AUG-CC-PVTZ
    Blend: AUG-CC-PVTZ
  Basis Set: (AUG-CC-PVTZ AUX)
    Blend: AUG-CC-PVTZ-JKFIT
	 Reference Energy          =    -645.4876474411321396 [Eh]
	 Singles Energy            =      -0.0000000000000000 [Eh]
	 Same-Spin Energy          =      -0.3313587444693586 [Eh]
	 Opposite-Spin Energy      =      -1.0378157457401589 [Eh]
	 Correlation Energy        =      -1.3691744902095175 [Eh]
	 Total Energy              =    -646.8568219313416421 [Eh]

	 ================> DF-SCS-MP2 Energies <==================
	-----------------------------------------------------------
	 SCS Same-Spin Scale       =       0.3333333333333333 [-]
	 SCS Opposite-Spin Scale   =       1.2000000000000000 [-]
	 SCS Same-Spin Energy      =      -0.1104529148231195 [Eh]
	 SCS Opposite-Spin Energy  =      -1.2453788948881905 [Eh]
	 SCS Correlation Energy    =      -1.3558318097113100 [Eh]
	 SCS Total Energy          =    -646.8434792508434157 [Eh]
	-----------------------------------------------------------

  Dipole Moment: [D]
     X:    -0.3009      Y:    -1.0700      Z:     0.2487     Total:     1.1390

*** Psi4 exiting successfully. Buy a developer a beer!
