                               Psi4 1.4a3.dev225

  ==> Input File <==

--------------------------------------------------------------------------
#psi4
#
memory 32 gb

molecule  {
0 1
  S       -0.8349460    -1.1774250     0.0297960
  N       -0.1696500     1.2952110    -0.2577190
  C        1.7694220    -0.2160770    -0.5775760
  C        0.3234810     0.0737960    -0.3165740
  C        2.6425650     0.1799470     0.6157020
  C       -2.0442290     0.0157050     0.2553730
  C       -1.5233455     1.2638271     0.0648143
  H        1.8995250    -1.2779630    -0.8129470
  H        2.0693290     0.3522120    -1.4641890
  H        2.5091790     1.2412210     0.8363590
  H        3.6994690    -0.0050250     0.4023620
  H        2.3648890    -0.3937430     1.5043860
  H       -3.0646880    -0.2455350     0.5019360
  H       -2.0550810     2.1952630     0.1367680
units angstrom
no_reorient  #important for SAPT in psi4, default
symmetry c1  #important for SAPT in psi4, default
}

set PROPERTIES_ORIGIN ["COM"]
properties('MP2/aug-cc-pvtz', properties = ['dipole'])
--------------------------------------------------------------------------

    Molecular point group: c1
  Charge       = 0
  Multiplicity = 1
  Basis Set: AUG-CC-PVTZ
    Blend: AUG-CC-PVTZ
  Basis Set: (AUG-CC-PVTZ AUX)
    Blend: AUG-CC-PVTZ-JKFIT

    Orbital Energies [Eh]
    ---------------------

    Doubly Occupied:

       1A    -91.993684     2A    -15.565627     3A    -11.312473
       4A    -11.268676     5A    -11.261321     6A    -11.245722
       7A    -11.224133     8A     -8.994534     9A     -6.675457
      10A     -6.674920    11A     -6.674189    12A     -1.270140
      13A     -1.072487    14A     -1.060007    15A     -0.976553
      16A     -0.870726    17A     -0.790721    18A     -0.728777
      19A     -0.681871    20A     -0.628458    21A     -0.601941
      22A     -0.570445    23A     -0.554945    24A     -0.518119
      25A     -0.512022    26A     -0.506338    27A     -0.496795
      28A     -0.423286    29A     -0.385539    30A     -0.331374

  @DF-RHF Final Energy:  -645.48597446211511

   => Energetics <=

    Nuclear Repulsion Energy =            350.7348608810229393
    One-Electron Energy =               -1580.6991100798836669
    Two-Electron Energy =                 584.4782747367455613
    Total Energy =                       -645.4859744621151094
  Basis Set: (AUG-CC-PVTZ AUX)
    Blend: AUG-CC-PVTZ-RI
    Molecular point group: c1

    Geometry (in Angstrom), charge = 0, multiplicity = 1:

       Center              X                  Y                   Z               Mass
    ------------   -----------------  -----------------  -----------------  -----------------
         S           -0.767927035816    -1.161319810005     0.039015042847    31.972071174400
         N           -0.102631035816     1.311316189995    -0.248499957153    14.003074004430
         C            1.836440964184    -0.199971810005    -0.568356957153    12.000000000000
         C            0.390499964184     0.089901189995    -0.307354957153    12.000000000000
         C            2.709583964184     0.196052189995     0.624921042847    12.000000000000
         C           -1.977210035816     0.031810189995     0.264592042847    12.000000000000
         C           -1.456326535816     1.279932289995     0.074033342847    12.000000000000
         H            1.966543964184    -1.261857810005    -0.803727957153     1.007825032230
         H            2.136347964184     0.368317189995    -1.454969957153     1.007825032230
         H            2.576197964184     1.257326189995     0.845578042847     1.007825032230
         H            3.766487964184     0.011080189995     0.411581042847     1.007825032230
         H            2.431907964184    -0.377637810005     1.513605042847     1.007825032230
         H           -2.997669035816    -0.229429810005     0.511155042847     1.007825032230
         H           -1.988062035816     2.211368189995     0.145987042847     1.007825032230

  Basis Set: AUG-CC-PVTZ
    Blend: AUG-CC-PVTZ
  Basis Set: (AUG-CC-PVTZ AUX)
    Blend: AUG-CC-PVTZ-JKFIT
	 Reference Energy          =    -645.4859744621151094 [Eh]
	 Singles Energy            =      -0.0000000000000000 [Eh]
	 Same-Spin Energy          =      -0.3318887630900568 [Eh]
	 Opposite-Spin Energy      =      -1.0395569971099228 [Eh]
	 Correlation Energy        =      -1.3714457601999794 [Eh]
	 Total Energy              =    -646.8574202223151133 [Eh]

	 ================> DF-SCS-MP2 Energies <==================
	-----------------------------------------------------------
	 SCS Same-Spin Scale       =       0.3333333333333333 [-]
	 SCS Opposite-Spin Scale   =       1.2000000000000000 [-]
	 SCS Same-Spin Energy      =      -0.1106295876966856 [Eh]
	 SCS Opposite-Spin Energy  =      -1.2474683965319073 [Eh]
	 SCS Correlation Energy    =      -1.3580979842285930 [Eh]
	 SCS Total Energy          =    -646.8440724463437164 [Eh]
	-----------------------------------------------------------

  Dipole Moment: [D]
     X:    -0.3355      Y:    -1.2420      Z:     0.2687     Total:     1.3142

*** Psi4 exiting successfully. Buy a developer a beer!
