                               Psi4 1.3.2 release

  ==> Input File <==

--------------------------------------------------------------------------
#psi4
#
memory 32 gb

molecule  {
0 1
  S       -0.8349460    -1.1774250     0.0297960
  N       -0.1696500     1.2952110    -0.2577190
  C        1.7694220    -0.2160770    -0.5775760
  C        0.1303837     0.1125069    -0.2817186
  C        2.6425650     0.1799470     0.6157020
  C       -2.0442290     0.0157050     0.2553730
  C       -1.5038950     1.2642780     0.0601800
  H        1.8995250    -1.2779630    -0.8129470
  H        2.0693290     0.3522120    -1.4641890
  H        2.5091790     1.2412210     0.8363590
  H        3.6994690    -0.0050250     0.4023620
  H        2.3648890    -0.3937430     1.5043860
  H       -3.0646880    -0.2455350     0.5019360
  H       -2.0550810     2.1952630     0.1367680
units angstrom
no_reorient  #important for SAPT in psi4, default
symmetry c1  #important for SAPT in psi4, default
}

set PROPERTIES_ORIGIN ["COM"]
properties('MP2/aug-cc-pvtz', properties = ['dipole'])
--------------------------------------------------------------------------

    Molecular point group: c1
  Charge       = 0
  Multiplicity = 1
  Basis Set: AUG-CC-PVTZ
    Blend: AUG-CC-PVTZ
  Basis Set: (AUG-CC-PVTZ AUX)
    Blend: AUG-CC-PVTZ-JKFIT

    Orbital Energies [Eh]
    ---------------------

    Doubly Occupied:

       1A    -91.995841     2A    -15.559053     3A    -11.299317
       4A    -11.271351     5A    -11.260589     6A    -11.243503
       7A    -11.217115     8A     -8.999428     9A     -6.680514
      10A     -6.679575    11A     -6.678724    12A     -1.322108
      13A     -1.090869    14A     -1.041589    15A     -0.979258
      16A     -0.843866    17A     -0.804425    18A     -0.729712
      19A     -0.686148    20A     -0.615533    21A     -0.596376
      22A     -0.576977    23A     -0.562816    24A     -0.518755
      25A     -0.508537    26A     -0.495366    27A     -0.489473
      28A     -0.418816    29A     -0.401207    30A     -0.338754

  @DF-RHF Final Energy:  -645.44729955163291

   => Energetics <=

    Nuclear Repulsion Energy =            353.3379730855573939
    One-Electron Energy =               -1585.7593575570419944
    Two-Electron Energy =                 586.9740849198516344
    Total Energy =                       -645.4472995516329092
  Basis Set: (AUG-CC-PVTZ AUX)
    Blend: AUG-CC-PVTZ-RI
    Molecular point group: c1

    Geometry (in Angstrom), charge = 0, multiplicity = 1:

       Center              X                  Y                   Z               Mass
    ------------   -----------------  -----------------  -----------------  -----------------
         S           -0.749491549066    -1.165477484347     0.035806572039    31.972071174400
         N           -0.084195549066     1.307158515653    -0.251708427961    14.003074004430
         C            1.854876450934    -0.204129484347    -0.571565427961    12.000000000000
         C            0.215838150934     0.124454415653    -0.275708027961    12.000000000000
         C            2.728019450934     0.191894515653     0.621712572039    12.000000000000
         C           -1.958774549066     0.027652515653     0.261383572039    12.000000000000
         C           -1.418440549066     1.276225515653     0.066190572039    12.000000000000
         H            1.984979450934    -1.266015484347    -0.806936427961     1.007825032230
         H            2.154783450934     0.364159515653    -1.458178427961     1.007825032230
         H            2.594633450934     1.253168515653     0.842369572039     1.007825032230
         H            3.784923450934     0.006922515653     0.408372572039     1.007825032230
         H            2.450343450934    -0.381795484347     1.510396572039     1.007825032230
         H           -2.979233549066    -0.233587484347     0.507946572039     1.007825032230
         H           -1.969626549066     2.207210515653     0.142778572039     1.007825032230

  Basis Set: AUG-CC-PVTZ
    Blend: AUG-CC-PVTZ
  Basis Set: (AUG-CC-PVTZ AUX)
    Blend: AUG-CC-PVTZ-JKFIT
	 Reference Energy          =    -645.4472995516329092 [Eh]
	 Singles Energy            =      -0.0000000000000000 [Eh]
	 Same-Spin Energy          =      -0.3303554120224874 [Eh]
	 Opposite-Spin Energy      =      -1.0376878694302372 [Eh]
	 Correlation Energy        =      -1.3680432814527246 [Eh]
	 Total Energy              =    -646.8153428330856514 [Eh]

	 ================> DF-SCS-MP2 Energies <==================
	-----------------------------------------------------------
	 SCS Same-Spin Scale       =       0.3333333333333333 [-]
	 SCS Opposite-Spin Scale   =       1.2000000000000000 [-]
	 SCS Same-Spin Energy      =      -0.1101184706741625 [Eh]
	 SCS Opposite-Spin Energy  =      -1.2452254433162846 [Eh]
	 SCS Correlation Energy    =      -1.3553439139904471 [Eh]
	 SCS Total Energy          =    -646.8026434656233050 [Eh]
	-----------------------------------------------------------

  Dipole Moment: [D]
     X:    -0.7344      Y:    -1.3823      Z:     0.3207     Total:     1.5978

*** Psi4 exiting successfully. Buy a developer a beer!
