                               Psi4 1.3.2 release

  ==> Input File <==

--------------------------------------------------------------------------
#psi4
#
memory 32 gb

molecule  {
0 1
  S       -0.8349460    -1.1774250     0.0297960
  N       -0.1696500     1.2952110    -0.2577190
  C        1.7694220    -0.2160770    -0.5775760
  C        0.2947142     0.0168387    -0.4597590
  C        2.6425650     0.1799470     0.6157020
  C       -2.0442290     0.0157050     0.2553730
  C       -1.5038950     1.2642780     0.0601800
  H        1.8995250    -1.2779630    -0.8129470
  H        2.0693290     0.3522120    -1.4641890
  H        2.5091790     1.2412210     0.8363590
  H        3.6994690    -0.0050250     0.4023620
  H        2.3648890    -0.3937430     1.5043860
  H       -3.0646880    -0.2455350     0.5019360
  H       -2.0550810     2.1952630     0.1367680
units angstrom
no_reorient  #important for SAPT in psi4, default
symmetry c1  #important for SAPT in psi4, default
}

set PROPERTIES_ORIGIN ["COM"]
properties('MP2/aug-cc-pvtz', properties = ['dipole'])
--------------------------------------------------------------------------

    Molecular point group: c1
  Charge       = 0
  Multiplicity = 1
  Basis Set: AUG-CC-PVTZ
    Blend: AUG-CC-PVTZ
  Basis Set: (AUG-CC-PVTZ AUX)
    Blend: AUG-CC-PVTZ-JKFIT

    Orbital Energies [Eh]
    ---------------------

    Doubly Occupied:

       1A    -91.999541     2A    -15.569264     3A    -11.315105
       4A    -11.269857     5A    -11.261563     6A    -11.245258
       7A    -11.224816     8A     -9.000253     9A     -6.681147
      10A     -6.680651    11A     -6.679975    12A     -1.261288
      13A     -1.070184    14A     -1.060407    15A     -0.975969
      16A     -0.873141    17A     -0.784986    18A     -0.730162
      19A     -0.677732    20A     -0.627790    21A     -0.599178
      22A     -0.567917    23A     -0.552453    24A     -0.527950
      25A     -0.505788    26A     -0.497874    27A     -0.496240
      28A     -0.428422    29A     -0.382261    30A     -0.328418

  @DF-RHF Final Energy:  -645.47167589078947

   => Energetics <=

    Nuclear Repulsion Energy =            350.2550019306769400
    One-Electron Energy =               -1579.7021774778095278
    Two-Electron Energy =                 583.9754996563432314
    Total Energy =                       -645.4716758907894700
  Basis Set: (AUG-CC-PVTZ AUX)
    Blend: AUG-CC-PVTZ-RI
    Molecular point group: c1

    Geometry (in Angstrom), charge = 0, multiplicity = 1:

       Center              X                  Y                   Z               Mass
    ------------   -----------------  -----------------  -----------------  -----------------
         S           -0.766937956114    -1.155320718812     0.054708512272    31.972071174400
         N           -0.101641956114     1.317315281188    -0.232806487728    14.003074004430
         C            1.837430043886    -0.193972718812    -0.552663487728    12.000000000000
         C            0.362722243886     0.038942981188    -0.434846487728    12.000000000000
         C            2.710573043886     0.202051281188     0.640614512272    12.000000000000
         C           -1.976220956114     0.037809281188     0.280285512272    12.000000000000
         C           -1.435886956114     1.286382281188     0.085092512272    12.000000000000
         H            1.967533043886    -1.255858718812    -0.788034487728     1.007825032230
         H            2.137337043886     0.374316281188    -1.439276487728     1.007825032230
         H            2.577187043886     1.263325281188     0.861271512272     1.007825032230
         H            3.767477043886     0.017079281188     0.427274512272     1.007825032230
         H            2.432897043886    -0.371638718812     1.529298512272     1.007825032230
         H           -2.996679956114    -0.223430718812     0.526848512272     1.007825032230
         H           -1.987072956114     2.217367281188     0.161680512272     1.007825032230

  Basis Set: AUG-CC-PVTZ
    Blend: AUG-CC-PVTZ
  Basis Set: (AUG-CC-PVTZ AUX)
    Blend: AUG-CC-PVTZ-JKFIT
	 Reference Energy          =    -645.4716758907894700 [Eh]
	 Singles Energy            =      -0.0000000000000000 [Eh]
	 Same-Spin Energy          =      -0.3343413854873146 [Eh]
	 Opposite-Spin Energy      =      -1.0430313154510875 [Eh]
	 Correlation Energy        =      -1.3773727009384023 [Eh]
	 Total Energy              =    -646.8490485917278647 [Eh]

	 ================> DF-SCS-MP2 Energies <==================
	-----------------------------------------------------------
	 SCS Same-Spin Scale       =       0.3333333333333333 [-]
	 SCS Opposite-Spin Scale   =       1.2000000000000000 [-]
	 SCS Same-Spin Energy      =      -0.1114471284957715 [Eh]
	 SCS Opposite-Spin Energy  =      -1.2516375785413050 [Eh]
	 SCS Correlation Energy    =      -1.3630847070370766 [Eh]
	 SCS Total Energy          =    -646.8347605978265165 [Eh]
	-----------------------------------------------------------

  Dipole Moment: [D]
     X:    -0.4789      Y:    -1.3088      Z:     0.4026     Total:     1.4506

*** Psi4 exiting successfully. Buy a developer a beer!
