                               Psi4 1.3.2 release

  ==> Input File <==

--------------------------------------------------------------------------
#psi4
#
memory 32 gb

molecule  {
0 1
  S       -0.8150270    -1.1558132     0.0242512
  N       -0.1696500     1.2952110    -0.2577190
  C        1.7694220    -0.2160770    -0.5775760
  C        0.3234810     0.0737960    -0.3165740
  C        2.6425650     0.1799470     0.6157020
  C       -2.0442290     0.0157050     0.2553730
  C       -1.5038950     1.2642780     0.0601800
  H        1.8995250    -1.2779630    -0.8129470
  H        2.0693290     0.3522120    -1.4641890
  H        2.5091790     1.2412210     0.8363590
  H        3.6994690    -0.0050250     0.4023620
  H        2.3648890    -0.3937430     1.5043860
  H       -3.0646880    -0.2455350     0.5019360
  H       -2.0550810     2.1952630     0.1367680
units angstrom
no_reorient  #important for SAPT in psi4, default
symmetry c1  #important for SAPT in psi4, default
}

set PROPERTIES_ORIGIN ["COM"]
properties('MP2/aug-cc-pvtz', properties = ['dipole'])
--------------------------------------------------------------------------

    Molecular point group: c1
  Charge       = 0
  Multiplicity = 1
  Basis Set: AUG-CC-PVTZ
    Blend: AUG-CC-PVTZ
  Basis Set: (AUG-CC-PVTZ AUX)
    Blend: AUG-CC-PVTZ-JKFIT

    Orbital Energies [Eh]
    ---------------------

    Doubly Occupied:

       1A    -91.993752     2A    -15.563348     3A    -11.309530
       4A    -11.269180     5A    -11.260746     6A    -11.245451
       7A    -11.223978     8A     -8.995146     9A     -6.676074
      10A     -6.675579    11A     -6.674831    12A     -1.276585
      13A     -1.072522    14A     -1.063117    15A     -0.977538
      16A     -0.869963    17A     -0.792711    18A     -0.730036
      19A     -0.681150    20A     -0.628999    21A     -0.603021
      22A     -0.573050    23A     -0.558521    24A     -0.519172
      25A     -0.511742    26A     -0.503711    27A     -0.495525
      28A     -0.424575    29A     -0.385998    30A     -0.330515

  @DF-RHF Final Energy:  -645.48631387162220

   => Energetics <=

    Nuclear Repulsion Energy =            352.2045211636464614
    One-Electron Energy =               -1583.6095352247518804
    Two-Electron Energy =                 585.9187001894832747
    Total Energy =                       -645.4863138716222011
  Basis Set: (AUG-CC-PVTZ AUX)
    Blend: AUG-CC-PVTZ-RI
    Molecular point group: c1

    Geometry (in Angstrom), charge = 0, multiplicity = 1:

       Center              X                  Y                   Z               Mass
    ------------   -----------------  -----------------  -----------------  -----------------
         S           -0.755707392612    -1.145869076077     0.035530673743    31.972071174400
         N           -0.110330392612     1.305155123923    -0.246439526257    14.003074004430
         C            1.828741607388    -0.206132876077    -0.566296526257    12.000000000000
         C            0.382800607388     0.083740123923    -0.305294526257    12.000000000000
         C            2.701884607388     0.189891123923     0.626981473743    12.000000000000
         C           -1.984909392612     0.025649123923     0.266652473743    12.000000000000
         C           -1.444575392612     1.274222123923     0.071459473743    12.000000000000
         H            1.958844607388    -1.268018876077    -0.801667526257     1.007825032230
         H            2.128648607388     0.362156123923    -1.452909526257     1.007825032230
         H            2.568498607388     1.251165123923     0.847638473743     1.007825032230
         H            3.758788607388     0.004919123923     0.413641473743     1.007825032230
         H            2.424208607388    -0.383798876077     1.515665473743     1.007825032230
         H           -3.005368392612    -0.235590876077     0.513215473743     1.007825032230
         H           -1.995761392612     2.205207123923     0.148047473743     1.007825032230

  Basis Set: AUG-CC-PVTZ
    Blend: AUG-CC-PVTZ
  Basis Set: (AUG-CC-PVTZ AUX)
    Blend: AUG-CC-PVTZ-JKFIT
	 Reference Energy          =    -645.4863138716222011 [Eh]
	 Singles Energy            =      -0.0000000000000000 [Eh]
	 Same-Spin Energy          =      -0.3324743332603702 [Eh]
	 Opposite-Spin Energy      =      -1.0392943713751377 [Eh]
	 Correlation Energy        =      -1.3717687046355080 [Eh]
	 Total Energy              =    -646.8580825762577433 [Eh]

	 ================> DF-SCS-MP2 Energies <==================
	-----------------------------------------------------------
	 SCS Same-Spin Scale       =       0.3333333333333333 [-]
	 SCS Opposite-Spin Scale   =       1.2000000000000000 [-]
	 SCS Same-Spin Energy      =      -0.1108247777534567 [Eh]
	 SCS Opposite-Spin Energy  =      -1.2471532456501653 [Eh]
	 SCS Correlation Energy    =      -1.3579780234036221 [Eh]
	 SCS Total Energy          =    -646.8442918950257763 [Eh]
	-----------------------------------------------------------

  Dipole Moment: [D]
     X:    -0.3602      Y:    -1.2837      Z:     0.2732     Total:     1.3610

*** Psi4 exiting successfully. Buy a developer a beer!
