                               Psi4 1.3.2 release

  ==> Input File <==

--------------------------------------------------------------------------
#psi4
#
memory 32 gb

molecule  {
0 1
  S       -0.8349460    -1.1774250     0.0297960
  N       -0.1696500     1.2952110    -0.2577190
  C        1.7694220    -0.2160770    -0.5775760
  C        0.3017821     0.0946461    -0.3124959
  C        2.6425650     0.1799470     0.6157020
  C       -2.0442290     0.0157050     0.2553730
  C       -1.5038950     1.2642780     0.0601800
  H        1.8995250    -1.2779630    -0.8129470
  H        2.0693290     0.3522120    -1.4641890
  H        2.5091790     1.2412210     0.8363590
  H        3.6994690    -0.0050250     0.4023620
  H        2.3648890    -0.3937430     1.5043860
  H       -3.0646880    -0.2455350     0.5019360
  H       -2.0550810     2.1952630     0.1367680
units angstrom
no_reorient  #important for SAPT in psi4, default
symmetry c1  #important for SAPT in psi4, default
}

set PROPERTIES_ORIGIN ["COM"]
properties('MP2/aug-cc-pvtz', properties = ['dipole'])
--------------------------------------------------------------------------

    Molecular point group: c1
  Charge       = 0
  Multiplicity = 1
  Basis Set: AUG-CC-PVTZ
    Blend: AUG-CC-PVTZ
  Basis Set: (AUG-CC-PVTZ AUX)
    Blend: AUG-CC-PVTZ-JKFIT

    Orbital Energies [Eh]
    ---------------------

    Doubly Occupied:

       1A    -91.992693     2A    -15.563951     3A    -11.310254
       4A    -11.269287     5A    -11.261755     6A    -11.246054
       7A    -11.223348     8A     -8.993692     9A     -6.674605
      10A     -6.674050    11A     -6.673317    12A     -1.284047
      13A     -1.068744    14A     -1.063296    15A     -0.975517
      16A     -0.866523    17A     -0.795255    18A     -0.728134
      19A     -0.682066    20A     -0.627249    21A     -0.600749
      22A     -0.573954    23A     -0.557146    24A     -0.518272
      25A     -0.510397    26A     -0.504266    27A     -0.495564
      28A     -0.425112    29A     -0.390451    30A     -0.330054

  @DF-RHF Final Energy:  -645.48698141980492

   => Energetics <=

    Nuclear Repulsion Energy =            351.2487196435968144
    One-Electron Energy =               -1581.7118004096548702
    Two-Electron Energy =                 584.9760993462531360
    Total Energy =                       -645.4869814198049198
  Basis Set: (AUG-CC-PVTZ AUX)
    Blend: AUG-CC-PVTZ-RI
    Molecular point group: c1

    Geometry (in Angstrom), charge = 0, multiplicity = 1:

       Center              X                  Y                   Z               Mass
    ------------   -----------------  -----------------  -----------------  -----------------
         S           -0.767688330880    -1.163581264309     0.039074092698    31.972071174400
         N           -0.102392330880     1.309054735691    -0.248440907302    14.003074004430
         C            1.836679669120    -0.202233264309    -0.568297907302    12.000000000000
         C            0.369039769120     0.108489835691    -0.303217807302    12.000000000000
         C            2.709822669120     0.193790735691     0.624980092698    12.000000000000
         C           -1.976971330880     0.029548735691     0.264651092698    12.000000000000
         C           -1.436637330880     1.278121735691     0.069458092698    12.000000000000
         H            1.966782669120    -1.264119264309    -0.803668907302     1.007825032230
         H            2.136586669120     0.366055735691    -1.454910907302     1.007825032230
         H            2.576436669120     1.255064735691     0.845637092698     1.007825032230
         H            3.766726669120     0.008818735691     0.411640092698     1.007825032230
         H            2.432146669120    -0.379899264309     1.513664092698     1.007825032230
         H           -2.997430330880    -0.231691264309     0.511214092698     1.007825032230
         H           -1.987823330880     2.209106735691     0.146046092698     1.007825032230

  Basis Set: AUG-CC-PVTZ
    Blend: AUG-CC-PVTZ
  Basis Set: (AUG-CC-PVTZ AUX)
    Blend: AUG-CC-PVTZ-JKFIT
	 Reference Energy          =    -645.4869814198049198 [Eh]
	 Singles Energy            =      -0.0000000000000000 [Eh]
	 Same-Spin Energy          =      -0.3314450972761275 [Eh]
	 Opposite-Spin Energy      =      -1.0385349806592030 [Eh]
	 Correlation Energy        =      -1.3699800779353306 [Eh]
	 Total Energy              =    -646.8569614977402580 [Eh]

	 ================> DF-SCS-MP2 Energies <==================
	-----------------------------------------------------------
	 SCS Same-Spin Scale       =       0.3333333333333333 [-]
	 SCS Opposite-Spin Scale   =       1.2000000000000000 [-]
	 SCS Same-Spin Energy      =      -0.1104816990920425 [Eh]
	 SCS Opposite-Spin Energy  =      -1.2462419767910435 [Eh]
	 SCS Correlation Energy    =      -1.3567236758830861 [Eh]
	 SCS Total Energy          =    -646.8437050956880512 [Eh]
	-----------------------------------------------------------

  Dipole Moment: [D]
     X:    -0.3433      Y:    -1.2193      Z:     0.2619     Total:     1.2935

*** Psi4 exiting successfully. Buy a developer a beer!
