                               Psi4 1.3.2 release

  ==> Input File <==

--------------------------------------------------------------------------
#psi4
#
memory 32 gb

molecule  {
0 1
  S       -0.8349460    -1.1774250     0.0297960
  N       -0.1696500     1.2952110    -0.2577190
  C        1.7694220    -0.2160770    -0.5775760
  C        0.3900586     0.1457067    -0.3364807
  C        2.6425650     0.1799470     0.6157020
  C       -2.0442290     0.0157050     0.2553730
  C       -1.5038950     1.2642780     0.0601800
  H        1.8995250    -1.2779630    -0.8129470
  H        2.0693290     0.3522120    -1.4641890
  H        2.5091790     1.2412210     0.8363590
  H        3.6994690    -0.0050250     0.4023620
  H        2.3648890    -0.3937430     1.5043860
  H       -3.0646880    -0.2455350     0.5019360
  H       -2.0550810     2.1952630     0.1367680
units angstrom
no_reorient  #important for SAPT in psi4, default
symmetry c1  #important for SAPT in psi4, default
}

set PROPERTIES_ORIGIN ["COM"]
properties('MP2/aug-cc-pvtz', properties = ['dipole'])
--------------------------------------------------------------------------

    Molecular point group: c1
  Charge       = 0
  Multiplicity = 1
  Basis Set: AUG-CC-PVTZ
    Blend: AUG-CC-PVTZ
  Basis Set: (AUG-CC-PVTZ AUX)
    Blend: AUG-CC-PVTZ-JKFIT

    Orbital Energies [Eh]
    ---------------------

    Doubly Occupied:

       1A    -91.983735     2A    -15.566328     3A    -11.317143
       4A    -11.268859     5A    -11.264164     6A    -11.246724
       7A    -11.227722     8A     -8.983669     9A     -6.664557
      10A     -6.663951    11A     -6.663308    12A     -1.281171
      13A     -1.085065    14A     -1.055550    15A     -0.970587
      16A     -0.879018    17A     -0.796221    18A     -0.724604
      19A     -0.682370    20A     -0.634631    21A     -0.614398
      22A     -0.580570    23A     -0.553718    24A     -0.524522
      25A     -0.517731    26A     -0.500735    27A     -0.493574
      28A     -0.407984    29A     -0.390283    30A     -0.323882

  @DF-RHF Final Energy:  -645.47948727323421

   => Energetics <=

    Nuclear Repulsion Energy =            350.3258751884542903
    One-Electron Energy =               -1579.8771747788107405
    Two-Electron Energy =                 584.0718123171221805
    Total Energy =                       -645.4794872732342128
  Basis Set: (AUG-CC-PVTZ AUX)
    Blend: AUG-CC-PVTZ-RI
    Molecular point group: c1

    Geometry (in Angstrom), charge = 0, multiplicity = 1:

       Center              X                  Y                   Z               Mass
    ------------   -----------------  -----------------  -----------------  -----------------
         S           -0.777060344911    -1.169002193544     0.041620476867    31.972071174400
         N           -0.111764344911     1.303633806456    -0.245894523133    14.003074004430
         C            1.827307655089    -0.207654193544    -0.565751523133    12.000000000000
         C            0.447944255089     0.154129506456    -0.324656223133    12.000000000000
         C            2.700450655089     0.188369806456     0.627526476867    12.000000000000
         C           -1.986343344911     0.024127806456     0.267197476867    12.000000000000
         C           -1.446009344911     1.272700806456     0.072004476867    12.000000000000
         H            1.957410655089    -1.269540193544    -0.801122523133     1.007825032230
         H            2.127214655089     0.360634806456    -1.452364523133     1.007825032230
         H            2.567064655089     1.249643806456     0.848183476867     1.007825032230
         H            3.757354655089     0.003397806456     0.414186476867     1.007825032230
         H            2.422774655089    -0.385320193544     1.516210476867     1.007825032230
         H           -3.006802344911    -0.237112193544     0.513760476867     1.007825032230
         H           -1.997195344911     2.203685806456     0.148592476867     1.007825032230

  Basis Set: AUG-CC-PVTZ
    Blend: AUG-CC-PVTZ
  Basis Set: (AUG-CC-PVTZ AUX)
    Blend: AUG-CC-PVTZ-JKFIT
	 Reference Energy          =    -645.4794872732342128 [Eh]
	 Singles Energy            =      -0.0000000000000000 [Eh]
	 Same-Spin Energy          =      -0.3320955567932702 [Eh]
	 Opposite-Spin Energy      =      -1.0398169624282985 [Eh]
	 Correlation Energy        =      -1.3719125192215686 [Eh]
	 Total Energy              =    -646.8513997924558225 [Eh]

	 ================> DF-SCS-MP2 Energies <==================
	-----------------------------------------------------------
	 SCS Same-Spin Scale       =       0.3333333333333333 [-]
	 SCS Opposite-Spin Scale   =       1.2000000000000000 [-]
	 SCS Same-Spin Energy      =      -0.1106985189310901 [Eh]
	 SCS Opposite-Spin Energy  =      -1.2477803549139581 [Eh]
	 SCS Correlation Energy    =      -1.3584788738450482 [Eh]
	 SCS Total Energy          =    -646.8379661470792144 [Eh]
	-----------------------------------------------------------

  Dipole Moment: [D]
     X:     0.0288      Y:    -0.9309      Z:     0.1906     Total:     0.9507

*** Psi4 exiting successfully. Buy a developer a beer!
