                               Psi4 1.3.2 release

  ==> Input File <==

--------------------------------------------------------------------------
#psi4
#
memory 32 gb

molecule  {
0 1
  S       -0.8349460    -1.1774250     0.0297960
  N       -0.1818370     1.4382163    -0.2625187
  C        1.7694220    -0.2160770    -0.5775760
  C        0.3234810     0.0737960    -0.3165740
  C        2.6425650     0.1799470     0.6157020
  C       -2.0442290     0.0157050     0.2553730
  C       -1.5038950     1.2642780     0.0601800
  H        1.8995250    -1.2779630    -0.8129470
  H        2.0693290     0.3522120    -1.4641890
  H        2.5091790     1.2412210     0.8363590
  H        3.6994690    -0.0050250     0.4023620
  H        2.3648890    -0.3937430     1.5043860
  H       -3.0646880    -0.2455350     0.5019360
  H       -2.0550810     2.1952630     0.1367680
units angstrom
no_reorient  #important for SAPT in psi4, default
symmetry c1  #important for SAPT in psi4, default
}

set PROPERTIES_ORIGIN ["COM"]
properties('MP2/aug-cc-pvtz', properties = ['dipole'])
--------------------------------------------------------------------------

    Molecular point group: c1
  Charge       = 0
  Multiplicity = 1
  Basis Set: AUG-CC-PVTZ
    Blend: AUG-CC-PVTZ
  Basis Set: (AUG-CC-PVTZ AUX)
    Blend: AUG-CC-PVTZ-JKFIT

    Orbital Energies [Eh]
    ---------------------

    Doubly Occupied:

       1A    -92.007117     2A    -15.580770     3A    -11.331706
       4A    -11.269020     5A    -11.256530     6A    -11.249300
       7A    -11.225994     8A     -9.006731     9A     -6.687587
      10A     -6.687038    11A     -6.686475    12A     -1.243113
      13A     -1.075213    14A     -1.062946    15A     -0.966317
      16A     -0.871177    17A     -0.774982    18A     -0.736409
      19A     -0.676220    20A     -0.628920    21A     -0.595035
      22A     -0.555209    23A     -0.550297    24A     -0.516862
      25A     -0.512664    26A     -0.503215    27A     -0.495576
      28A     -0.443610    29A     -0.387197    30A     -0.318233

  @DF-RHF Final Energy:  -645.45716444504160

   => Energetics <=

    Nuclear Repulsion Energy =            347.4161012127666481
    One-Electron Energy =               -1573.9436042874126542
    Two-Electron Energy =                 581.0703386296045210
    Total Energy =                       -645.4571644450415988
  Basis Set: (AUG-CC-PVTZ AUX)
    Blend: AUG-CC-PVTZ-RI
    Molecular point group: c1

    Geometry (in Angstrom), charge = 0, multiplicity = 1:

       Center              X                  Y                   Z               Mass
    ------------   -----------------  -----------------  -----------------  -----------------
         S           -0.768482203306    -1.179084350506     0.040101676845    31.972071174400
         N           -0.115373203306     1.436556949494    -0.252213023155    14.003074004430
         C            1.835885796694    -0.217736350506    -0.567270323155    12.000000000000
         C            0.389944796694     0.072136649494    -0.306268323155    12.000000000000
         C            2.709028796694     0.178287649494     0.626007676845    12.000000000000
         C           -1.977765203306     0.014045649494     0.265678676845    12.000000000000
         C           -1.437431203306     1.262618649494     0.070485676845    12.000000000000
         H            1.965988796694    -1.279622350506    -0.802641323155     1.007825032230
         H            2.135792796694     0.350552649494    -1.453883323155     1.007825032230
         H            2.575642796694     1.239561649494     0.846664676845     1.007825032230
         H            3.765932796694    -0.006684350506     0.412667676845     1.007825032230
         H            2.431352796694    -0.395402350506     1.514691676845     1.007825032230
         H           -2.998224203306    -0.247194350506     0.512241676845     1.007825032230
         H           -1.988617203306     2.193603649494     0.147073676845     1.007825032230

  Basis Set: AUG-CC-PVTZ
    Blend: AUG-CC-PVTZ
  Basis Set: (AUG-CC-PVTZ AUX)
    Blend: AUG-CC-PVTZ-JKFIT
	 Reference Energy          =    -645.4571644450415988 [Eh]
	 Singles Energy            =      -0.0000000000000000 [Eh]
	 Same-Spin Energy          =      -0.3359144180079611 [Eh]
	 Opposite-Spin Energy      =      -1.0468206310956369 [Eh]
	 Correlation Energy        =      -1.3827350491035979 [Eh]
	 Total Energy              =    -646.8398994941452429 [Eh]

	 ================> DF-SCS-MP2 Energies <==================
	-----------------------------------------------------------
	 SCS Same-Spin Scale       =       0.3333333333333333 [-]
	 SCS Opposite-Spin Scale   =       1.2000000000000000 [-]
	 SCS Same-Spin Energy      =      -0.1119714726693204 [Eh]
	 SCS Opposite-Spin Energy  =      -1.2561847573147642 [Eh]
	 SCS Correlation Energy    =      -1.3681562299840846 [Eh]
	 SCS Total Energy          =    -646.8253206750256368 [Eh]
	-----------------------------------------------------------

  Dipole Moment: [D]
     X:    -0.4237      Y:    -1.6782      Z:     0.3086     Total:     1.7581

*** Psi4 exiting successfully. Buy a developer a beer!
