                               Psi4 1.3.2 release

  ==> Input File <==

--------------------------------------------------------------------------
#psi4
#
memory 32 gb

molecule  {
0 1
  S       -0.8349460    -1.1774250     0.0297960
  N       -0.1696500     1.2952110    -0.2577190
  C        1.7694220    -0.2160770    -0.5775760
  C        0.3234810     0.0737960    -0.3165740
  C        2.6425650     0.1799470     0.6157020
  C       -2.0442290     0.0157050     0.2553730
  C       -1.4196355     1.2215310     0.0435658
  H        1.8995250    -1.2779630    -0.8129470
  H        2.0693290     0.3522120    -1.4641890
  H        2.5091790     1.2412210     0.8363590
  H        3.6994690    -0.0050250     0.4023620
  H        2.3648890    -0.3937430     1.5043860
  H       -3.0646880    -0.2455350     0.5019360
  H       -2.0550810     2.1952630     0.1367680
units angstrom
no_reorient  #important for SAPT in psi4, default
symmetry c1  #important for SAPT in psi4, default
}

set PROPERTIES_ORIGIN ["COM"]
properties('MP2/aug-cc-pvtz', properties = ['dipole'])
--------------------------------------------------------------------------

    Molecular point group: c1
  Charge       = 0
  Multiplicity = 1
  Basis Set: AUG-CC-PVTZ
    Blend: AUG-CC-PVTZ
  Basis Set: (AUG-CC-PVTZ AUX)
    Blend: AUG-CC-PVTZ-JKFIT

    Orbital Energies [Eh]
    ---------------------

    Doubly Occupied:

       1A    -91.995691     2A    -15.562657     3A    -11.315037
       4A    -11.269330     5A    -11.256898     6A    -11.246193
       7A    -11.225028     8A     -8.996248     9A     -6.677055
      10A     -6.676682    11A     -6.675984    12A     -1.302482
      13A     -1.075939    14A     -1.069390    15A     -0.971353
      16A     -0.868732    17A     -0.798182    18A     -0.732030
      19A     -0.678404    20A     -0.629530    21A     -0.602361
      22A     -0.576585    23A     -0.563725    24A     -0.522275
      25A     -0.512851    26A     -0.501902    27A     -0.480029
      28A     -0.432633    29A     -0.396089    30A     -0.322518

  @DF-RHF Final Energy:  -645.47342694627389

   => Energetics <=

    Nuclear Repulsion Energy =            353.0391801277800710
    One-Electron Energy =               -1585.1575895386481534
    Two-Electron Energy =                 586.6449824645941362
    Total Energy =                       -645.4734269462738894
  Basis Set: (AUG-CC-PVTZ AUX)
    Blend: AUG-CC-PVTZ-RI
    Molecular point group: c1

    Geometry (in Angstrom), charge = 0, multiplicity = 1:

       Center              X                  Y                   Z               Mass
    ------------   -----------------  -----------------  -----------------  -----------------
         S           -0.778937571748    -1.156829377753     0.041270923405    31.972071174400
         N           -0.113641571748     1.315806622247    -0.246244076595    14.003074004430
         C            1.825430428252    -0.195481377753    -0.566101076595    12.000000000000
         C            0.379489428252     0.094391622247    -0.305099076595    12.000000000000
         C            2.698573428252     0.200542622247     0.627176923405    12.000000000000
         C           -1.988220571748     0.036300622247     0.266847923405    12.000000000000
         C           -1.363627071748     1.242126622247     0.055040723405    12.000000000000
         H            1.955533428252    -1.257367377753    -0.801472076595     1.007825032230
         H            2.125337428252     0.372807622247    -1.452714076595     1.007825032230
         H            2.565187428252     1.261816622247     0.847833923405     1.007825032230
         H            3.755477428252     0.015570622247     0.413836923405     1.007825032230
         H            2.420897428252    -0.373147377753     1.515860923405     1.007825032230
         H           -3.008679571748    -0.224939377753     0.513410923405     1.007825032230
         H           -1.999072571748     2.215858622247     0.148242923405     1.007825032230

  Basis Set: AUG-CC-PVTZ
    Blend: AUG-CC-PVTZ
  Basis Set: (AUG-CC-PVTZ AUX)
    Blend: AUG-CC-PVTZ-JKFIT
	 Reference Energy          =    -645.4734269462738894 [Eh]
	 Singles Energy            =      -0.0000000000000000 [Eh]
	 Same-Spin Energy          =      -0.3337397116698009 [Eh]
	 Opposite-Spin Energy      =      -1.0399017669556603 [Eh]
	 Correlation Energy        =      -1.3736414786254612 [Eh]
	 Total Energy              =    -646.8470684248993621 [Eh]

	 ================> DF-SCS-MP2 Energies <==================
	-----------------------------------------------------------
	 SCS Same-Spin Scale       =       0.3333333333333333 [-]
	 SCS Opposite-Spin Scale   =       1.2000000000000000 [-]
	 SCS Same-Spin Energy      =      -0.1112465705566003 [Eh]
	 SCS Opposite-Spin Energy  =      -1.2478821203467922 [Eh]
	 SCS Correlation Energy    =      -1.3591286909033926 [Eh]
	 SCS Total Energy          =    -646.8325556371772791 [Eh]
	-----------------------------------------------------------

  Dipole Moment: [D]
     X:    -0.2833      Y:    -1.3428      Z:     0.2541     Total:     1.3957

*** Psi4 exiting successfully. Buy a developer a beer!
