                               Psi4 1.3.2 release

  ==> Input File <==

--------------------------------------------------------------------------
#psi4
#
memory 32 gb

molecule  {
0 1
  S       -0.8349460    -1.1774250     0.0297960
  N       -0.1696500     1.2952110    -0.2577190
  C        1.7694220    -0.2160770    -0.5775760
  C        0.3448271     0.0525648    -0.3205466
  C        2.6425650     0.1799470     0.6157020
  C       -2.0442290     0.0157050     0.2553730
  C       -1.5038950     1.2642780     0.0601800
  H        1.8995250    -1.2779630    -0.8129470
  H        2.0693290     0.3522120    -1.4641890
  H        2.5091790     1.2412210     0.8363590
  H        3.6994690    -0.0050250     0.4023620
  H        2.3648890    -0.3937430     1.5043860
  H       -3.0646880    -0.2455350     0.5019360
  H       -2.0550810     2.1952630     0.1367680
units angstrom
no_reorient  #important for SAPT in psi4, default
symmetry c1  #important for SAPT in psi4, default
}

set PROPERTIES_ORIGIN ["COM"]
properties('MP2/aug-cc-pvtz', properties = ['dipole'])
--------------------------------------------------------------------------

    Molecular point group: c1
  Charge       = 0
  Multiplicity = 1
  Basis Set: AUG-CC-PVTZ
    Blend: AUG-CC-PVTZ
  Basis Set: (AUG-CC-PVTZ AUX)
    Blend: AUG-CC-PVTZ-JKFIT

    Orbital Energies [Eh]
    ---------------------

    Doubly Occupied:

       1A    -91.995912     2A    -15.566202     3A    -11.315071
       4A    -11.269093     5A    -11.260695     6A    -11.245234
       7A    -11.225028     8A     -8.996409     9A     -6.677299
      10A     -6.676833    11A     -6.676136    12A     -1.266290
      13A     -1.077054    14A     -1.058992    15A     -0.974708
      16A     -0.873773    17A     -0.788488    18A     -0.730562
      19A     -0.679881    20A     -0.630753    21A     -0.603556
      22A     -0.570769    23A     -0.555361    24A     -0.518888
      25A     -0.513694    26A     -0.503127    27A     -0.497051
      28A     -0.423652    29A     -0.384803    30A     -0.326765

  @DF-RHF Final Energy:  -645.48246918586347

   => Energetics <=

    Nuclear Repulsion Energy =            350.7801749989518498
    One-Electron Energy =               -1580.7611286886840389
    Two-Electron Energy =                 584.4984845038686672
    Total Energy =                       -645.4824691858634651
  Basis Set: (AUG-CC-PVTZ AUX)
    Blend: AUG-CC-PVTZ-RI
    Molecular point group: c1

    Geometry (in Angstrom), charge = 0, multiplicity = 1:

       Center              X                  Y                   Z               Mass
    ------------   -----------------  -----------------  -----------------  -----------------
         S           -0.772258271283    -1.159113636638     0.039928807977    31.972071174400
         N           -0.106962271283     1.313522363362    -0.247586192023    14.003074004430
         C            1.832109728717    -0.197765636638    -0.567443192023    12.000000000000
         C            0.407514828717     0.070876163362    -0.310413792023    12.000000000000
         C            2.705252728717     0.198258363362     0.625834807977    12.000000000000
         C           -1.981541271283     0.034016363362     0.265505807977    12.000000000000
         C           -1.441207271283     1.282589363362     0.070312807977    12.000000000000
         H            1.962212728717    -1.259651636638    -0.802814192023     1.007825032230
         H            2.132016728717     0.370523363362    -1.454056192023     1.007825032230
         H            2.571866728717     1.259532363362     0.846491807977     1.007825032230
         H            3.762156728717     0.013286363362     0.412494807977     1.007825032230
         H            2.427576728717    -0.375431636638     1.514518807977     1.007825032230
         H           -3.002000271283    -0.227223636638     0.512068807977     1.007825032230
         H           -1.992393271283     2.213574363362     0.146900807977     1.007825032230

  Basis Set: AUG-CC-PVTZ
    Blend: AUG-CC-PVTZ
  Basis Set: (AUG-CC-PVTZ AUX)
    Blend: AUG-CC-PVTZ-JKFIT
	 Reference Energy          =    -645.4824691858634651 [Eh]
	 Singles Energy            =      -0.0000000000000000 [Eh]
	 Same-Spin Energy          =      -0.3332838510569832 [Eh]
	 Opposite-Spin Energy      =      -1.0410193012307296 [Eh]
	 Correlation Energy        =      -1.3743031522877129 [Eh]
	 Total Energy              =    -646.8567723381511314 [Eh]

	 ================> DF-SCS-MP2 Energies <==================
	-----------------------------------------------------------
	 SCS Same-Spin Scale       =       0.3333333333333333 [-]
	 SCS Opposite-Spin Scale   =       1.2000000000000000 [-]
	 SCS Same-Spin Energy      =      -0.1110946170189944 [Eh]
	 SCS Opposite-Spin Energy  =      -1.2492231614768754 [Eh]
	 SCS Correlation Energy    =      -1.3603177784958698 [Eh]
	 SCS Total Energy          =    -646.8427869643593340 [Eh]
	-----------------------------------------------------------

  Dipole Moment: [D]
     X:    -0.3251      Y:    -1.2821      Z:     0.2714     Total:     1.3502

*** Psi4 exiting successfully. Buy a developer a beer!
