                               Psi4 1.3.2 release

  ==> Input File <==

--------------------------------------------------------------------------
#psi4
#
memory 32 gb

molecule  {
0 1
  S       -0.8349460    -1.1774250     0.0297960
  N       -0.1761554     1.3906825    -0.2613099
  C        1.7694220    -0.2160770    -0.5775760
  C        0.3234810     0.0737960    -0.3165740
  C        2.6425650     0.1799470     0.6157020
  C       -2.0442290     0.0157050     0.2553730
  C       -1.5038950     1.2642780     0.0601800
  H        1.8995250    -1.2779630    -0.8129470
  H        2.0693290     0.3522120    -1.4641890
  H        2.5091790     1.2412210     0.8363590
  H        3.6994690    -0.0050250     0.4023620
  H        2.3648890    -0.3937430     1.5043860
  H       -3.0646880    -0.2455350     0.5019360
  H       -2.0550810     2.1952630     0.1367680
units angstrom
no_reorient  #important for SAPT in psi4, default
symmetry c1  #important for SAPT in psi4, default
}

set PROPERTIES_ORIGIN ["COM"]
properties('MP2/aug-cc-pvtz', properties = ['dipole'])
--------------------------------------------------------------------------

    Molecular point group: c1
  Charge       = 0
  Multiplicity = 1
  Basis Set: AUG-CC-PVTZ
    Blend: AUG-CC-PVTZ
  Basis Set: (AUG-CC-PVTZ AUX)
    Blend: AUG-CC-PVTZ-JKFIT

    Orbital Energies [Eh]
    ---------------------

    Doubly Occupied:

       1A    -92.003044     2A    -15.575952     3A    -11.325779
       4A    -11.268914     5A    -11.258156     6A    -11.248131
       7A    -11.225330     8A     -9.003014     9A     -6.683891
      10A     -6.683349    11A     -6.682738    12A     -1.252559
      13A     -1.073436    14A     -1.062944    15A     -0.969158
      16A     -0.870728    17A     -0.780726    18A     -0.734020
      19A     -0.677602    20A     -0.628845    21A     -0.596668
      22A     -0.560962    23A     -0.551942    24A     -0.516950
      25A     -0.511929    26A     -0.503872    27A     -0.496321
      28A     -0.438849    29A     -0.386769    30A     -0.321849

  @DF-RHF Final Energy:  -645.46987713227099

   => Energetics <=

    Nuclear Repulsion Energy =            348.5704122977855377
    One-Electron Energy =               -1576.2917247595084973
    Two-Electron Energy =                 582.2514353294518514
    Total Energy =                       -645.4698771322709945
  Basis Set: (AUG-CC-PVTZ AUX)
    Blend: AUG-CC-PVTZ-RI
    Molecular point group: c1

    Geometry (in Angstrom), charge = 0, multiplicity = 1:

       Center              X                  Y                   Z               Mass
    ------------   -----------------  -----------------  -----------------  -----------------
         S           -0.769186086534    -1.173195473325     0.039951920782    31.972071174400
         N           -0.110395486534     1.394912026675    -0.251153979218    14.003074004430
         C            1.835181913466    -0.211847473325    -0.567420079218    12.000000000000
         C            0.389240913466     0.078025526675    -0.306418079218    12.000000000000
         C            2.708324913466     0.184176526675     0.625857920782    12.000000000000
         C           -1.978469086534     0.019934526675     0.265528920782    12.000000000000
         C           -1.438135086534     1.268507526675     0.070335920782    12.000000000000
         H            1.965284913466    -1.273733473325    -0.802791079218     1.007825032230
         H            2.135088913466     0.356441526675    -1.454033079218     1.007825032230
         H            2.574938913466     1.245450526675     0.846514920782     1.007825032230
         H            3.765228913466    -0.000795473325     0.412517920782     1.007825032230
         H            2.430648913466    -0.389513473325     1.514541920782     1.007825032230
         H           -2.998928086534    -0.241305473325     0.512091920782     1.007825032230
         H           -1.989321086534     2.199492526675     0.146923920782     1.007825032230

  Basis Set: AUG-CC-PVTZ
    Blend: AUG-CC-PVTZ
  Basis Set: (AUG-CC-PVTZ AUX)
    Blend: AUG-CC-PVTZ-JKFIT
	 Reference Energy          =    -645.4698771322709945 [Eh]
	 Singles Energy            =      -0.0000000000000000 [Eh]
	 Same-Spin Energy          =      -0.3346423917516192 [Eh]
	 Opposite-Spin Energy      =      -1.0442489849799133 [Eh]
	 Correlation Energy        =      -1.3788913767315325 [Eh]
	 Total Energy              =    -646.8487685090025252 [Eh]

	 ================> DF-SCS-MP2 Energies <==================
	-----------------------------------------------------------
	 SCS Same-Spin Scale       =       0.3333333333333333 [-]
	 SCS Opposite-Spin Scale   =       1.2000000000000000 [-]
	 SCS Same-Spin Energy      =      -0.1115474639172064 [Eh]
	 SCS Opposite-Spin Energy  =      -1.2530987819758959 [Eh]
	 SCS Correlation Energy    =      -1.3646462458931023 [Eh]
	 SCS Total Energy          =    -646.8345233781641355 [Eh]
	-----------------------------------------------------------

  Dipole Moment: [D]
     X:    -0.3927      Y:    -1.5547      Z:     0.2962     Total:     1.6306

*** Psi4 exiting successfully. Buy a developer a beer!
