                               Psi4 1.3.2 release

  ==> Input File <==

--------------------------------------------------------------------------
#psi4
#
memory 32 gb

molecule  {
0 1
  S       -0.7904963    -1.2185014     0.0247488
  N       -0.1696500     1.2952110    -0.2577190
  C        1.7694220    -0.2160770    -0.5775760
  C        0.3234810     0.0737960    -0.3165740
  C        2.6425650     0.1799470     0.6157020
  C       -2.0442290     0.0157050     0.2553730
  C       -1.5038950     1.2642780     0.0601800
  H        1.8995250    -1.2779630    -0.8129470
  H        2.0693290     0.3522120    -1.4641890
  H        2.5091790     1.2412210     0.8363590
  H        3.6994690    -0.0050250     0.4023620
  H        2.3648890    -0.3937430     1.5043860
  H       -3.0646880    -0.2455350     0.5019360
  H       -2.0550810     2.1952630     0.1367680
units angstrom
no_reorient  #important for SAPT in psi4, default
symmetry c1  #important for SAPT in psi4, default
}

set PROPERTIES_ORIGIN ["COM"]
properties('MP2/aug-cc-pvtz', properties = ['dipole'])
--------------------------------------------------------------------------

    Molecular point group: c1
  Charge       = 0
  Multiplicity = 1
  Basis Set: AUG-CC-PVTZ
    Blend: AUG-CC-PVTZ
  Basis Set: (AUG-CC-PVTZ AUX)
    Blend: AUG-CC-PVTZ-JKFIT

    Orbital Energies [Eh]
    ---------------------

    Doubly Occupied:

       1A    -91.996291     2A    -15.565031     3A    -11.315144
       4A    -11.271492     5A    -11.265732     6A    -11.245223
       7A    -11.224352     8A     -8.995896     9A     -6.676783
      10A     -6.676128    11A     -6.675536    12A     -1.272450
      13A     -1.072723    14A     -1.051070    15A     -0.976720
      16A     -0.870139    17A     -0.794055    18A     -0.724754
      19A     -0.679450    20A     -0.629427    21A     -0.600478
      22A     -0.573080    23A     -0.553662    24A     -0.516688
      25A     -0.511097    26A     -0.504672    27A     -0.491975
      28A     -0.425380    29A     -0.385497    30A     -0.330948

  @DF-RHF Final Energy:  -645.48372265311411

   => Energetics <=

    Nuclear Repulsion Energy =            349.5914506714747745
    One-Electron Energy =               -1578.4065952818514234
    Two-Electron Energy =                 583.3314219572624779
    Total Energy =                       -645.4837226531141141
  Basis Set: (AUG-CC-PVTZ AUX)
    Blend: AUG-CC-PVTZ-RI
    Molecular point group: c1

    Geometry (in Angstrom), charge = 0, multiplicity = 1:

       Center              X                  Y                   Z               Mass
    ------------   -----------------  -----------------  -----------------  -----------------
         S           -0.738115539278    -1.190825054512     0.035887520724    31.972071174400
         N           -0.117269239278     1.322887345488    -0.246580279276    14.003074004430
         C            1.821802760722    -0.188400654512    -0.566437279276    12.000000000000
         C            0.375861760722     0.101472345488    -0.305435279276    12.000000000000
         C            2.694945760722     0.207623345488     0.626840720724    12.000000000000
         C           -1.991848239278     0.043381345488     0.266511720724    12.000000000000
         C           -1.451514239278     1.291954345488     0.071318720724    12.000000000000
         H            1.951905760722    -1.250286654512    -0.801808279276     1.007825032230
         H            2.121709760722     0.379888345488    -1.453050279276     1.007825032230
         H            2.561559760722     1.268897345488     0.847497720724     1.007825032230
         H            3.751849760722     0.022651345488     0.413500720724     1.007825032230
         H            2.417269760722    -0.366066654512     1.515524720724     1.007825032230
         H           -3.012307239278    -0.217858654512     0.513074720724     1.007825032230
         H           -2.002700239278     2.222939345488     0.147906720724     1.007825032230

  Basis Set: AUG-CC-PVTZ
    Blend: AUG-CC-PVTZ
  Basis Set: (AUG-CC-PVTZ AUX)
    Blend: AUG-CC-PVTZ-JKFIT
	 Reference Energy          =    -645.4837226531141141 [Eh]
	 Singles Energy            =      -0.0000000000000000 [Eh]
	 Same-Spin Energy          =      -0.3316482281628949 [Eh]
	 Opposite-Spin Energy      =      -1.0401101568739104 [Eh]
	 Correlation Energy        =      -1.3717583850368054 [Eh]
	 Total Energy              =    -646.8554810381509697 [Eh]

	 ================> DF-SCS-MP2 Energies <==================
	-----------------------------------------------------------
	 SCS Same-Spin Scale       =       0.3333333333333333 [-]
	 SCS Opposite-Spin Scale   =       1.2000000000000000 [-]
	 SCS Same-Spin Energy      =      -0.1105494093876316 [Eh]
	 SCS Opposite-Spin Energy  =      -1.2481321882486924 [Eh]
	 SCS Correlation Energy    =      -1.3586815976363240 [Eh]
	 SCS Total Energy          =    -646.8424042507504055 [Eh]
	-----------------------------------------------------------

  Dipole Moment: [D]
     X:    -0.3128      Y:    -1.2167      Z:     0.2615     Total:     1.2832

*** Psi4 exiting successfully. Buy a developer a beer!
