                               Psi4 1.3.2 release

  ==> Input File <==

--------------------------------------------------------------------------
#psi4
#
memory 32 gb

molecule  {
0 1
  S       -0.8349460    -1.1774250     0.0297960
  N       -0.1696500     1.2952110    -0.2577190
  C        1.7694220    -0.2160770    -0.5775760
  C        0.3027342     0.0653802    -0.3112534
  C        2.6425650     0.1799470     0.6157020
  C       -2.0442290     0.0157050     0.2553730
  C       -1.5038950     1.2642780     0.0601800
  H        1.8995250    -1.2779630    -0.8129470
  H        2.0693290     0.3522120    -1.4641890
  H        2.5091790     1.2412210     0.8363590
  H        3.6994690    -0.0050250     0.4023620
  H        2.3648890    -0.3937430     1.5043860
  H       -3.0646880    -0.2455350     0.5019360
  H       -2.0550810     2.1952630     0.1367680
units angstrom
no_reorient  #important for SAPT in psi4, default
symmetry c1  #important for SAPT in psi4, default
}

set PROPERTIES_ORIGIN ["COM"]
properties('MP2/aug-cc-pvtz', properties = ['dipole'])
--------------------------------------------------------------------------

    Molecular point group: c1
  Charge       = 0
  Multiplicity = 1
  Basis Set: AUG-CC-PVTZ
    Blend: AUG-CC-PVTZ
  Basis Set: (AUG-CC-PVTZ AUX)
    Blend: AUG-CC-PVTZ-JKFIT

    Orbital Energies [Eh]
    ---------------------

    Doubly Occupied:

       1A    -91.995575     2A    -15.564721     3A    -11.311192
       4A    -11.269236     5A    -11.260647     6A    -11.245876
       7A    -11.223303     8A     -8.996691     9A     -6.677618
      10A     -6.677077    11A     -6.676352    12A     -1.276379
      13A     -1.068429    14A     -1.064261    15A     -0.976111
      16A     -0.867251    17A     -0.792035    18A     -0.730003
      19A     -0.681000    20A     -0.627336    21A     -0.599668
      22A     -0.571094    23A     -0.556964    24A     -0.518209
      25A     -0.508763    26A     -0.505066    27A     -0.496087
      28A     -0.427945    29A     -0.387854    30A     -0.329787

  @DF-RHF Final Energy:  -645.48574942899768

   => Energetics <=

    Nuclear Repulsion Energy =            351.2359025298583219
    One-Electron Energy =               -1581.6782478217189691
    Two-Electron Energy =                 584.9565958628629687
    Total Energy =                       -645.4857494289976785
  Basis Set: (AUG-CC-PVTZ AUX)
    Blend: AUG-CC-PVTZ-RI
    Molecular point group: c1

    Geometry (in Angstrom), charge = 0, multiplicity = 1:

       Center              X                  Y                   Z               Mass
    ------------   -----------------  -----------------  -----------------  -----------------
         S           -0.767789412080    -1.160474203818     0.038942180723    31.972071174400
         N           -0.102493412080     1.312161796182    -0.248572819277    14.003074004430
         C            1.836578587920    -0.199126203818    -0.568429819277    12.000000000000
         C            0.369890787920     0.082330996182    -0.302107219277    12.000000000000
         C            2.709721587920     0.196897796182     0.624848180723    12.000000000000
         C           -1.977072412080     0.032655796182     0.264519180723    12.000000000000
         C           -1.436738412080     1.281228796182     0.069326180723    12.000000000000
         H            1.966681587920    -1.261012203818    -0.803800819277     1.007825032230
         H            2.136485587920     0.369162796182    -1.455042819277     1.007825032230
         H            2.576335587920     1.258171796182     0.845505180723     1.007825032230
         H            3.766625587920     0.011925796182     0.411508180723     1.007825032230
         H            2.432045587920    -0.376792203818     1.513532180723     1.007825032230
         H           -2.997531412080    -0.228584203818     0.511082180723     1.007825032230
         H           -1.987924412080     2.212213796182     0.145914180723     1.007825032230

  Basis Set: AUG-CC-PVTZ
    Blend: AUG-CC-PVTZ
  Basis Set: (AUG-CC-PVTZ AUX)
    Blend: AUG-CC-PVTZ-JKFIT
	 Reference Energy          =    -645.4857494289976785 [Eh]
	 Singles Energy            =      -0.0000000000000000 [Eh]
	 Same-Spin Energy          =      -0.3322221223144487 [Eh]
	 Opposite-Spin Energy      =      -1.0394861155134494 [Eh]
	 Correlation Energy        =      -1.3717082378278982 [Eh]
	 Total Energy              =    -646.8574576668255531 [Eh]

	 ================> DF-SCS-MP2 Energies <==================
	-----------------------------------------------------------
	 SCS Same-Spin Scale       =       0.3333333333333333 [-]
	 SCS Opposite-Spin Scale   =       1.2000000000000000 [-]
	 SCS Same-Spin Energy      =      -0.1107407074381496 [Eh]
	 SCS Opposite-Spin Energy  =      -1.2473833386161393 [Eh]
	 SCS Correlation Energy    =      -1.3581240460542889 [Eh]
	 SCS Total Energy          =    -646.8438734750519643 [Eh]
	-----------------------------------------------------------

  Dipole Moment: [D]
     X:    -0.3972      Y:    -1.3007      Z:     0.2784     Total:     1.3882

*** Psi4 exiting successfully. Buy a developer a beer!
