                               Psi4 1.3.2 release

  ==> Input File <==

--------------------------------------------------------------------------
#psi4
#
memory 32 gb

molecule  {
0 1
  S       -0.8349460    -1.1774250     0.0297960
  N       -0.1696500     1.2952110    -0.2577190
  C        1.7694220    -0.2160770    -0.5775760
  C        0.3025198     0.0361394    -0.4118093
  C        2.6425650     0.1799470     0.6157020
  C       -2.0442290     0.0157050     0.2553730
  C       -1.5038950     1.2642780     0.0601800
  H        1.8995250    -1.2779630    -0.8129470
  H        2.0693290     0.3522120    -1.4641890
  H        2.5091790     1.2412210     0.8363590
  H        3.6994690    -0.0050250     0.4023620
  H        2.3648890    -0.3937430     1.5043860
  H       -3.0646880    -0.2455350     0.5019360
  H       -2.0550810     2.1952630     0.1367680
units angstrom
no_reorient  #important for SAPT in psi4, default
symmetry c1  #important for SAPT in psi4, default
}

set PROPERTIES_ORIGIN ["COM"]
properties('MP2/aug-cc-pvtz', properties = ['dipole'])
--------------------------------------------------------------------------

    Molecular point group: c1
  Charge       = 0
  Multiplicity = 1
  Basis Set: AUG-CC-PVTZ
    Blend: AUG-CC-PVTZ
  Basis Set: (AUG-CC-PVTZ AUX)
    Blend: AUG-CC-PVTZ-JKFIT

    Orbital Energies [Eh]
    ---------------------

    Doubly Occupied:

       1A    -91.997741     2A    -15.567414     3A    -11.314049
       4A    -11.269515     5A    -11.261107     6A    -11.245441
       7A    -11.224617     8A     -8.998526     9A     -6.679428
      10A     -6.678929    11A     -6.678235    12A     -1.266214
      13A     -1.070708    14A     -1.061197    15A     -0.975929
      16A     -0.872179    17A     -0.787663    18A     -0.729839
      19A     -0.678785    20A     -0.628155    21A     -0.600023
      22A     -0.569635    23A     -0.553704    24A     -0.524975
      25A     -0.507033    26A     -0.501165    27A     -0.496439
      28A     -0.427480    29A     -0.384287    30A     -0.328564

  @DF-RHF Final Energy:  -645.47882203639369

   => Energetics <=

    Nuclear Repulsion Energy =            350.5879387324299614
    One-Electron Energy =               -1580.3755667872196682
    Two-Electron Energy =                 584.3088060183961261
    Total Energy =                       -645.4788220363936944
  Basis Set: (AUG-CC-PVTZ AUX)
    Blend: AUG-CC-PVTZ-RI
    Molecular point group: c1

    Geometry (in Angstrom), charge = 0, multiplicity = 1:

       Center              X                  Y                   Z               Mass
    ------------   -----------------  -----------------  -----------------  -----------------
         S           -0.767766649965    -1.157369808108     0.049617856648    31.972071174400
         N           -0.102470649965     1.315266191892    -0.237897143352    14.003074004430
         C            1.836601350035    -0.196021808108    -0.557754143352    12.000000000000
         C            0.369699150035     0.056194591892    -0.391987443352    12.000000000000
         C            2.709744350035     0.200002191892     0.635523856648    12.000000000000
         C           -1.977049649965     0.035760191892     0.275194856648    12.000000000000
         C           -1.436715649965     1.284333191892     0.080001856648    12.000000000000
         H            1.966704350035    -1.257907808108    -0.793125143352     1.007825032230
         H            2.136508350035     0.372267191892    -1.444367143352     1.007825032230
         H            2.576358350035     1.261276191892     0.856180856648     1.007825032230
         H            3.766648350035     0.015030191892     0.422183856648     1.007825032230
         H            2.432068350035    -0.373687808108     1.524207856648     1.007825032230
         H           -2.997508649965    -0.225479808108     0.521757856648     1.007825032230
         H           -1.987901649965     2.215318191892     0.156589856648     1.007825032230

  Basis Set: AUG-CC-PVTZ
    Blend: AUG-CC-PVTZ
  Basis Set: (AUG-CC-PVTZ AUX)
    Blend: AUG-CC-PVTZ-JKFIT
	 Reference Energy          =    -645.4788220363936944 [Eh]
	 Singles Energy            =      -0.0000000000000000 [Eh]
	 Same-Spin Energy          =      -0.3334938773839302 [Eh]
	 Opposite-Spin Energy      =      -1.0415273122206208 [Eh]
	 Correlation Energy        =      -1.3750211896045510 [Eh]
	 Total Energy              =    -646.8538432259982756 [Eh]

	 ================> DF-SCS-MP2 Energies <==================
	-----------------------------------------------------------
	 SCS Same-Spin Scale       =       0.3333333333333333 [-]
	 SCS Opposite-Spin Scale   =       1.2000000000000000 [-]
	 SCS Same-Spin Energy      =      -0.1111646257946434 [Eh]
	 SCS Opposite-Spin Energy  =      -1.2498327746647448 [Eh]
	 SCS Correlation Energy    =      -1.3609974004593883 [Eh]
	 SCS Total Energy          =    -646.8398194368530767 [Eh]
	-----------------------------------------------------------

  Dipole Moment: [D]
     X:    -0.4222      Y:    -1.3023      Z:     0.3523     Total:     1.4137

*** Psi4 exiting successfully. Buy a developer a beer!
