                               Psi4 1.3.2 release

  ==> Input File <==

--------------------------------------------------------------------------
#psi4
#
memory 32 gb

molecule  {
0 1
  S       -0.8349460    -1.1774250     0.0297960
  N       -0.1696500     1.2952110    -0.2577190
  C        1.7694220    -0.2160770    -0.5775760
  C        0.3234810     0.0737960    -0.3165740
  C        2.6425650     0.1799470     0.6157020
  C       -2.0442290     0.0157050     0.2553730
  C       -1.5038950     1.2642780     0.0601800
  H        1.8995250    -1.2779630    -0.8129470
  H        2.0693290     0.3522120    -1.4641890
  H        2.5091790     1.2412210     0.8363590
  H        3.6994690    -0.0050250     0.4023620
  H        2.3648890    -0.3937430     1.5043860
  H       -3.0646880    -0.2455350     0.5019360
  H       -2.0042627     2.1094280     0.1297067
units angstrom
no_reorient  #important for SAPT in psi4, default
symmetry c1  #important for SAPT in psi4, default
}

set PROPERTIES_ORIGIN ["COM"]
properties('MP2/aug-cc-pvtz', properties = ['dipole'])
--------------------------------------------------------------------------

    Molecular point group: c1
  Charge       = 0
  Multiplicity = 1
  Basis Set: AUG-CC-PVTZ
    Blend: AUG-CC-PVTZ
  Basis Set: (AUG-CC-PVTZ AUX)
    Blend: AUG-CC-PVTZ-JKFIT

    Orbital Energies [Eh]
    ---------------------

    Doubly Occupied:

       1A    -91.993873     2A    -15.564357     3A    -11.312062
       4A    -11.261091     5A    -11.257451     6A    -11.245404
       7A    -11.223994     8A     -8.994639     9A     -6.675543
      10A     -6.675032    11A     -6.674323    12A     -1.274495
      13A     -1.072931    14A     -1.061159    15A     -0.979726
      16A     -0.871839    17A     -0.798490    18A     -0.732281
      19A     -0.690960    20A     -0.630815    21A     -0.603776
      22A     -0.575238    23A     -0.555810    24A     -0.518422
      25A     -0.511943    26A     -0.506101    27A     -0.497269
      28A     -0.424512    29A     -0.387056    30A     -0.328384

  @DF-RHF Final Energy:  -645.47998124334720

   => Energetics <=

    Nuclear Repulsion Energy =            351.5630631109369233
    One-Electron Energy =               -1582.2881440159369504
    Two-Electron Energy =                 585.2450996616529437
    Total Energy =                       -645.4799812433471971
  Basis Set: (AUG-CC-PVTZ AUX)
    Blend: AUG-CC-PVTZ-RI
    Molecular point group: c1

    Geometry (in Angstrom), charge = 0, multiplicity = 1:

       Center              X                  Y                   Z               Mass
    ------------   -----------------  -----------------  -----------------  -----------------
         S           -0.770445147426    -1.160602337486     0.039570012316    31.972071174400
         N           -0.105149147426     1.312033662514    -0.247944987684    14.003074004430
         C            1.833922852574    -0.199254337486    -0.567801987684    12.000000000000
         C            0.387981852574     0.090618662514    -0.306799987684    12.000000000000
         C            2.707065852574     0.196769662514     0.625476012316    12.000000000000
         C           -1.979728147426     0.032527662514     0.265147012316    12.000000000000
         C           -1.439394147426     1.281100662514     0.069954012316    12.000000000000
         H            1.964025852574    -1.261140337486    -0.803172987684     1.007825032230
         H            2.133829852574     0.369034662514    -1.454414987684     1.007825032230
         H            2.573679852574     1.258043662514     0.846133012316     1.007825032230
         H            3.763969852574     0.011797662514     0.412136012316     1.007825032230
         H            2.429389852574    -0.376920337486     1.514160012316     1.007825032230
         H           -3.000187147426    -0.228712337486     0.511710012316     1.007825032230
         H           -1.939761847426     2.126250662514     0.139480712316     1.007825032230

  Basis Set: AUG-CC-PVTZ
    Blend: AUG-CC-PVTZ
  Basis Set: (AUG-CC-PVTZ AUX)
    Blend: AUG-CC-PVTZ-JKFIT
	 Reference Energy          =    -645.4799812433471971 [Eh]
	 Singles Energy            =      -0.0000000000000000 [Eh]
	 Same-Spin Energy          =      -0.3321539346550648 [Eh]
	 Opposite-Spin Energy      =      -1.0393156365310245 [Eh]
	 Correlation Energy        =      -1.3714695711860894 [Eh]
	 Total Energy              =    -646.8514508145333366 [Eh]

	 ================> DF-SCS-MP2 Energies <==================
	-----------------------------------------------------------
	 SCS Same-Spin Scale       =       0.3333333333333333 [-]
	 SCS Opposite-Spin Scale   =       1.2000000000000000 [-]
	 SCS Same-Spin Energy      =      -0.1107179782183549 [Eh]
	 SCS Opposite-Spin Energy  =      -1.2471787638372294 [Eh]
	 SCS Correlation Energy    =      -1.3578967420555843 [Eh]
	 SCS Total Energy          =    -646.8378779854027698 [Eh]
	-----------------------------------------------------------

  Dipole Moment: [D]
     X:    -0.3519      Y:    -1.2512      Z:     0.2700     Total:     1.3275

*** Psi4 exiting successfully. Buy a developer a beer!
