                               Psi4 1.4a3.dev225

  ==> Input File <==

--------------------------------------------------------------------------
#psi4
#
memory 32 gb

molecule  {
0 1
  S       -0.8349460    -1.1774250     0.0297960
  N       -0.1696500     1.2952110    -0.2577190
  C        1.7694220    -0.2160770    -0.5775760
  C        0.3567698     0.1097513    -0.3265274
  C        2.6425650     0.1799470     0.6157020
  C       -2.0442290     0.0157050     0.2553730
  C       -1.5038950     1.2642780     0.0601800
  H        1.8995250    -1.2779630    -0.8129470
  H        2.0693290     0.3522120    -1.4641890
  H        2.5091790     1.2412210     0.8363590
  H        3.6994690    -0.0050250     0.4023620
  H        2.3648890    -0.3937430     1.5043860
  H       -3.0646880    -0.2455350     0.5019360
  H       -2.0550810     2.1952630     0.1367680
units angstrom
no_reorient  #important for SAPT in psi4, default
symmetry c1  #important for SAPT in psi4, default
}

set PROPERTIES_ORIGIN ["COM"]
properties('MP2/aug-cc-pvtz', properties = ['dipole'])
--------------------------------------------------------------------------

    Molecular point group: c1
  Charge       = 0
  Multiplicity = 1
  Basis Set: AUG-CC-PVTZ
    Blend: AUG-CC-PVTZ
  Basis Set: (AUG-CC-PVTZ AUX)
    Blend: AUG-CC-PVTZ-JKFIT

    Orbital Energies [Eh]
    ---------------------

    Doubly Occupied:

       1A    -91.989404     2A    -15.565564     3A    -11.314741
       4A    -11.269019     5A    -11.262812     6A    -11.245956
       7A    -11.225831     8A     -8.989643     9A     -6.670528
      10A     -6.669991    11A     -6.669307    12A     -1.277874
      13A     -1.078487    14A     -1.057973    15A     -0.972987
      16A     -0.874482    17A     -0.794103    18A     -0.726891
      19A     -0.681627    20A     -0.631726    21A     -0.607614
      22A     -0.576421    23A     -0.554808    24A     -0.520187
      25A     -0.516572    26A     -0.501551    27A     -0.495742
      28A     -0.417060    29A     -0.388815    30A     -0.326442

  @DF-RHF Final Energy:  -645.48473193506766

   => Energetics <=

    Nuclear Repulsion Energy =            350.6534673633886996
    One-Electron Energy =               -1580.5280821163282781
    Two-Electron Energy =                 584.3898828178719214
    Total Energy =                       -645.4847319350676571
  Basis Set: (AUG-CC-PVTZ AUX)
    Blend: AUG-CC-PVTZ-RI
    Molecular point group: c1

    Geometry (in Angstrom), charge = 0, multiplicity = 1:

       Center              X                  Y                   Z               Mass
    ------------   -----------------  -----------------  -----------------  -----------------
         S           -0.773526186888    -1.165184931722     0.040563769054    31.972071174400
         N           -0.108230186888     1.307451068278    -0.246951230946    14.003074004430
         C            1.830841813112    -0.203836931722    -0.566808230946    12.000000000000
         C            0.418189613112     0.121991368278    -0.315759630946    12.000000000000
         C            2.703984813112     0.192187068278     0.626469769054    12.000000000000
         C           -1.982809186888     0.027945068278     0.266140769054    12.000000000000
         C           -1.442475186888     1.276518068278     0.070947769054    12.000000000000
         H            1.960944813112    -1.265722931722    -0.802179230946     1.007825032230
         H            2.130748813112     0.364452068278    -1.453421230946     1.007825032230
         H            2.570598813112     1.253461068278     0.847126769054     1.007825032230
         H            3.760888813112     0.007215068278     0.413129769054     1.007825032230
         H            2.426308813112    -0.381502931722     1.515153769054     1.007825032230
         H           -3.003268186888    -0.233294931722     0.512703769054     1.007825032230
         H           -1.993661186888     2.207503068278     0.147535769054     1.007825032230

  Basis Set: AUG-CC-PVTZ
    Blend: AUG-CC-PVTZ
  Basis Set: (AUG-CC-PVTZ AUX)
    Blend: AUG-CC-PVTZ-JKFIT
	 Reference Energy          =    -645.4847319350676571 [Eh]
	 Singles Energy            =      -0.0000000000000000 [Eh]
	 Same-Spin Energy          =      -0.3320798488941412 [Eh]
	 Opposite-Spin Energy      =      -1.0395724782448421 [Eh]
	 Correlation Energy        =      -1.3716523271389833 [Eh]
	 Total Energy              =    -646.8563842622066886 [Eh]

	 ================> DF-SCS-MP2 Energies <==================
	-----------------------------------------------------------
	 SCS Same-Spin Scale       =       0.3333333333333333 [-]
	 SCS Opposite-Spin Scale   =       1.2000000000000000 [-]
	 SCS Same-Spin Energy      =      -0.1106932829647137 [Eh]
	 SCS Opposite-Spin Energy  =      -1.2474869738938106 [Eh]
	 SCS Correlation Energy    =      -1.3581802568585244 [Eh]
	 SCS Total Energy          =    -646.8429121919261888 [Eh]
	-----------------------------------------------------------

  Dipole Moment: [D]
     X:    -0.1654      Y:    -1.1022      Z:     0.2313     Total:     1.1383

*** Psi4 exiting successfully. Buy a developer a beer!
