                               Psi4 1.4a3.dev225

  ==> Input File <==

--------------------------------------------------------------------------
#psi4
#
memory 32 gb

molecule  {
0 1
  S       -0.8349460    -1.1774250     0.0297960
  N       -0.1696500     1.2952110    -0.2577190
  C        1.7694220    -0.2160770    -0.5775760
  C        0.3309611     0.0552689    -0.3174667
  C        2.6425650     0.1799470     0.6157020
  C       -2.0442290     0.0157050     0.2553730
  C       -1.5038950     1.2642780     0.0601800
  H        1.8995250    -1.2779630    -0.8129470
  H        2.0693290     0.3522120    -1.4641890
  H        2.5091790     1.2412210     0.8363590
  H        3.6994690    -0.0050250     0.4023620
  H        2.3648890    -0.3937430     1.5043860
  H       -3.0646880    -0.2455350     0.5019360
  H       -2.0550810     2.1952630     0.1367680
units angstrom
no_reorient  #important for SAPT in psi4, default
symmetry c1  #important for SAPT in psi4, default
}

set PROPERTIES_ORIGIN ["COM"]
properties('MP2/aug-cc-pvtz', properties = ['dipole'])
--------------------------------------------------------------------------

    Molecular point group: c1
  Charge       = 0
  Multiplicity = 1
  Basis Set: AUG-CC-PVTZ
    Blend: AUG-CC-PVTZ
  Basis Set: (AUG-CC-PVTZ AUX)
    Blend: AUG-CC-PVTZ-JKFIT

    Orbital Energies [Eh]
    ---------------------

    Doubly Occupied:

       1A    -91.995951     2A    -15.565761     3A    -11.313818
       4A    -11.269136     5A    -11.260633     6A    -11.245471
       7A    -11.224437     8A     -8.996657     9A     -6.677559
      10A     -6.677071    11A     -6.676365    12A     -1.269195
      13A     -1.074085    14A     -1.060734    15A     -0.975224
      16A     -0.871638    17A     -0.789505    18A     -0.730461
      19A     -0.680194    20A     -0.629597    21A     -0.602151
      22A     -0.570620    23A     -0.555865    24A     -0.518511
      25A     -0.512242    26A     -0.503809    27A     -0.496815
      28A     -0.425319    29A     -0.385686    30A     -0.327783

  @DF-RHF Final Energy:  -645.48399351111880

   => Energetics <=

    Nuclear Repulsion Energy =            350.9266264501091541
    One-Electron Energy =               -1581.0566566739928476
    Two-Electron Energy =                 584.6460367127649533
    Total Energy =                       -645.4839935111187970
  Basis Set: (AUG-CC-PVTZ AUX)
    Blend: AUG-CC-PVTZ-RI
    Molecular point group: c1

    Geometry (in Angstrom), charge = 0, multiplicity = 1:

       Center              X                  Y                   Z               Mass
    ------------   -----------------  -----------------  -----------------  -----------------
         S           -0.770786165495    -1.159400721685     0.039601825530    31.972071174400
         N           -0.105490165495     1.313235278315    -0.247913174470    14.003074004430
         C            1.833581834505    -0.198052721685    -0.567770174470    12.000000000000
         C            0.395120934505     0.073293178315    -0.307660874470    12.000000000000
         C            2.706724834505     0.197971278315     0.625507825530    12.000000000000
         C           -1.980069165495     0.033729278315     0.265178825530    12.000000000000
         C           -1.439735165495     1.282302278315     0.069985825530    12.000000000000
         H            1.963684834505    -1.259938721685    -0.803141174470     1.007825032230
         H            2.133488834505     0.370236278315    -1.454383174470     1.007825032230
         H            2.573338834505     1.259245278315     0.846164825530     1.007825032230
         H            3.763628834505     0.012999278315     0.412167825530     1.007825032230
         H            2.429048834505    -0.375718721685     1.514191825530     1.007825032230
         H           -3.000528165495    -0.227510721685     0.511741825530     1.007825032230
         H           -1.990921165495     2.213287278315     0.146573825530     1.007825032230

  Basis Set: AUG-CC-PVTZ
    Blend: AUG-CC-PVTZ
  Basis Set: (AUG-CC-PVTZ AUX)
    Blend: AUG-CC-PVTZ-JKFIT
	 Reference Energy          =    -645.4839935111187970 [Eh]
	 Singles Energy            =      -0.0000000000000000 [Eh]
	 Same-Spin Energy          =      -0.3329499389624213 [Eh]
	 Opposite-Spin Energy      =      -1.0405191648488510 [Eh]
	 Correlation Energy        =      -1.3734691038112723 [Eh]
	 Total Energy              =    -646.8574626149301139 [Eh]

	 ================> DF-SCS-MP2 Energies <==================
	-----------------------------------------------------------
	 SCS Same-Spin Scale       =       0.3333333333333333 [-]
	 SCS Opposite-Spin Scale   =       1.2000000000000000 [-]
	 SCS Same-Spin Energy      =      -0.1109833129874737 [Eh]
	 SCS Opposite-Spin Energy  =      -1.2486229978186212 [Eh]
	 SCS Correlation Energy    =      -1.3596063108060950 [Eh]
	 SCS Total Energy          =    -646.8435998219248404 [Eh]
	-----------------------------------------------------------

  Dipole Moment: [D]
     X:    -0.3521      Y:    -1.2920      Z:     0.2746     Total:     1.3670

*** Psi4 exiting successfully. Buy a developer a beer!
