                               Psi4 1.3.2 release

  ==> Input File <==

--------------------------------------------------------------------------
#psi4
#
memory 32 gb

molecule  {
0 1
  S       -0.8349460    -1.1774250     0.0297960
  N       -0.1696500     1.2952110    -0.2577190
  C        1.7694220    -0.2160770    -0.5775760
  C        0.3658137     0.0309589    -0.3244124
  C        2.6425650     0.1799470     0.6157020
  C       -2.0442290     0.0157050     0.2553730
  C       -1.5038950     1.2642780     0.0601800
  H        1.8995250    -1.2779630    -0.8129470
  H        2.0693290     0.3522120    -1.4641890
  H        2.5091790     1.2412210     0.8363590
  H        3.6994690    -0.0050250     0.4023620
  H        2.3648890    -0.3937430     1.5043860
  H       -3.0646880    -0.2455350     0.5019360
  H       -2.0550810     2.1952630     0.1367680
units angstrom
no_reorient  #important for SAPT in psi4, default
symmetry c1  #important for SAPT in psi4, default
}

set PROPERTIES_ORIGIN ["COM"]
properties('MP2/aug-cc-pvtz', properties = ['dipole'])
--------------------------------------------------------------------------

    Molecular point group: c1
  Charge       = 0
  Multiplicity = 1
  Basis Set: AUG-CC-PVTZ
    Blend: AUG-CC-PVTZ
  Basis Set: (AUG-CC-PVTZ AUX)
    Blend: AUG-CC-PVTZ-JKFIT

    Orbital Energies [Eh]
    ---------------------

    Doubly Occupied:

       1A    -91.997632     2A    -15.567030     3A    -11.317303
       4A    -11.269077     5A    -11.260151     6A    -11.244622
       7A    -11.225903     8A     -8.997858     9A     -6.678735
      10A     -6.678315    11A     -6.677635    12A     -1.258472
      13A     -1.082249    14A     -1.056385    15A     -0.974127
      16A     -0.877402    17A     -0.785045    18A     -0.731734
      19A     -0.678873    20A     -0.632583    21A     -0.605336
      22A     -0.569596    23A     -0.554840    24A     -0.520209
      25A     -0.514437    26A     -0.502446    27A     -0.497501
      28A     -0.421685    29A     -0.382482    30A     -0.324686

  @DF-RHF Final Energy:  -645.47661492492466

   => Energetics <=

    Nuclear Repulsion Energy =            350.5730496961232916
    One-Electron Energy =               -1580.3306305517021428
    Two-Electron Energy =                 584.2809659306542471
    Total Energy =                       -645.4766149249246610
  Basis Set: (AUG-CC-PVTZ AUX)
    Blend: AUG-CC-PVTZ-RI
    Molecular point group: c1

    Geometry (in Angstrom), charge = 0, multiplicity = 1:

       Center              X                  Y                   Z               Mass
    ------------   -----------------  -----------------  -----------------  -----------------
         S           -0.774486346814    -1.156819812144     0.040339226739    31.972071174400
         N           -0.109190346814     1.315816187856    -0.247175773261    14.003074004430
         C            1.829881653186    -0.195471812144    -0.567032773261    12.000000000000
         C            0.426273353186     0.051564087856    -0.313869173261    12.000000000000
         C            2.703024653186     0.200552187856     0.626245226739    12.000000000000
         C           -1.983769346814     0.036310187856     0.265916226739    12.000000000000
         C           -1.443435346814     1.284883187856     0.070723226739    12.000000000000
         H            1.959984653186    -1.257357812144    -0.802403773261     1.007825032230
         H            2.129788653186     0.372817187856    -1.453645773261     1.007825032230
         H            2.569638653186     1.261826187856     0.846902226739     1.007825032230
         H            3.759928653186     0.015580187856     0.412905226739     1.007825032230
         H            2.425348653186    -0.373137812144     1.514929226739     1.007825032230
         H           -3.004228346814    -0.224929812144     0.512479226739     1.007825032230
         H           -1.994621346814     2.215868187856     0.147311226739     1.007825032230

  Basis Set: AUG-CC-PVTZ
    Blend: AUG-CC-PVTZ
  Basis Set: (AUG-CC-PVTZ AUX)
    Blend: AUG-CC-PVTZ-JKFIT
	 Reference Energy          =    -645.4766149249246610 [Eh]
	 Singles Energy            =      -0.0000000000000000 [Eh]
	 Same-Spin Energy          =      -0.3343141071051115 [Eh]
	 Opposite-Spin Energy      =      -1.0424944682131012 [Eh]
	 Correlation Energy        =      -1.3768085753182127 [Eh]
	 Total Energy              =    -646.8534235002429114 [Eh]

	 ================> DF-SCS-MP2 Energies <==================
	-----------------------------------------------------------
	 SCS Same-Spin Scale       =       0.3333333333333333 [-]
	 SCS Opposite-Spin Scale   =       1.2000000000000000 [-]
	 SCS Same-Spin Energy      =      -0.1114380357017038 [Eh]
	 SCS Opposite-Spin Energy  =      -1.2509933618557214 [Eh]
	 SCS Correlation Energy    =      -1.3624313975574252 [Eh]
	 SCS Total Energy          =    -646.8390463224820905 [Eh]
	-----------------------------------------------------------

  Dipole Moment: [D]
     X:    -0.3201      Y:    -1.3082      Z:     0.2764     Total:     1.3748

*** Psi4 exiting successfully. Buy a developer a beer!
