                               Psi4 1.3.2 release

  ==> Input File <==

--------------------------------------------------------------------------
#psi4
#
memory 32 gb

molecule  {
0 1
  S       -0.7578568    -1.0889290     0.0066972
  N       -0.1696500     1.2952110    -0.2577190
  C        1.7694220    -0.2160770    -0.5775760
  C        0.3234810     0.0737960    -0.3165740
  C        2.6425650     0.1799470     0.6157020
  C       -2.0442290     0.0157050     0.2553730
  C       -1.5038950     1.2642780     0.0601800
  H        1.8995250    -1.2779630    -0.8129470
  H        2.0693290     0.3522120    -1.4641890
  H        2.5091790     1.2412210     0.8363590
  H        3.6994690    -0.0050250     0.4023620
  H        2.3648890    -0.3937430     1.5043860
  H       -3.0646880    -0.2455350     0.5019360
  H       -2.0550810     2.1952630     0.1367680
units angstrom
no_reorient  #important for SAPT in psi4, default
symmetry c1  #important for SAPT in psi4, default
}

set PROPERTIES_ORIGIN ["COM"]
properties('MP2/aug-cc-pvtz', properties = ['dipole'])
--------------------------------------------------------------------------

    Molecular point group: c1
  Charge       = 0
  Multiplicity = 1
  Basis Set: AUG-CC-PVTZ
    Blend: AUG-CC-PVTZ
  Basis Set: (AUG-CC-PVTZ AUX)
    Blend: AUG-CC-PVTZ-JKFIT

    Orbital Energies [Eh]
    ---------------------

    Doubly Occupied:

       1A    -91.991425     2A    -15.557861     3A    -11.299323
       4A    -11.269295     5A    -11.259155     6A    -11.245006
       7A    -11.223533     8A     -8.995247     9A     -6.676400
      10A     -6.675637    11A     -6.674881    12A     -1.283768
      13A     -1.075961    14A     -1.066283    15A     -0.984939
      16A     -0.869714    17A     -0.795490    18A     -0.731671
      19A     -0.681877    20A     -0.629334    21A     -0.607446
      22A     -0.575153    23A     -0.566204    24A     -0.521856
      25A     -0.511486    26A     -0.503410    27A     -0.491096
      28A     -0.422668    29A     -0.381742    30A     -0.336655

  @DF-RHF Final Energy:  -645.48031672470665

   => Energetics <=

    Nuclear Repulsion Energy =            355.9802622889199597
    One-Electron Energy =               -1591.1121267826144958
    Two-Electron Energy =                 589.6515477689879390
    Total Energy =                       -645.4803167247066540
  Basis Set: (AUG-CC-PVTZ AUX)
    Blend: AUG-CC-PVTZ-RI
    Molecular point group: c1

    Geometry (in Angstrom), charge = 0, multiplicity = 1:

       Center              X                  Y                   Z               Mass
    ------------   -----------------  -----------------  -----------------  -----------------
         S           -0.714708571809    -1.097903994088     0.022942064636    31.972071174400
         N           -0.126501771809     1.286236005912    -0.241474135364    14.003074004430
         C            1.812570228191    -0.225051994088    -0.561331135364    12.000000000000
         C            0.366629228191     0.064821005912    -0.300329135364    12.000000000000
         C            2.685713228191     0.170972005912     0.631946864636    12.000000000000
         C           -2.001080771809     0.006730005912     0.271617864636    12.000000000000
         C           -1.460746771809     1.255303005912     0.076424864636    12.000000000000
         H            1.942673228191    -1.286937994088    -0.796702135364     1.007825032230
         H            2.112477228191     0.343237005912    -1.447944135364     1.007825032230
         H            2.552327228191     1.232246005912     0.852603864636     1.007825032230
         H            3.742617228191    -0.013999994088     0.418606864636     1.007825032230
         H            2.408037228191    -0.402717994088     1.520630864636     1.007825032230
         H           -3.021539771809    -0.254509994088     0.518180864636     1.007825032230
         H           -2.011932771809     2.186288005912     0.153012864636     1.007825032230

  Basis Set: AUG-CC-PVTZ
    Blend: AUG-CC-PVTZ
  Basis Set: (AUG-CC-PVTZ AUX)
    Blend: AUG-CC-PVTZ-JKFIT
	 Reference Energy          =    -645.4803167247066540 [Eh]
	 Singles Energy            =      -0.0000000000000000 [Eh]
	 Same-Spin Energy          =      -0.3331461111650418 [Eh]
	 Opposite-Spin Energy      =      -1.0384789560417642 [Eh]
	 Correlation Energy        =      -1.3716250672068060 [Eh]
	 Total Energy              =    -646.8519417919134185 [Eh]

	 ================> DF-SCS-MP2 Energies <==================
	-----------------------------------------------------------
	 SCS Same-Spin Scale       =       0.3333333333333333 [-]
	 SCS Opposite-Spin Scale   =       1.2000000000000000 [-]
	 SCS Same-Spin Energy      =      -0.1110487037216806 [Eh]
	 SCS Opposite-Spin Energy  =      -1.2461747472501170 [Eh]
	 SCS Correlation Energy    =      -1.3572234509717975 [Eh]
	 SCS Total Energy          =    -646.8375401756784413 [Eh]
	-----------------------------------------------------------

  Dipole Moment: [D]
     X:    -0.4158      Y:    -1.3542      Z:     0.2867     Total:     1.4453

*** Psi4 exiting successfully. Buy a developer a beer!
