                               Psi4 1.4a3.dev225

  ==> Input File <==

--------------------------------------------------------------------------
#psi4
#
memory 32 gb

molecule  {
0 1
  S       -0.8349460    -1.1774250     0.0297960
  N       -0.1696500     1.2952110    -0.2577190
  C        1.7694220    -0.2160770    -0.5775760
  C        0.3367965     0.0881781    -0.3205553
  C        2.6425650     0.1799470     0.6157020
  C       -2.0442290     0.0157050     0.2553730
  C       -1.5038950     1.2642780     0.0601800
  H        1.8995250    -1.2779630    -0.8129470
  H        2.0693290     0.3522120    -1.4641890
  H        2.5091790     1.2412210     0.8363590
  H        3.6994690    -0.0050250     0.4023620
  H        2.3648890    -0.3937430     1.5043860
  H       -3.0646880    -0.2455350     0.5019360
  H       -2.0550810     2.1952630     0.1367680
units angstrom
no_reorient  #important for SAPT in psi4, default
symmetry c1  #important for SAPT in psi4, default
}

set PROPERTIES_ORIGIN ["COM"]
properties('MP2/aug-cc-pvtz', properties = ['dipole'])
--------------------------------------------------------------------------

    Molecular point group: c1
  Charge       = 0
  Multiplicity = 1
  Basis Set: AUG-CC-PVTZ
    Blend: AUG-CC-PVTZ
  Basis Set: (AUG-CC-PVTZ AUX)
    Blend: AUG-CC-PVTZ-JKFIT

    Orbital Energies [Eh]
    ---------------------

    Doubly Occupied:

       1A    -91.992409     2A    -15.565294     3A    -11.313493
       4A    -11.269103     5A    -11.261889     6A    -11.245756
       7A    -11.224813     8A     -8.992931     9A     -6.673823
      10A     -6.673310    11A     -6.672605    12A     -1.276004
      13A     -1.074705    14A     -1.059992    15A     -0.974336
      16A     -0.871854    17A     -0.792786    18A     -0.728366
      19A     -0.681212    20A     -0.630060    21A     -0.604079
      22A     -0.573921    23A     -0.555571    24A     -0.518751
      25A     -0.514374    26A     -0.502721    27A     -0.496300
      28A     -0.421894    29A     -0.387974    30A     -0.327770

  @DF-RHF Final Energy:  -645.48599331091032

   => Energetics <=

    Nuclear Repulsion Energy =            350.8611072708607139
    One-Electron Energy =               -1580.9380043207122526
    Two-Electron Energy =                 584.5909037389412788
    Total Energy =                       -645.4859933109103167
  Basis Set: (AUG-CC-PVTZ AUX)
    Blend: AUG-CC-PVTZ-RI
    Molecular point group: c1

    Geometry (in Angstrom), charge = 0, multiplicity = 1:

       Center              X                  Y                   Z               Mass
    ------------   -----------------  -----------------  -----------------  -----------------
         S           -0.771405689952    -1.162894578874     0.039929731627    31.972071174400
         N           -0.106109689952     1.309741421126    -0.247585268373    14.003074004430
         C            1.832962310048    -0.201546578874    -0.567442268373    12.000000000000
         C            0.400336810048     0.102708521126    -0.310421568373    12.000000000000
         C            2.706105310048     0.194477421126     0.625835731627    12.000000000000
         C           -1.980688689952     0.030235421126     0.265506731627    12.000000000000
         C           -1.440354689952     1.278808421126     0.070313731627    12.000000000000
         H            1.963065310048    -1.263432578874    -0.802813268373     1.007825032230
         H            2.132869310048     0.366742421126    -1.454055268373     1.007825032230
         H            2.572719310048     1.255751421126     0.846492731627     1.007825032230
         H            3.763009310048     0.009505421126     0.412495731627     1.007825032230
         H            2.428429310048    -0.379212578874     1.514519731627     1.007825032230
         H           -3.001147689952    -0.231004578874     0.512069731627     1.007825032230
         H           -1.991540689952     2.209793421126     0.146901731627     1.007825032230

  Basis Set: AUG-CC-PVTZ
    Blend: AUG-CC-PVTZ
  Basis Set: (AUG-CC-PVTZ AUX)
    Blend: AUG-CC-PVTZ-JKFIT
	 Reference Energy          =    -645.4859933109103167 [Eh]
	 Singles Energy            =      -0.0000000000000000 [Eh]
	 Same-Spin Energy          =      -0.3321969761083836 [Eh]
	 Opposite-Spin Energy      =      -1.0396032770870631 [Eh]
	 Correlation Energy        =      -1.3718002531954467 [Eh]
	 Total Energy              =    -646.8577935641058048 [Eh]

	 ================> DF-SCS-MP2 Energies <==================
	-----------------------------------------------------------
	 SCS Same-Spin Scale       =       0.3333333333333333 [-]
	 SCS Opposite-Spin Scale   =       1.2000000000000000 [-]
	 SCS Same-Spin Energy      =      -0.1107323253694612 [Eh]
	 SCS Opposite-Spin Energy  =      -1.2475239325044758 [Eh]
	 SCS Correlation Energy    =      -1.3582562578739370 [Eh]
	 SCS Total Energy          =    -646.8442495687842211 [Eh]
	-----------------------------------------------------------

  Dipole Moment: [D]
     X:    -0.2690      Y:    -1.1948      Z:     0.2531     Total:     1.2506

*** Psi4 exiting successfully. Buy a developer a beer!
