                               Psi4 1.3.2 release

  ==> Input File <==

--------------------------------------------------------------------------
#psi4
#
memory 32 gb

molecule  {
0 1
  S       -0.8349460    -1.1774250     0.0297960
  N       -0.1696500     1.2952110    -0.2577190
  C        1.7694220    -0.2160770    -0.5775760
  C        0.3234810     0.0737960    -0.3165740
  C        2.6425650     0.1799470     0.6157020
  C       -2.0442290     0.0157050     0.2553730
  C       -1.6983995     1.2597686     0.1065229
  H        1.8995250    -1.2779630    -0.8129470
  H        2.0693290     0.3522120    -1.4641890
  H        2.5091790     1.2412210     0.8363590
  H        3.6994690    -0.0050250     0.4023620
  H        2.3648890    -0.3937430     1.5043860
  H       -3.0646880    -0.2455350     0.5019360
  H       -2.0550810     2.1952630     0.1367680
units angstrom
no_reorient  #important for SAPT in psi4, default
symmetry c1  #important for SAPT in psi4, default
}

set PROPERTIES_ORIGIN ["COM"]
properties('MP2/aug-cc-pvtz', properties = ['dipole'])
--------------------------------------------------------------------------

    Molecular point group: c1
  Charge       = 0
  Multiplicity = 1
  Basis Set: AUG-CC-PVTZ
    Blend: AUG-CC-PVTZ
  Basis Set: (AUG-CC-PVTZ AUX)
    Blend: AUG-CC-PVTZ-JKFIT

    Orbital Energies [Eh]
    ---------------------

    Doubly Occupied:

       1A    -91.990684     2A    -15.566799     3A    -11.309588
       4A    -11.267107     5A    -11.262865     6A    -11.245574
       7A    -11.223543     8A     -8.992097     9A     -6.673158
      10A     -6.672397    11A     -6.671565    12A     -1.239629
      13A     -1.079150    14A     -1.045822    15A     -0.988236
      16A     -0.874210    17A     -0.791551    18A     -0.722075
      19A     -0.691726    20A     -0.624012    21A     -0.600153
      22A     -0.558773    23A     -0.543852    24A     -0.530065
      25A     -0.513940    26A     -0.509757    27A     -0.492559
      28A     -0.403195    29A     -0.373392    30A     -0.353666

  @DF-RHF Final Energy:  -645.45348094869632

   => Energetics <=

    Nuclear Repulsion Energy =            348.4834321787284352
    One-Electron Energy =               -1576.2515491125875542
    Two-Electron Energy =                 582.3146359851627949
    Total Energy =                       -645.4534809486963240
  Basis Set: (AUG-CC-PVTZ AUX)
    Blend: AUG-CC-PVTZ-RI
    Molecular point group: c1

    Geometry (in Angstrom), charge = 0, multiplicity = 1:

       Center              X                  Y                   Z               Mass
    ------------   -----------------  -----------------  -----------------  -----------------
         S           -0.749342151456    -1.160888932943     0.034586983460    31.972071174400
         N           -0.084046151456     1.311747067057    -0.252928016540    14.003074004430
         C            1.855025848544    -0.199540932943    -0.572785016540    12.000000000000
         C            0.409084848544     0.090332067057    -0.311783016540    12.000000000000
         C            2.728168848544     0.196483067057     0.620492983460    12.000000000000
         C           -1.958625151456     0.032241067057     0.260163983460    12.000000000000
         C           -1.612795651456     1.276304667057     0.111313883460    12.000000000000
         H            1.985128848544    -1.261426932943    -0.808156016540     1.007825032230
         H            2.154932848544     0.368748067057    -1.459398016540     1.007825032230
         H            2.594782848544     1.257757067057     0.841149983460     1.007825032230
         H            3.785072848544     0.011511067057     0.407152983460     1.007825032230
         H            2.450492848544    -0.377206932943     1.509176983460     1.007825032230
         H           -2.979084151456    -0.228998932943     0.506726983460     1.007825032230
         H           -1.969477151456     2.211799067057     0.141558983460     1.007825032230

  Basis Set: AUG-CC-PVTZ
    Blend: AUG-CC-PVTZ
  Basis Set: (AUG-CC-PVTZ AUX)
    Blend: AUG-CC-PVTZ-JKFIT
	 Reference Energy          =    -645.4534809486963240 [Eh]
	 Singles Energy            =      -0.0000000000000000 [Eh]
	 Same-Spin Energy          =      -0.3296062194372982 [Eh]
	 Opposite-Spin Energy      =      -1.0409133491400206 [Eh]
	 Correlation Energy        =      -1.3705195685773188 [Eh]
	 Total Energy              =    -646.8240005172735891 [Eh]

	 ================> DF-SCS-MP2 Energies <==================
	-----------------------------------------------------------
	 SCS Same-Spin Scale       =       0.3333333333333333 [-]
	 SCS Opposite-Spin Scale   =       1.2000000000000000 [-]
	 SCS Same-Spin Energy      =      -0.1098687398124327 [Eh]
	 SCS Opposite-Spin Energy  =      -1.2490960189680247 [Eh]
	 SCS Correlation Energy    =      -1.3589647587804574 [Eh]
	 SCS Total Energy          =    -646.8124457074767406 [Eh]
	-----------------------------------------------------------

  Dipole Moment: [D]
     X:    -0.3486      Y:    -1.1352      Z:     0.2809     Total:     1.2203

*** Psi4 exiting successfully. Buy a developer a beer!
