                               Psi4 1.3.2 release

  ==> Input File <==

--------------------------------------------------------------------------
#psi4
#
memory 32 gb

molecule  {
0 1
  S       -0.8349460    -1.1774250     0.0297960
  N       -0.1696500     1.2952110    -0.2577190
  C        1.7694220    -0.2160770    -0.5775760
  C        0.4566362     0.2176174    -0.3563874
  C        2.6425650     0.1799470     0.6157020
  C       -2.0442290     0.0157050     0.2553730
  C       -1.5038950     1.2642780     0.0601800
  H        1.8995250    -1.2779630    -0.8129470
  H        2.0693290     0.3522120    -1.4641890
  H        2.5091790     1.2412210     0.8363590
  H        3.6994690    -0.0050250     0.4023620
  H        2.3648890    -0.3937430     1.5043860
  H       -3.0646880    -0.2455350     0.5019360
  H       -2.0550810     2.1952630     0.1367680
units angstrom
no_reorient  #important for SAPT in psi4, default
symmetry c1  #important for SAPT in psi4, default
}

set PROPERTIES_ORIGIN ["COM"]
properties('MP2/aug-cc-pvtz', properties = ['dipole'])
--------------------------------------------------------------------------

    Molecular point group: c1
  Charge       = 0
  Multiplicity = 1
  Basis Set: AUG-CC-PVTZ
    Blend: AUG-CC-PVTZ
  Basis Set: (AUG-CC-PVTZ AUX)
    Blend: AUG-CC-PVTZ-JKFIT

    Orbital Energies [Eh]
    ---------------------

    Doubly Occupied:

       1A    -91.969582     2A    -15.569740     3A    -11.323768
       4A    -11.268458     5A    -11.266206     6A    -11.250079
       7A    -11.232282     8A     -8.969463     9A     -6.650372
      10A     -6.649604    11A     -6.649043    12A     -1.288254
      13A     -1.099447    14A     -1.053389    15A     -0.965779
      16A     -0.888604    17A     -0.799902    18A     -0.721688
      19A     -0.684197    20A     -0.641076    21A     -0.629110
      22A     -0.589132    23A     -0.552576    24A     -0.533176
      25A     -0.519008    26A     -0.500842    27A     -0.487149
      28A     -0.392938    29A     -0.386363    30A     -0.317742

  @DF-RHF Final Energy:  -645.45911196972816

   => Energetics <=

    Nuclear Repulsion Energy =            349.7135760194561271
    One-Electron Energy =               -1578.6474386629292894
    Two-Electron Energy =                 583.4747506737451204
    Total Energy =                       -645.4591119697281556
  Basis Set: (AUG-CC-PVTZ AUX)
    Blend: AUG-CC-PVTZ-RI
    Molecular point group: c1

    Geometry (in Angstrom), charge = 0, multiplicity = 1:

       Center              X                  Y                   Z               Mass
    ------------   -----------------  -----------------  -----------------  -----------------
         S           -0.784128660957    -1.176636706573     0.043733903110    31.972071174400
         N           -0.118832660957     1.295999293427    -0.243781096890    14.003074004430
         C            1.820239339043    -0.215288706573    -0.563638096890    12.000000000000
         C            0.507453539043     0.218405693427    -0.342449496890    12.000000000000
         C            2.693382339043     0.180735293427     0.629639903110    12.000000000000
         C           -1.993411660957     0.016493293427     0.269310903110    12.000000000000
         C           -1.453077660957     1.265066293427     0.074117903110    12.000000000000
         H            1.950342339043    -1.277174706573    -0.799009096890     1.007825032230
         H            2.120146339043     0.353000293427    -1.450251096890     1.007825032230
         H            2.559996339043     1.242009293427     0.850296903110     1.007825032230
         H            3.750286339043    -0.004236706573     0.416299903110     1.007825032230
         H            2.415706339043    -0.392954706573     1.518323903110     1.007825032230
         H           -3.013870660957    -0.244746706573     0.515873903110     1.007825032230
         H           -2.004263660957     2.196051293427     0.150705903110     1.007825032230

  Basis Set: AUG-CC-PVTZ
    Blend: AUG-CC-PVTZ
  Basis Set: (AUG-CC-PVTZ AUX)
    Blend: AUG-CC-PVTZ-JKFIT
	 Reference Energy          =    -645.4591119697281556 [Eh]
	 Singles Energy            =      -0.0000000000000000 [Eh]
	 Same-Spin Energy          =      -0.3329092379266189 [Eh]
	 Opposite-Spin Energy      =      -1.0413200519797172 [Eh]
	 Correlation Energy        =      -1.3742292899063360 [Eh]
	 Total Energy              =    -646.8333412596344942 [Eh]

	 ================> DF-SCS-MP2 Energies <==================
	-----------------------------------------------------------
	 SCS Same-Spin Scale       =       0.3333333333333333 [-]
	 SCS Opposite-Spin Scale   =       1.2000000000000000 [-]
	 SCS Same-Spin Energy      =      -0.1109697459755396 [Eh]
	 SCS Opposite-Spin Energy  =      -1.2495840623756607 [Eh]
	 SCS Correlation Energy    =      -1.3605538083512003 [Eh]
	 SCS Total Energy          =    -646.8196657780794112 [Eh]
	-----------------------------------------------------------

  Dipole Moment: [D]
     X:     0.4934      Y:    -0.5210      Z:     0.0931     Total:     0.7236

*** Psi4 exiting successfully. Buy a developer a beer!
