                               Psi4 1.3.2 release

  ==> Input File <==

--------------------------------------------------------------------------
#psi4
#
memory 32 gb

molecule  {
0 1
  S       -0.8349460    -1.1774250     0.0297960
  N       -0.1696500     1.2952110    -0.2577190
  C        1.7694220    -0.2160770    -0.5775760
  C        0.3234810     0.0737960    -0.3165740
  C        2.6425650     0.1799470     0.6157020
  C       -2.0442290     0.0157050     0.2553730
  C       -1.3786218     1.1979404     0.0356408
  H        1.8995250    -1.2779630    -0.8129470
  H        2.0693290     0.3522120    -1.4641890
  H        2.5091790     1.2412210     0.8363590
  H        3.6994690    -0.0050250     0.4023620
  H        2.3648890    -0.3937430     1.5043860
  H       -3.0646880    -0.2455350     0.5019360
  H       -2.0550810     2.1952630     0.1367680
units angstrom
no_reorient  #important for SAPT in psi4, default
symmetry c1  #important for SAPT in psi4, default
}

set PROPERTIES_ORIGIN ["COM"]
properties('MP2/aug-cc-pvtz', properties = ['dipole'])
--------------------------------------------------------------------------

    Molecular point group: c1
  Charge       = 0
  Multiplicity = 1
  Basis Set: AUG-CC-PVTZ
    Blend: AUG-CC-PVTZ
  Basis Set: (AUG-CC-PVTZ AUX)
    Blend: AUG-CC-PVTZ-JKFIT

    Orbital Energies [Eh]
    ---------------------

    Doubly Occupied:

       1A    -91.996848     2A    -15.561573     3A    -11.316662
       4A    -11.269993     5A    -11.255378     6A    -11.246655
       7A    -11.225629     8A     -8.997295     9A     -6.678047
      10A     -6.677747    11A     -6.677054    12A     -1.318923
      13A     -1.080445    14A     -1.071621    15A     -0.969758
      16A     -0.868230    17A     -0.803042    18A     -0.733509
      19A     -0.678345    20A     -0.629887    21A     -0.604057
      22A     -0.578867    23A     -0.567999    24A     -0.524295
      25A     -0.513249    26A     -0.502814    27A     -0.469907
      28A     -0.433746    29A     -0.400871    30A     -0.319879

  @DF-RHF Final Energy:  -645.45718293156517

   => Energetics <=

    Nuclear Repulsion Energy =            354.1260590279189842
    One-Electron Energy =               -1587.2218354912170071
    Two-Electron Energy =                 587.6385935317329086
    Total Energy =                       -645.4571829315651712
  Basis Set: (AUG-CC-PVTZ AUX)
    Blend: AUG-CC-PVTZ-RI
    Molecular point group: c1

    Geometry (in Angstrom), charge = 0, multiplicity = 1:

       Center              X                  Y                   Z               Mass
    ------------   -----------------  -----------------  -----------------  -----------------
         S           -0.783291855979    -1.154324844449     0.042112293546    31.972071174400
         N           -0.117995855979     1.318311155551    -0.245402706454    14.003074004430
         C            1.821076144021    -0.192976844449    -0.565259706454    12.000000000000
         C            0.375135144021     0.096896155551    -0.304257706454    12.000000000000
         C            2.694219144021     0.203047155551     0.628018293546    12.000000000000
         C           -1.992574855979     0.038805155551     0.267689293546    12.000000000000
         C           -1.326967655979     1.221040555551     0.047957093546    12.000000000000
         H            1.951179144021    -1.254862844449    -0.800630706454     1.007825032230
         H            2.120983144021     0.375312155551    -1.451872706454     1.007825032230
         H            2.560833144021     1.264321155551     0.848675293546     1.007825032230
         H            3.751123144021     0.018075155551     0.414678293546     1.007825032230
         H            2.416543144021    -0.370642844449     1.516702293546     1.007825032230
         H           -3.013033855979    -0.222434844449     0.514252293546     1.007825032230
         H           -2.003426855979     2.218363155551     0.149084293546     1.007825032230

  Basis Set: AUG-CC-PVTZ
    Blend: AUG-CC-PVTZ
  Basis Set: (AUG-CC-PVTZ AUX)
    Blend: AUG-CC-PVTZ-JKFIT
	 Reference Energy          =    -645.4571829315651712 [Eh]
	 Singles Energy            =      -0.0000000000000000 [Eh]
	 Same-Spin Energy          =      -0.3345628309156287 [Eh]
	 Opposite-Spin Energy      =      -1.0405104064151072 [Eh]
	 Correlation Energy        =      -1.3750732373307359 [Eh]
	 Total Energy              =    -646.8322561688959240 [Eh]

	 ================> DF-SCS-MP2 Energies <==================
	-----------------------------------------------------------
	 SCS Same-Spin Scale       =       0.3333333333333333 [-]
	 SCS Opposite-Spin Scale   =       1.2000000000000000 [-]
	 SCS Same-Spin Energy      =      -0.1115209436385429 [Eh]
	 SCS Opposite-Spin Energy  =      -1.2486124876981286 [Eh]
	 SCS Correlation Energy    =      -1.3601334313366715 [Eh]
	 SCS Total Energy          =    -646.8173163629018063 [Eh]
	-----------------------------------------------------------

  Dipole Moment: [D]
     X:    -0.2366      Y:    -1.4111      Z:     0.2446     Total:     1.4515

*** Psi4 exiting successfully. Buy a developer a beer!
