                               Psi4 1.3.2 release

  ==> Input File <==

--------------------------------------------------------------------------
#psi4
#
memory 32 gb

molecule  {
0 1
  S       -0.9179907    -1.0902444     0.0456929
  N       -0.1696500     1.2952110    -0.2577190
  C        1.7694220    -0.2160770    -0.5775760
  C        0.3234810     0.0737960    -0.3165740
  C        2.6425650     0.1799470     0.6157020
  C       -2.0442290     0.0157050     0.2553730
  C       -1.5038950     1.2642780     0.0601800
  H        1.8995250    -1.2779630    -0.8129470
  H        2.0693290     0.3522120    -1.4641890
  H        2.5091790     1.2412210     0.8363590
  H        3.6994690    -0.0050250     0.4023620
  H        2.3648890    -0.3937430     1.5043860
  H       -3.0646880    -0.2455350     0.5019360
  H       -2.0550810     2.1952630     0.1367680
units angstrom
no_reorient  #important for SAPT in psi4, default
symmetry c1  #important for SAPT in psi4, default
}

set PROPERTIES_ORIGIN ["COM"]
properties('MP2/aug-cc-pvtz', properties = ['dipole'])
--------------------------------------------------------------------------

    Molecular point group: c1
  Charge       = 0
  Multiplicity = 1
  Basis Set: AUG-CC-PVTZ
    Blend: AUG-CC-PVTZ
  Basis Set: (AUG-CC-PVTZ AUX)
    Blend: AUG-CC-PVTZ-JKFIT

    Orbital Energies [Eh]
    ---------------------

    Doubly Occupied:

       1A    -91.988812     2A    -15.565577     3A    -11.307020
       4A    -11.264728     5A    -11.251972     6A    -11.246396
       7A    -11.223546     8A     -8.992886     9A     -6.674127
      10A     -6.673263    11A     -6.672478    12A     -1.281687
      13A     -1.091665    14A     -1.066710    15A     -0.971749
      16A     -0.869707    17A     -0.788401    18A     -0.739072
      19A     -0.685002    20A     -0.628066    21A     -0.606404
      22A     -0.571734    23A     -0.563378    24A     -0.524315
      25A     -0.513939    26A     -0.500068    27A     -0.498767
      28A     -0.422893    29A     -0.393965    30A     -0.322039

  @DF-RHF Final Energy:  -645.47552013712277

   => Energetics <=

    Nuclear Repulsion Energy =            354.2539375042240408
    One-Electron Energy =               -1587.6581822092723542
    Two-Electron Energy =                 587.9287245679255420
    Total Energy =                       -645.4755201371227713
  Basis Set: (AUG-CC-PVTZ AUX)
    Blend: AUG-CC-PVTZ-RI
    Molecular point group: c1

    Geometry (in Angstrom), charge = 0, multiplicity = 1:

       Center              X                  Y                   Z               Mass
    ------------   -----------------  -----------------  -----------------  -----------------
         S           -0.829546390648    -1.098847315064     0.050907293311    31.972071174400
         N           -0.081205690648     1.286608084936    -0.252504606689    14.003074004430
         C            1.857866309352    -0.224679915064    -0.572361606689    12.000000000000
         C            0.411925309352     0.065193084936    -0.311359606689    12.000000000000
         C            2.731009309352     0.171344084936     0.620916393311    12.000000000000
         C           -1.955784690648     0.007102084936     0.260587393311    12.000000000000
         C           -1.415450690648     1.255675084936     0.065394393311    12.000000000000
         H            1.987969309352    -1.286565915064    -0.807732606689     1.007825032230
         H            2.157773309352     0.343609084936    -1.458974606689     1.007825032230
         H            2.597623309352     1.232618084936     0.841573393311     1.007825032230
         H            3.787913309352    -0.013627915064     0.407576393311     1.007825032230
         H            2.453333309352    -0.402345915064     1.509600393311     1.007825032230
         H           -2.976243690648    -0.254137915064     0.507150393311     1.007825032230
         H           -1.966636690648     2.186660084936     0.141982393311     1.007825032230

  Basis Set: AUG-CC-PVTZ
    Blend: AUG-CC-PVTZ
  Basis Set: (AUG-CC-PVTZ AUX)
    Blend: AUG-CC-PVTZ-JKFIT
	 Reference Energy          =    -645.4755201371227713 [Eh]
	 Singles Energy            =      -0.0000000000000000 [Eh]
	 Same-Spin Energy          =      -0.3341431649672591 [Eh]
	 Opposite-Spin Energy      =      -1.0395824264505782 [Eh]
	 Correlation Energy        =      -1.3737255914178372 [Eh]
	 Total Energy              =    -646.8492457285406090 [Eh]

	 ================> DF-SCS-MP2 Energies <==================
	-----------------------------------------------------------
	 SCS Same-Spin Scale       =       0.3333333333333333 [-]
	 SCS Opposite-Spin Scale   =       1.2000000000000000 [-]
	 SCS Same-Spin Energy      =      -0.1113810549890864 [Eh]
	 SCS Opposite-Spin Energy  =      -1.2474989117406938 [Eh]
	 SCS Correlation Energy    =      -1.3588799667297802 [Eh]
	 SCS Total Energy          =    -646.8344001038525448 [Eh]
	-----------------------------------------------------------

  Dipole Moment: [D]
     X:    -0.4051      Y:    -1.3050      Z:     0.2877     Total:     1.3964

*** Psi4 exiting successfully. Buy a developer a beer!
