                               Psi4 1.3.2 release

  ==> Input File <==

--------------------------------------------------------------------------
#psi4
#
memory 32 gb

molecule  {
0 1
  S       -0.8349460    -1.1774250     0.0297960
  N       -0.1696500     1.2952110    -0.2577190
  C        1.7694220    -0.2160770    -0.5775760
  C        0.3127332     0.0234025    -0.3253833
  C        2.6425650     0.1799470     0.6157020
  C       -2.0442290     0.0157050     0.2553730
  C       -1.5038950     1.2642780     0.0601800
  H        1.8995250    -1.2779630    -0.8129470
  H        2.0693290     0.3522120    -1.4641890
  H        2.5091790     1.2412210     0.8363590
  H        3.6994690    -0.0050250     0.4023620
  H        2.3648890    -0.3937430     1.5043860
  H       -3.0646880    -0.2455350     0.5019360
  H       -2.0550810     2.1952630     0.1367680
units angstrom
no_reorient  #important for SAPT in psi4, default
symmetry c1  #important for SAPT in psi4, default
}

set PROPERTIES_ORIGIN ["COM"]
properties('MP2/aug-cc-pvtz', properties = ['dipole'])
--------------------------------------------------------------------------

    Molecular point group: c1
  Charge       = 0
  Multiplicity = 1
  Basis Set: AUG-CC-PVTZ
    Blend: AUG-CC-PVTZ
  Basis Set: (AUG-CC-PVTZ AUX)
    Blend: AUG-CC-PVTZ-JKFIT

    Orbital Energies [Eh]
    ---------------------

    Doubly Occupied:

       1A    -91.999247     2A    -15.565961     3A    -11.313204
       4A    -11.269259     5A    -11.259338     6A    -11.245561
       7A    -11.223821     8A     -9.000361     9A     -6.681305
      10A     -6.680778    11A     -6.680085    12A     -1.264951
      13A     -1.071654    14A     -1.062774    15A     -0.976294
      16A     -0.870267    17A     -0.786945    18A     -0.732103
      19A     -0.679300    20A     -0.628274    21A     -0.599913
      22A     -0.567248    23A     -0.556384    24A     -0.519443
      25A     -0.508282    26A     -0.505257    27A     -0.496661
      28A     -0.428865    29A     -0.384547    30A     -0.328107

  @DF-RHF Final Energy:  -645.48063563106075

   => Energetics <=

    Nuclear Repulsion Energy =            351.0672392700472528
    One-Electron Energy =               -1581.3233753504355263
    Two-Electron Energy =                 584.7755004493276374
    Total Energy =                       -645.4806356310607498
  Basis Set: (AUG-CC-PVTZ AUX)
    Blend: AUG-CC-PVTZ-RI
    Molecular point group: c1

    Geometry (in Angstrom), charge = 0, multiplicity = 1:

       Center              X                  Y                   Z               Mass
    ------------   -----------------  -----------------  -----------------  -----------------
         S           -0.768850971706    -1.156017575005     0.040442303871    31.972071174400
         N           -0.103554971706     1.316618424995    -0.247072696129    14.003074004430
         C            1.835517028294    -0.194669575005    -0.566929696129    12.000000000000
         C            0.378828228294     0.044809924995    -0.314736996129    12.000000000000
         C            2.708660028294     0.201354424995     0.626348303871    12.000000000000
         C           -1.978133971706     0.037112424995     0.266019303871    12.000000000000
         C           -1.437799971706     1.285685424995     0.070826303871    12.000000000000
         H            1.965620028294    -1.256555575005    -0.802300696129     1.007825032230
         H            2.135424028294     0.373619424995    -1.453542696129     1.007825032230
         H            2.575274028294     1.262628424995     0.847005303871     1.007825032230
         H            3.765564028294     0.016382424995     0.413008303871     1.007825032230
         H            2.430984028294    -0.372335575005     1.515032303871     1.007825032230
         H           -2.998592971706    -0.224127575005     0.512582303871     1.007825032230
         H           -1.988985971706     2.216670424995     0.147414303871     1.007825032230

  Basis Set: AUG-CC-PVTZ
    Blend: AUG-CC-PVTZ
  Basis Set: (AUG-CC-PVTZ AUX)
    Blend: AUG-CC-PVTZ-JKFIT
	 Reference Energy          =    -645.4806356310607498 [Eh]
	 Singles Energy            =      -0.0000000000000000 [Eh]
	 Same-Spin Energy          =      -0.3335635256237915 [Eh]
	 Opposite-Spin Energy      =      -1.0412549224530983 [Eh]
	 Correlation Energy        =      -1.3748184480768897 [Eh]
	 Total Energy              =    -646.8554540791376439 [Eh]

	 ================> DF-SCS-MP2 Energies <==================
	-----------------------------------------------------------
	 SCS Same-Spin Scale       =       0.3333333333333333 [-]
	 SCS Opposite-Spin Scale   =       1.2000000000000000 [-]
	 SCS Same-Spin Energy      =      -0.1111878418745972 [Eh]
	 SCS Opposite-Spin Energy  =      -1.2495059069437178 [Eh]
	 SCS Correlation Energy    =      -1.3606937488183148 [Eh]
	 SCS Total Energy          =    -646.8413293798790846 [Eh]
	-----------------------------------------------------------

  Dipole Moment: [D]
     X:    -0.4436      Y:    -1.3789      Z:     0.3046     Total:     1.4802

*** Psi4 exiting successfully. Buy a developer a beer!
