                               Psi4 1.3.2 release

  ==> Input File <==

--------------------------------------------------------------------------
#psi4
#
memory 32 gb

molecule  {
0 1
  S       -0.8771997    -1.1345708     0.0379604
  N       -0.1696500     1.2952110    -0.2577190
  C        1.7694220    -0.2160770    -0.5775760
  C        0.3234810     0.0737960    -0.3165740
  C        2.6425650     0.1799470     0.6157020
  C       -2.0442290     0.0157050     0.2553730
  C       -1.5038950     1.2642780     0.0601800
  H        1.8995250    -1.2779630    -0.8129470
  H        2.0693290     0.3522120    -1.4641890
  H        2.5091790     1.2412210     0.8363590
  H        3.6994690    -0.0050250     0.4023620
  H        2.3648890    -0.3937430     1.5043860
  H       -3.0646880    -0.2455350     0.5019360
  H       -2.0550810     2.1952630     0.1367680
units angstrom
no_reorient  #important for SAPT in psi4, default
symmetry c1  #important for SAPT in psi4, default
}

set PROPERTIES_ORIGIN ["COM"]
properties('MP2/aug-cc-pvtz', properties = ['dipole'])
--------------------------------------------------------------------------

    Molecular point group: c1
  Charge       = 0
  Multiplicity = 1
  Basis Set: AUG-CC-PVTZ
    Blend: AUG-CC-PVTZ
  Basis Set: (AUG-CC-PVTZ AUX)
    Blend: AUG-CC-PVTZ-JKFIT

    Orbital Energies [Eh]
    ---------------------

    Doubly Occupied:

       1A    -91.991774     2A    -15.565352     3A    -11.310015
       4A    -11.266898     5A    -11.256628     6A    -11.246121
       7A    -11.223915     8A     -8.993995     9A     -6.674993
      10A     -6.674461    11A     -6.673663    12A     -1.277831
      13A     -1.078246    14A     -1.067176    15A     -0.973514
      16A     -0.869999    17A     -0.789963    18A     -0.734206
      19A     -0.682778    20A     -0.628521    21A     -0.603958
      22A     -0.571735    23A     -0.559422    24A     -0.521082
      25A     -0.513195    26A     -0.501777    27A     -0.498854
      28A     -0.424049    29A     -0.390296    30A     -0.325566

  @DF-RHF Final Energy:  -645.48370130432227

   => Energetics <=

    Nuclear Repulsion Energy =            352.5596641654580026
    One-Electron Energy =               -1584.3067658787820164
    Two-Electron Energy =                 586.2634004090016333
    Total Energy =                       -645.4837013043222669
  Basis Set: (AUG-CC-PVTZ AUX)
    Blend: AUG-CC-PVTZ-RI
    Molecular point group: c1

    Geometry (in Angstrom), charge = 0, multiplicity = 1:

       Center              X                  Y                   Z               Mass
    ------------   -----------------  -----------------  -----------------  -----------------
         S           -0.800293687327    -1.130635381757     0.045362037533    31.972071174400
         N           -0.092743987327     1.299146418243    -0.250317362467    14.003074004430
         C            1.846328012673    -0.212141581757    -0.570174362467    12.000000000000
         C            0.400387012673     0.077731418243    -0.309172362467    12.000000000000
         C            2.719471012673     0.183882418243     0.623103637533    12.000000000000
         C           -1.967322987327     0.019640418243     0.262774637533    12.000000000000
         C           -1.426988987327     1.268213418243     0.067581637533    12.000000000000
         H            1.976431012673    -1.274027581757    -0.805545362467     1.007825032230
         H            2.146235012673     0.356147418243    -1.456787362467     1.007825032230
         H            2.586085012673     1.245156418243     0.843760637533     1.007825032230
         H            3.776375012673    -0.001089581757     0.409763637533     1.007825032230
         H            2.441795012673    -0.389807581757     1.511787637533     1.007825032230
         H           -2.987781987327    -0.241599581757     0.509337637533     1.007825032230
         H           -1.978174987327     2.199198418243     0.144169637533     1.007825032230

  Basis Set: AUG-CC-PVTZ
    Blend: AUG-CC-PVTZ
  Basis Set: (AUG-CC-PVTZ AUX)
    Blend: AUG-CC-PVTZ-JKFIT
	 Reference Energy          =    -645.4837013043222669 [Eh]
	 Singles Energy            =      -0.0000000000000000 [Eh]
	 Same-Spin Energy          =      -0.3331598863446656 [Eh]
	 Opposite-Spin Energy      =      -1.0395162792333674 [Eh]
	 Correlation Energy        =      -1.3726761655780331 [Eh]
	 Total Energy              =    -646.8563774699002806 [Eh]

	 ================> DF-SCS-MP2 Energies <==================
	-----------------------------------------------------------
	 SCS Same-Spin Scale       =       0.3333333333333333 [-]
	 SCS Opposite-Spin Scale   =       1.2000000000000000 [-]
	 SCS Same-Spin Energy      =      -0.1110532954482219 [Eh]
	 SCS Opposite-Spin Energy  =      -1.2474195350800408 [Eh]
	 SCS Correlation Energy    =      -1.3584728305282627 [Eh]
	 SCS Total Energy          =    -646.8421741348505520 [Eh]
	-----------------------------------------------------------

  Dipole Moment: [D]
     X:    -0.3626      Y:    -1.2823      Z:     0.2759     Total:     1.3609

*** Psi4 exiting successfully. Buy a developer a beer!
