                               Psi4 1.3.2 release

  ==> Input File <==

--------------------------------------------------------------------------
#psi4
#
memory 32 gb

molecule  {
0 1
  S       -0.8349460    -1.1774250     0.0297960
  N       -0.1696500     1.2952110    -0.2577190
  C        1.7694220    -0.2160770    -0.5775760
  C        0.3234810     0.0737960    -0.3165740
  C        2.6425650     0.1799470     0.6157020
  C       -2.0442290     0.0157050     0.2553730
  C       -1.5038950     1.2642780     0.0601800
  H        1.8995250    -1.2779630    -0.8129470
  H        2.0693290     0.3522120    -1.4641890
  H        2.5091790     1.2412210     0.8363590
  H        3.6994690    -0.0050250     0.4023620
  H        2.3648890    -0.3937430     1.5043860
  H       -3.0646880    -0.2455350     0.5019360
  H       -2.1567175     2.3669330     0.1508905
units angstrom
no_reorient  #important for SAPT in psi4, default
symmetry c1  #important for SAPT in psi4, default
}

set PROPERTIES_ORIGIN ["COM"]
properties('MP2/aug-cc-pvtz', properties = ['dipole'])
--------------------------------------------------------------------------

    Molecular point group: c1
  Charge       = 0
  Multiplicity = 1
  Basis Set: AUG-CC-PVTZ
    Blend: AUG-CC-PVTZ
  Basis Set: (AUG-CC-PVTZ AUX)
    Blend: AUG-CC-PVTZ-JKFIT

    Orbital Energies [Eh]
    ---------------------

    Doubly Occupied:

       1A    -91.995659     2A    -15.567554     3A    -11.314531
       4A    -11.289727     5A    -11.262885     6A    -11.246655
       7A    -11.224758     8A     -8.996379     9A     -6.677278
      10A     -6.676763    11A     -6.676037    12A     -1.276348
      13A     -1.072198    14A     -1.063054    15A     -0.970651
      16A     -0.868849    17A     -0.785620    18A     -0.727306
      19A     -0.665229    20A     -0.625390    21A     -0.598376
      22A     -0.563693    23A     -0.556940    24A     -0.518839
      25A     -0.512858    26A     -0.501105    27A     -0.487632
      28A     -0.425717    29A     -0.388813    30A     -0.329587

  @DF-RHF Final Energy:  -645.46329181323506

   => Energetics <=

    Nuclear Repulsion Energy =            350.0683237158650059
    One-Electron Energy =               -1579.3303678571219280
    Two-Electron Energy =                 583.7987523280218056
    Total Energy =                       -645.4632918132350596
  Basis Set: (AUG-CC-PVTZ AUX)
    Blend: AUG-CC-PVTZ-RI
    Molecular point group: c1

    Geometry (in Angstrom), charge = 0, multiplicity = 1:

       Center              X                  Y                   Z               Mass
    ------------   -----------------  -----------------  -----------------  -----------------
         S           -0.769085792636    -1.162898366573     0.039381128135    31.972071174400
         N           -0.103789792636     1.309737633427    -0.248133871865    14.003074004430
         C            1.835282207364    -0.201550366573    -0.567990871865    12.000000000000
         C            0.389341207364     0.088322633427    -0.306988871865    12.000000000000
         C            2.708425207364     0.194473633427     0.625287128135    12.000000000000
         C           -1.978368792636     0.030231633427     0.264958128135    12.000000000000
         C           -1.438034792636     1.278804633427     0.069765128135    12.000000000000
         H            1.965385207364    -1.263436366573    -0.803361871865     1.007825032230
         H            2.135189207364     0.366738633427    -1.454603871865     1.007825032230
         H            2.575039207364     1.255747633427     0.845944128135     1.007825032230
         H            3.765329207364     0.009501633427     0.411947128135     1.007825032230
         H            2.430749207364    -0.379216366573     1.513971128135     1.007825032230
         H           -2.998827792636    -0.231008366573     0.511521128135     1.007825032230
         H           -2.090857292636     2.381459633427     0.160475628135     1.007825032230

  Basis Set: AUG-CC-PVTZ
    Blend: AUG-CC-PVTZ
  Basis Set: (AUG-CC-PVTZ AUX)
    Blend: AUG-CC-PVTZ-JKFIT
	 Reference Energy          =    -645.4632918132350596 [Eh]
	 Singles Energy            =      -0.0000000000000000 [Eh]
	 Same-Spin Energy          =      -0.3328940239824078 [Eh]
	 Opposite-Spin Energy      =      -1.0417360930274069 [Eh]
	 Correlation Energy        =      -1.3746301170098147 [Eh]
	 Total Energy              =    -646.8379219302448746 [Eh]

	 ================> DF-SCS-MP2 Energies <==================
	-----------------------------------------------------------
	 SCS Same-Spin Scale       =       0.3333333333333333 [-]
	 SCS Opposite-Spin Scale   =       1.2000000000000000 [-]
	 SCS Same-Spin Energy      =      -0.1109646746608026 [Eh]
	 SCS Opposite-Spin Energy  =      -1.2500833116328882 [Eh]
	 SCS Correlation Energy    =      -1.3610479862936908 [Eh]
	 SCS Total Energy          =    -646.8243397995287296 [Eh]
	-----------------------------------------------------------

  Dipole Moment: [D]
     X:    -0.2647      Y:    -1.2945      Z:     0.2560     Total:     1.3459

*** Psi4 exiting successfully. Buy a developer a beer!
