                               Psi4 1.4a3.dev225

  ==> Input File <==

--------------------------------------------------------------------------
#psi4
#
memory 32 gb

molecule  {
0 1
  S       -0.8349460    -1.1774250     0.0297960
  N       -0.1696500     1.2952110    -0.2577190
  C        1.7694220    -0.2160770    -0.5775760
  C        0.3234810     0.0737960    -0.3165740
  C        2.6425650     0.1799470     0.6157020
  C       -2.0442290     0.0157050     0.2553730
  C       -1.5038950     1.2642780     0.0601800
  H        1.8995250    -1.2779630    -0.8129470
  H        2.0693290     0.3522120    -1.4641890
  H        2.5091790     1.2412210     0.8363590
  H        3.6994690    -0.0050250     0.4023620
  H        2.3648890    -0.3937430     1.5043860
  H       -3.0835533    -0.2503646     0.5064942
  H       -2.0550810     2.1952630     0.1367680
units angstrom
no_reorient  #important for SAPT in psi4, default
symmetry c1  #important for SAPT in psi4, default
}

set PROPERTIES_ORIGIN ["COM"]
properties('MP2/aug-cc-pvtz', properties = ['dipole'])
--------------------------------------------------------------------------

    Molecular point group: c1
  Charge       = 0
  Multiplicity = 1
  Basis Set: AUG-CC-PVTZ
    Blend: AUG-CC-PVTZ
  Basis Set: (AUG-CC-PVTZ AUX)
    Blend: AUG-CC-PVTZ-JKFIT

    Orbital Energies [Eh]
    ---------------------

    Doubly Occupied:

       1A    -91.994388     2A    -15.565260     3A    -11.312744
       4A    -11.269229     5A    -11.263321     6A    -11.245756
       7A    -11.224198     8A     -8.995132     9A     -6.676032
      10A     -6.675522    11A     -6.674805    12A     -1.274876
      13A     -1.072167    14A     -1.061253    15A     -0.974932
      16A     -0.870029    17A     -0.789925    18A     -0.729097
      19A     -0.679582    20A     -0.628203    21A     -0.601707
      22A     -0.571727    23A     -0.555387    24A     -0.518300
      25A     -0.512108    26A     -0.503771    27A     -0.496304
      28A     -0.424889    29A     -0.387514    30A     -0.328573

  @DF-RHF Final Energy:  -645.48531607327334

   => Energetics <=

    Nuclear Repulsion Energy =            350.9000487613179757
    One-Electron Energy =               -1581.0172763616176326
    Two-Electron Energy =                 584.6319115270263183
    Total Energy =                       -645.4853160732733386
  Basis Set: (AUG-CC-PVTZ AUX)
    Blend: AUG-CC-PVTZ-RI
    Molecular point group: c1

    Geometry (in Angstrom), charge = 0, multiplicity = 1:

       Center              X                  Y                   Z               Mass
    ------------   -----------------  -----------------  -----------------  -----------------
         S           -0.769823817462    -1.161324617654     0.039466407687    31.972071174400
         N           -0.104527817462     1.311311382346    -0.248048592313    14.003074004430
         C            1.834544182538    -0.199976617654    -0.567905592313    12.000000000000
         C            0.388603182538     0.089896382346    -0.306903592313    12.000000000000
         C            2.707687182538     0.196047382346     0.625372407687    12.000000000000
         C           -1.979106817462     0.031805382346     0.265043407687    12.000000000000
         C           -1.438772817462     1.280378382346     0.069850407687    12.000000000000
         H            1.964647182538    -1.261862617654    -0.803276592313     1.007825032230
         H            2.134451182538     0.368312382346    -1.454518592313     1.007825032230
         H            2.574301182538     1.257321382346     0.846029407687     1.007825032230
         H            3.764591182538     0.011075382346     0.412032407687     1.007825032230
         H            2.430011182538    -0.377642617654     1.514056407687     1.007825032230
         H           -3.018431117462    -0.234264217654     0.516164607687     1.007825032230
         H           -1.989958817462     2.211363382346     0.146438407687     1.007825032230

  Basis Set: AUG-CC-PVTZ
    Blend: AUG-CC-PVTZ
  Basis Set: (AUG-CC-PVTZ AUX)
    Blend: AUG-CC-PVTZ-JKFIT
	 Reference Energy          =    -645.4853160732733386 [Eh]
	 Singles Energy            =      -0.0000000000000000 [Eh]
	 Same-Spin Energy          =      -0.3323720108269728 [Eh]
	 Opposite-Spin Energy      =      -1.0398157562639891 [Eh]
	 Correlation Energy        =      -1.3721877670909619 [Eh]
	 Total Energy              =    -646.8575038403643021 [Eh]

	 ================> DF-SCS-MP2 Energies <==================
	-----------------------------------------------------------
	 SCS Same-Spin Scale       =       0.3333333333333333 [-]
	 SCS Opposite-Spin Scale   =       1.2000000000000000 [-]
	 SCS Same-Spin Energy      =      -0.1107906702756576 [Eh]
	 SCS Opposite-Spin Energy  =      -1.2477789075167869 [Eh]
	 SCS Correlation Energy    =      -1.3585695777924445 [Eh]
	 SCS Total Energy          =    -646.8438856510657615 [Eh]
	-----------------------------------------------------------

  Dipole Moment: [D]
     X:    -0.3343      Y:    -1.2541      Z:     0.2671     Total:     1.3251

*** Psi4 exiting successfully. Buy a developer a beer!
