                               Psi4 1.3.2 release

  ==> Input File <==

--------------------------------------------------------------------------
#psi4
#
memory 32 gb

molecule  {
0 1
  S       -0.8349460    -1.1774250     0.0297960
  N       -0.1696500     1.2952110    -0.2577190
  C        1.7694220    -0.2160770    -0.5775760
  C        0.3514867     0.1100403    -0.2226103
  C        2.6425650     0.1799470     0.6157020
  C       -2.0442290     0.0157050     0.2553730
  C       -1.5038950     1.2642780     0.0601800
  H        1.8995250    -1.2779630    -0.8129470
  H        2.0693290     0.3522120    -1.4641890
  H        2.5091790     1.2412210     0.8363590
  H        3.6994690    -0.0050250     0.4023620
  H        2.3648890    -0.3937430     1.5043860
  H       -3.0646880    -0.2455350     0.5019360
  H       -2.0550810     2.1952630     0.1367680
units angstrom
no_reorient  #important for SAPT in psi4, default
symmetry c1  #important for SAPT in psi4, default
}

set PROPERTIES_ORIGIN ["COM"]
properties('MP2/aug-cc-pvtz', properties = ['dipole'])
--------------------------------------------------------------------------

    Molecular point group: c1
  Charge       = 0
  Multiplicity = 1
  Basis Set: AUG-CC-PVTZ
    Blend: AUG-CC-PVTZ
  Basis Set: (AUG-CC-PVTZ AUX)
    Blend: AUG-CC-PVTZ-JKFIT

    Orbital Energies [Eh]
    ---------------------

    Doubly Occupied:

       1A    -91.990984     2A    -15.565169     3A    -11.312835
       4A    -11.269133     5A    -11.262389     6A    -11.246037
       7A    -11.223783     8A     -8.991514     9A     -6.672406
      10A     -6.671863    11A     -6.671148    12A     -1.280943
      13A     -1.074391    14A     -1.060522    15A     -0.973511
      16A     -0.867961    17A     -0.794511    18A     -0.729169
      19A     -0.682815    20A     -0.629962    21A     -0.604699
      22A     -0.573538    23A     -0.557774    24A     -0.518540
      25A     -0.510536    26A     -0.503798    27A     -0.495903
      28A     -0.421491    29A     -0.389027    30A     -0.328059

  @DF-RHF Final Energy:  -645.48380176469425

   => Energetics <=

    Nuclear Repulsion Energy =            351.0781032388929361
    One-Electron Energy =               -1581.3749853686549613
    Two-Electron Energy =                 584.8130803650677763
    Total Energy =                       -645.4838017646942490
  Basis Set: (AUG-CC-PVTZ AUX)
    Blend: AUG-CC-PVTZ-RI
    Molecular point group: c1

    Geometry (in Angstrom), charge = 0, multiplicity = 1:

       Center              X                  Y                   Z               Mass
    ------------   -----------------  -----------------  -----------------  -----------------
         S           -0.772965298234    -1.165215613863     0.029531246024    31.972071174400
         N           -0.107669298234     1.307420386137    -0.257983753976    14.003074004430
         C            1.831402701766    -0.203867613863    -0.577840753976    12.000000000000
         C            0.413467401766     0.122249686137    -0.222875053976    12.000000000000
         C            2.704545701766     0.192156386137     0.615437246024    12.000000000000
         C           -1.982248298234     0.027914386137     0.255108246024    12.000000000000
         C           -1.441914298234     1.276487386137     0.059915246024    12.000000000000
         H            1.961505701766    -1.265753613863    -0.813211753976     1.007825032230
         H            2.131309701766     0.364421386137    -1.464453753976     1.007825032230
         H            2.571159701766     1.253430386137     0.836094246024     1.007825032230
         H            3.761449701766     0.007184386137     0.402097246024     1.007825032230
         H            2.426869701766    -0.381533613863     1.504121246024     1.007825032230
         H           -3.002707298234    -0.233325613863     0.501671246024     1.007825032230
         H           -1.993100298234     2.207472386137     0.136503246024     1.007825032230

  Basis Set: AUG-CC-PVTZ
    Blend: AUG-CC-PVTZ
  Basis Set: (AUG-CC-PVTZ AUX)
    Blend: AUG-CC-PVTZ-JKFIT
	 Reference Energy          =    -645.4838017646942490 [Eh]
	 Singles Energy            =      -0.0000000000000000 [Eh]
	 Same-Spin Energy          =      -0.3318804322170971 [Eh]
	 Opposite-Spin Energy      =      -1.0394268919635712 [Eh]
	 Correlation Energy        =      -1.3713073241806684 [Eh]
	 Total Energy              =    -646.8551090888748831 [Eh]

	 ================> DF-SCS-MP2 Energies <==================
	-----------------------------------------------------------
	 SCS Same-Spin Scale       =       0.3333333333333333 [-]
	 SCS Opposite-Spin Scale   =       1.2000000000000000 [-]
	 SCS Same-Spin Energy      =      -0.1106268107390324 [Eh]
	 SCS Opposite-Spin Energy  =      -1.2473122703562853 [Eh]
	 SCS Correlation Energy    =      -1.3579390810953176 [Eh]
	 SCS Total Energy          =    -646.8417408457895590 [Eh]
	-----------------------------------------------------------

  Dipole Moment: [D]
     X:    -0.2719      Y:    -1.1577      Z:     0.1978     Total:     1.2056

*** Psi4 exiting successfully. Buy a developer a beer!
