                               Psi4 1.3.2 release

  ==> Input File <==

--------------------------------------------------------------------------
#psi4
#
memory 32 gb

molecule  {
0 1
  S       -0.8349460    -1.1774250     0.0297960
  N       -0.1696500     1.2952110    -0.2577190
  C        1.7694220    -0.2160770    -0.5775760
  C        0.3234810     0.0737960    -0.3165740
  C        2.6425650     0.1799470     0.6157020
  C       -2.0442290     0.0157050     0.2553730
  C       -1.5038950     1.2642780     0.0601800
  H        1.8995250    -1.2779630    -0.8129470
  H        2.0693290     0.3522120    -1.4641890
  H        2.5091790     1.2412210     0.8363590
  H        3.6994690    -0.0050250     0.4023620
  H        2.3648890    -0.3937430     1.5043860
  H       -3.0646880    -0.2455350     0.5019360
  H       -2.1058993     2.2810980     0.1438293
units angstrom
no_reorient  #important for SAPT in psi4, default
symmetry c1  #important for SAPT in psi4, default
}

set PROPERTIES_ORIGIN ["COM"]
properties('MP2/aug-cc-pvtz', properties = ['dipole'])
--------------------------------------------------------------------------

    Molecular point group: c1
  Charge       = 0
  Multiplicity = 1
  Basis Set: AUG-CC-PVTZ
    Blend: AUG-CC-PVTZ
  Basis Set: (AUG-CC-PVTZ AUX)
    Blend: AUG-CC-PVTZ-JKFIT

    Orbital Energies [Eh]
    ---------------------

    Doubly Occupied:

       1A    -91.994855     2A    -15.566242     3A    -11.313535
       4A    -11.279910     5A    -11.261916     6A    -11.246141
       7A    -11.224434     8A     -8.995595     9A     -6.676496
      10A     -6.675984    11A     -6.675263    12A     -1.275445
      13A     -1.072054    14A     -1.062231    15A     -0.972318
      16A     -0.869227    17A     -0.787873    18A     -0.727843
      19A     -0.671877    20A     -0.627061    21A     -0.600081
      22A     -0.568253    23A     -0.556522    24A     -0.518532
      25A     -0.512443    26A     -0.501804    27A     -0.493621
      28A     -0.425265    29A     -0.388052    30A     -0.328952

  @DF-RHF Final Energy:  -645.47844849682258

   => Energetics <=

    Nuclear Repulsion Energy =            350.5110916509922845
    One-Electron Energy =               -1580.2394236482425640
    Two-Electron Energy =                 584.2498835004276998
    Total Energy =                       -645.4784484968225797
  Basis Set: (AUG-CC-PVTZ AUX)
    Blend: AUG-CC-PVTZ-RI
    Molecular point group: c1

    Geometry (in Angstrom), charge = 0, multiplicity = 1:

       Center              X                  Y                   Z               Mass
    ------------   -----------------  -----------------  -----------------  -----------------
         S           -0.769538910305    -1.162133023544     0.039444088934    31.972071174400
         N           -0.104242910305     1.310502976456    -0.248070911066    14.003074004430
         C            1.834829089695    -0.200785023544    -0.567927911066    12.000000000000
         C            0.388888089695     0.089087976456    -0.306925911066    12.000000000000
         C            2.707972089695     0.195238976456     0.625350088934    12.000000000000
         C           -1.978821910305     0.030996976456     0.265021088934    12.000000000000
         C           -1.438487910305     1.279569976456     0.069828088934    12.000000000000
         H            1.964932089695    -1.262671023544    -0.803298911066     1.007825032230
         H            2.134736089695     0.367503976456    -1.454540911066     1.007825032230
         H            2.574586089695     1.256512976456     0.846007088934     1.007825032230
         H            3.764876089695     0.010266976456     0.412010088934     1.007825032230
         H            2.430296089695    -0.378451023544     1.514034088934     1.007825032230
         H           -2.999280910305    -0.230243023544     0.511584088934     1.007825032230
         H           -2.040492210305     2.296389976456     0.153477388934     1.007825032230

  Basis Set: AUG-CC-PVTZ
    Blend: AUG-CC-PVTZ
  Basis Set: (AUG-CC-PVTZ AUX)
    Blend: AUG-CC-PVTZ-JKFIT
	 Reference Energy          =    -645.4784484968225797 [Eh]
	 Singles Energy            =      -0.0000000000000000 [Eh]
	 Same-Spin Energy          =      -0.3325824368960610 [Eh]
	 Opposite-Spin Energy      =      -1.0405296374400206 [Eh]
	 Correlation Energy        =      -1.3731120743360816 [Eh]
	 Total Energy              =    -646.8515605711586431 [Eh]

	 ================> DF-SCS-MP2 Energies <==================
	-----------------------------------------------------------
	 SCS Same-Spin Scale       =       0.3333333333333333 [-]
	 SCS Opposite-Spin Scale   =       1.2000000000000000 [-]
	 SCS Same-Spin Energy      =      -0.1108608122986870 [Eh]
	 SCS Opposite-Spin Energy  =      -1.2486355649280247 [Eh]
	 SCS Correlation Energy    =      -1.3594963772267117 [Eh]
	 SCS Total Energy          =    -646.8379448740492990 [Eh]
	-----------------------------------------------------------

  Dipole Moment: [D]
     X:    -0.3034      Y:    -1.2669      Z:     0.2619     Total:     1.3288

*** Psi4 exiting successfully. Buy a developer a beer!
