                               Psi4 1.3.2 release

  ==> Input File <==

--------------------------------------------------------------------------
#psi4
#
memory 32 gb

molecule  {
0 1
  S       -0.8349460    -1.1774250     0.0297960
  N       -0.1687888     1.2474003    -0.2551500
  C        1.7694220    -0.2160770    -0.5775760
  C        0.3234810     0.0737960    -0.3165740
  C        2.6425650     0.1799470     0.6157020
  C       -2.0442290     0.0157050     0.2553730
  C       -1.5038950     1.2642780     0.0601800
  H        1.8995250    -1.2779630    -0.8129470
  H        2.0693290     0.3522120    -1.4641890
  H        2.5091790     1.2412210     0.8363590
  H        3.6994690    -0.0050250     0.4023620
  H        2.3648890    -0.3937430     1.5043860
  H       -3.0646880    -0.2455350     0.5019360
  H       -2.0550810     2.1952630     0.1367680
units angstrom
no_reorient  #important for SAPT in psi4, default
symmetry c1  #important for SAPT in psi4, default
}

set PROPERTIES_ORIGIN ["COM"]
properties('MP2/aug-cc-pvtz', properties = ['dipole'])
--------------------------------------------------------------------------

    Molecular point group: c1
  Charge       = 0
  Multiplicity = 1
  Basis Set: AUG-CC-PVTZ
    Blend: AUG-CC-PVTZ
  Basis Set: (AUG-CC-PVTZ AUX)
    Blend: AUG-CC-PVTZ-JKFIT

    Orbital Energies [Eh]
    ---------------------

    Doubly Occupied:

       1A    -91.989555     2A    -15.559305     3A    -11.305762
       4A    -11.269521     5A    -11.262678     6A    -11.244477
       7A    -11.223706     8A     -8.990741     9A     -6.671646
      10A     -6.671162    11A     -6.670390    12A     -1.287654
      13A     -1.073170    14A     -1.060061    15A     -0.978171
      16A     -0.870037    17A     -0.797149    18A     -0.727177
      19A     -0.682882    20A     -0.629271    21A     -0.605730
      22A     -0.577604    23A     -0.558527    24A     -0.519867
      25A     -0.512828    26A     -0.502730    27A     -0.496062
      28A     -0.416006    29A     -0.388662    30A     -0.331368

  @DF-RHF Final Energy:  -645.48764698683817

   => Energetics <=

    Nuclear Repulsion Energy =            352.2864768839550607
    One-Electron Energy =               -1583.8004474131475945
    Two-Electron Energy =                 586.0263235423544756
    Total Energy =                       -645.4876469868381719
  Basis Set: (AUG-CC-PVTZ AUX)
    Blend: AUG-CC-PVTZ-RI
    Molecular point group: c1

    Geometry (in Angstrom), charge = 0, multiplicity = 1:

       Center              X                  Y                   Z               Mass
    ------------   -----------------  -----------------  -----------------  -----------------
         S           -0.770098721388    -1.155444498690     0.039188781825    31.972071174400
         N           -0.103941521388     1.269380801310    -0.245757218175    14.003074004430
         C            1.834269278612    -0.194096498690    -0.568183218175    12.000000000000
         C            0.388328278612     0.095776501310    -0.307181218175    12.000000000000
         C            2.707412278612     0.201927501310     0.625094781825    12.000000000000
         C           -1.979381721388     0.037685501310     0.264765781825    12.000000000000
         C           -1.439047721388     1.286258501310     0.069572781825    12.000000000000
         H            1.964372278612    -1.255982498690    -0.803554218175     1.007825032230
         H            2.134176278612     0.374192501310    -1.454796218175     1.007825032230
         H            2.574026278612     1.263201501310     0.845751781825     1.007825032230
         H            3.764316278612     0.016955501310     0.411754781825     1.007825032230
         H            2.429736278612    -0.371762498690     1.513778781825     1.007825032230
         H           -2.999840721388    -0.223554498690     0.511328781825     1.007825032230
         H           -1.990233721388     2.217243501310     0.146160781825     1.007825032230

  Basis Set: AUG-CC-PVTZ
    Blend: AUG-CC-PVTZ
  Basis Set: (AUG-CC-PVTZ AUX)
    Blend: AUG-CC-PVTZ-JKFIT
	 Reference Energy          =    -645.4876469868381719 [Eh]
	 Singles Energy            =      -0.0000000000000000 [Eh]
	 Same-Spin Energy          =      -0.3313588654143866 [Eh]
	 Opposite-Spin Energy      =      -1.0378159963960720 [Eh]
	 Correlation Energy        =      -1.3691748618104587 [Eh]
	 Total Energy              =    -646.8568218486486785 [Eh]

	 ================> DF-SCS-MP2 Energies <==================
	-----------------------------------------------------------
	 SCS Same-Spin Scale       =       0.3333333333333333 [-]
	 SCS Opposite-Spin Scale   =       1.2000000000000000 [-]
	 SCS Same-Spin Energy      =      -0.1104529551381289 [Eh]
	 SCS Opposite-Spin Energy  =      -1.2453791956752864 [Eh]
	 SCS Correlation Energy    =      -1.3558321508134152 [Eh]
	 SCS Total Energy          =    -646.8434791376515705 [Eh]
	-----------------------------------------------------------

  Dipole Moment: [D]
     X:    -0.3009      Y:    -1.0700      Z:     0.2486     Total:     1.1390

*** Psi4 exiting successfully. Buy a developer a beer!
