                               Psi4 1.3.2 release

  ==> Input File <==

--------------------------------------------------------------------------
#psi4
#
memory 32 gb

molecule  {
0 1
  S       -0.8349460    -1.1774250     0.0297960
  N       -0.1696500     1.2952110    -0.2577190
  C        1.7694220    -0.2160770    -0.5775760
  C        0.3234810     0.0737960    -0.3165740
  C        2.6425650     0.1799470     0.6157020
  C       -1.9574735    -0.0209929     0.2372139
  C       -1.5038950     1.2642780     0.0601800
  H        1.8995250    -1.2779630    -0.8129470
  H        2.0693290     0.3522120    -1.4641890
  H        2.5091790     1.2412210     0.8363590
  H        3.6994690    -0.0050250     0.4023620
  H        2.3648890    -0.3937430     1.5043860
  H       -3.0646880    -0.2455350     0.5019360
  H       -2.0550810     2.1952630     0.1367680
units angstrom
no_reorient  #important for SAPT in psi4, default
symmetry c1  #important for SAPT in psi4, default
}

set PROPERTIES_ORIGIN ["COM"]
properties('MP2/aug-cc-pvtz', properties = ['dipole'])
--------------------------------------------------------------------------

    Molecular point group: c1
  Charge       = 0
  Multiplicity = 1
  Basis Set: AUG-CC-PVTZ
    Blend: AUG-CC-PVTZ
  Basis Set: (AUG-CC-PVTZ AUX)
    Blend: AUG-CC-PVTZ-JKFIT

    Orbital Energies [Eh]
    ---------------------

    Doubly Occupied:

       1A    -91.995533     2A    -15.564611     3A    -11.306842
       4A    -11.265469     5A    -11.260475     6A    -11.243487
       7A    -11.222376     8A     -8.998347     9A     -6.679442
      10A     -6.678656    11A     -6.677879    12A     -1.278955
      13A     -1.079806    14A     -1.069095    15A     -0.971230
      16A     -0.867940    17A     -0.782361    18A     -0.733279
      19A     -0.679723    20A     -0.622469    21A     -0.600093
      22A     -0.569691    23A     -0.550735    24A     -0.521233
      25A     -0.517139    26A     -0.506655    27A     -0.494953
      28A     -0.424964    29A     -0.393877    30A     -0.322444

  @DF-RHF Final Energy:  -645.47324841845125

   => Energetics <=

    Nuclear Repulsion Energy =            353.1618857318840696
    One-Electron Energy =               -1585.5107559904054142
    Two-Electron Energy =                 586.8756218400701528
    Total Energy =                       -645.4732484184512487
  Basis Set: (AUG-CC-PVTZ AUX)
    Blend: AUG-CC-PVTZ-RI
    Molecular point group: c1

    Geometry (in Angstrom), charge = 0, multiplicity = 1:

       Center              X                  Y                   Z               Mass
    ------------   -----------------  -----------------  -----------------  -----------------
         S           -0.779202563530    -1.157471590007     0.041434940154    31.972071174400
         N           -0.113906563530     1.315164409993    -0.246080059846    14.003074004430
         C            1.825165436470    -0.196123590007    -0.565937059846    12.000000000000
         C            0.379224436470     0.093749409993    -0.304935059846    12.000000000000
         C            2.698308436470     0.199900409993     0.627340940154    12.000000000000
         C           -1.901730063530    -0.001039490007     0.248852840154    12.000000000000
         C           -1.448151563530     1.284231409993     0.071818940154    12.000000000000
         H            1.955268436470    -1.258009590007    -0.801308059846     1.007825032230
         H            2.125072436470     0.372165409993    -1.452550059846     1.007825032230
         H            2.564922436470     1.261174409993     0.847997940154     1.007825032230
         H            3.755212436470     0.014928409993     0.414000940154     1.007825032230
         H            2.420632436470    -0.373789590007     1.516024940154     1.007825032230
         H           -3.008944563530    -0.225581590007     0.513574940154     1.007825032230
         H           -1.999337563530     2.215216409993     0.148406940154     1.007825032230

  Basis Set: AUG-CC-PVTZ
    Blend: AUG-CC-PVTZ
  Basis Set: (AUG-CC-PVTZ AUX)
    Blend: AUG-CC-PVTZ-JKFIT
	 Reference Energy          =    -645.4732484184512487 [Eh]
	 Singles Energy            =      -0.0000000000000000 [Eh]
	 Same-Spin Energy          =      -0.3340571533882219 [Eh]
	 Opposite-Spin Energy      =      -1.0410837346407256 [Eh]
	 Correlation Energy        =      -1.3751408880289475 [Eh]
	 Total Energy              =    -646.8483893064801578 [Eh]

	 ================> DF-SCS-MP2 Energies <==================
	-----------------------------------------------------------
	 SCS Same-Spin Scale       =       0.3333333333333333 [-]
	 SCS Opposite-Spin Scale   =       1.2000000000000000 [-]
	 SCS Same-Spin Energy      =      -0.1113523844627406 [Eh]
	 SCS Opposite-Spin Energy  =      -1.2493004815688706 [Eh]
	 SCS Correlation Energy    =      -1.3606528660316113 [Eh]
	 SCS Total Energy          =    -646.8339012844828630 [Eh]
	-----------------------------------------------------------

  Dipole Moment: [D]
     X:    -0.3614      Y:    -1.3404      Z:     0.2651     Total:     1.4134

*** Psi4 exiting successfully. Buy a developer a beer!
