                               Psi4 1.3.2 release

  ==> Input File <==

--------------------------------------------------------------------------
#psi4
#
memory 32 gb

molecule  {
0 1
  S       -0.8551542    -1.1986570     0.0357469
  N       -0.1696500     1.2952110    -0.2577190
  C        1.7694220    -0.2160770    -0.5775760
  C        0.3234810     0.0737960    -0.3165740
  C        2.6425650     0.1799470     0.6157020
  C       -2.0442290     0.0157050     0.2553730
  C       -1.5038950     1.2642780     0.0601800
  H        1.8995250    -1.2779630    -0.8129470
  H        2.0693290     0.3522120    -1.4641890
  H        2.5091790     1.2412210     0.8363590
  H        3.6994690    -0.0050250     0.4023620
  H        2.3648890    -0.3937430     1.5043860
  H       -3.0646880    -0.2455350     0.5019360
  H       -2.0550810     2.1952630     0.1367680
units angstrom
no_reorient  #important for SAPT in psi4, default
symmetry c1  #important for SAPT in psi4, default
}

set PROPERTIES_ORIGIN ["COM"]
properties('MP2/aug-cc-pvtz', properties = ['dipole'])
--------------------------------------------------------------------------

    Molecular point group: c1
  Charge       = 0
  Multiplicity = 1
  Basis Set: AUG-CC-PVTZ
    Blend: AUG-CC-PVTZ
  Basis Set: (AUG-CC-PVTZ AUX)
    Blend: AUG-CC-PVTZ-JKFIT

    Orbital Energies [Eh]
    ---------------------

    Doubly Occupied:

       1A    -91.994646     2A    -15.566983     3A    -11.315791
       4A    -11.269137     5A    -11.261683     6A    -11.246056
       7A    -11.224408     8A     -8.994833     9A     -6.675724
      10A     -6.675169    11A     -6.674492    12A     -1.273304
      13A     -1.072195    14A     -1.060062    15A     -0.972890
      16A     -0.870360    17A     -0.791162    18A     -0.728609
      19A     -0.680759    20A     -0.629005    21A     -0.601204
      22A     -0.571459    23A     -0.553774    24A     -0.517672
      25A     -0.512657    26A     -0.503730    27A     -0.496991
      28A     -0.424927    29A     -0.388928    30A     -0.326648

  @DF-RHF Final Energy:  -645.48472452197825

   => Energetics <=

    Nuclear Repulsion Energy =            349.8350841279710153
    One-Electron Energy =               -1578.8891048254090492
    Two-Electron Energy =                 583.5692961754598400
    Total Energy =                       -645.4847245219782508
  Basis Set: (AUG-CC-PVTZ AUX)
    Blend: AUG-CC-PVTZ-RI
    Molecular point group: c1

    Geometry (in Angstrom), charge = 0, multiplicity = 1:

       Center              X                  Y                   Z               Mass
    ------------   -----------------  -----------------  -----------------  -----------------
         S           -0.784484060913    -1.176593916619     0.043774656523    31.972071174400
         N           -0.098979860913     1.317274083381    -0.249691243477    14.003074004430
         C            1.840092139087    -0.194013916619    -0.569548243477    12.000000000000
         C            0.394151139087     0.095859083381    -0.308546243477    12.000000000000
         C            2.713235139087     0.202010083381     0.623729756523    12.000000000000
         C           -1.973558860913     0.037768083381     0.263400756523    12.000000000000
         C           -1.433224860913     1.286341083381     0.068207756523    12.000000000000
         H            1.970195139087    -1.255899916619    -0.804919243477     1.007825032230
         H            2.139999139087     0.374275083381    -1.456161243477     1.007825032230
         H            2.579849139087     1.263284083381     0.844386756523     1.007825032230
         H            3.770139139087     0.017038083381     0.410389756523     1.007825032230
         H            2.435559139087    -0.371679916619     1.512413756523     1.007825032230
         H           -2.994017860913    -0.223471916619     0.509963756523     1.007825032230
         H           -1.984410860913     2.217326083381     0.144795756523     1.007825032230

  Basis Set: AUG-CC-PVTZ
    Blend: AUG-CC-PVTZ
  Basis Set: (AUG-CC-PVTZ AUX)
    Blend: AUG-CC-PVTZ-JKFIT
	 Reference Energy          =    -645.4847245219782508 [Eh]
	 Singles Energy            =      -0.0000000000000000 [Eh]
	 Same-Spin Energy          =      -0.3322154764158662 [Eh]
	 Opposite-Spin Energy      =      -1.0401634274031262 [Eh]
	 Correlation Energy        =      -1.3723789038189924 [Eh]
	 Total Energy              =    -646.8571034257972769 [Eh]

	 ================> DF-SCS-MP2 Energies <==================
	-----------------------------------------------------------
	 SCS Same-Spin Scale       =       0.3333333333333333 [-]
	 SCS Opposite-Spin Scale   =       1.2000000000000000 [-]
	 SCS Same-Spin Energy      =      -0.1107384921386221 [Eh]
	 SCS Opposite-Spin Energy  =      -1.2481961128837513 [Eh]
	 SCS Correlation Energy    =      -1.3589346050223734 [Eh]
	 SCS Total Energy          =    -646.8436591270005920 [Eh]
	-----------------------------------------------------------

  Dipole Moment: [D]
     X:    -0.3005      Y:    -1.2174      Z:     0.2592     Total:     1.2805

*** Psi4 exiting successfully. Buy a developer a beer!
