                               Psi4 1.3.2 release

  ==> Input File <==

--------------------------------------------------------------------------
#psi4
#
memory 32 gb

molecule  {
0 1
  S       -0.8349460    -1.1774250     0.0297960
  N       -0.1696500     1.2952110    -0.2577190
  C        1.7694220    -0.2160770    -0.5775760
  C        0.3175757     0.0645072    -0.3402817
  C        2.6425650     0.1799470     0.6157020
  C       -2.0442290     0.0157050     0.2553730
  C       -1.5038950     1.2642780     0.0601800
  H        1.8995250    -1.2779630    -0.8129470
  H        2.0693290     0.3522120    -1.4641890
  H        2.5091790     1.2412210     0.8363590
  H        3.6994690    -0.0050250     0.4023620
  H        2.3648890    -0.3937430     1.5043860
  H       -3.0646880    -0.2455350     0.5019360
  H       -2.0550810     2.1952630     0.1367680
units angstrom
no_reorient  #important for SAPT in psi4, default
symmetry c1  #important for SAPT in psi4, default
}

set PROPERTIES_ORIGIN ["COM"]
properties('MP2/aug-cc-pvtz', properties = ['dipole'])
--------------------------------------------------------------------------

    Molecular point group: c1
  Charge       = 0
  Multiplicity = 1
  Basis Set: AUG-CC-PVTZ
    Blend: AUG-CC-PVTZ
  Basis Set: (AUG-CC-PVTZ AUX)
    Blend: AUG-CC-PVTZ-JKFIT

    Orbital Energies [Eh]
    ---------------------

    Doubly Occupied:

       1A    -91.995113     2A    -15.565532     3A    -11.312927
       4A    -11.269211     5A    -11.261084     6A    -11.245655
       7A    -11.224290     8A     -8.995896     9A     -6.676800
      10A     -6.676293    11A     -6.675582    12A     -1.272858
      13A     -1.071804    14A     -1.061648    15A     -0.975448
      16A     -0.870663    17A     -0.790991    18A     -0.729451
      19A     -0.680415    20A     -0.628759    21A     -0.601458
      22A     -0.571714    23A     -0.555552    24A     -0.520060
      25A     -0.510727    26A     -0.503452    27A     -0.496454
      28A     -0.425585    29A     -0.386806    30A     -0.328597

  @DF-RHF Final Energy:  -645.48508248159874

   => Energetics <=

    Nuclear Repulsion Energy =            350.9327352156323059
    One-Electron Energy =               -1581.0739911100224617
    Two-Electron Energy =                 584.6561734127915315
    Total Energy =                       -645.4850824815987380
  Basis Set: (AUG-CC-PVTZ AUX)
    Blend: AUG-CC-PVTZ-RI
    Molecular point group: c1

    Geometry (in Angstrom), charge = 0, multiplicity = 1:

       Center              X                  Y                   Z               Mass
    ------------   -----------------  -----------------  -----------------  -----------------
         S           -0.769365083365    -1.160381520394     0.042024016035    31.972071174400
         N           -0.104069083365     1.312254479606    -0.245490983965    14.003074004430
         C            1.835002916635    -0.199033520394    -0.565347983965    12.000000000000
         C            0.383156616635     0.081550679606    -0.328053683965    12.000000000000
         C            2.708145916635     0.196990479606     0.627930016035    12.000000000000
         C           -1.978648083365     0.032748479606     0.267601016035    12.000000000000
         C           -1.438314083365     1.281321479606     0.072408016035    12.000000000000
         H            1.965105916635    -1.260919520394    -0.800718983965     1.007825032230
         H            2.134909916635     0.369255479606    -1.451960983965     1.007825032230
         H            2.574759916635     1.258264479606     0.848587016035     1.007825032230
         H            3.765049916635     0.012018479606     0.414590016035     1.007825032230
         H            2.430469916635    -0.376699520394     1.516614016035     1.007825032230
         H           -2.999107083365    -0.228491520394     0.514164016035     1.007825032230
         H           -1.989500083365     2.212306479606     0.148996016035     1.007825032230

  Basis Set: AUG-CC-PVTZ
    Blend: AUG-CC-PVTZ
  Basis Set: (AUG-CC-PVTZ AUX)
    Blend: AUG-CC-PVTZ-JKFIT
	 Reference Energy          =    -645.4850824815987380 [Eh]
	 Singles Energy            =      -0.0000000000000000 [Eh]
	 Same-Spin Energy          =      -0.3325505545545420 [Eh]
	 Opposite-Spin Energy      =      -1.0400084907789151 [Eh]
	 Correlation Energy        =      -1.3725590453334571 [Eh]
	 Total Energy              =    -646.8576415269321842 [Eh]

	 ================> DF-SCS-MP2 Energies <==================
	-----------------------------------------------------------
	 SCS Same-Spin Scale       =       0.3333333333333333 [-]
	 SCS Opposite-Spin Scale   =       1.2000000000000000 [-]
	 SCS Same-Spin Energy      =      -0.1108501848515140 [Eh]
	 SCS Opposite-Spin Energy  =      -1.2480101889346982 [Eh]
	 SCS Correlation Energy    =      -1.3588603737862122 [Eh]
	 SCS Total Energy          =    -646.8439428553849666 [Eh]
	-----------------------------------------------------------

  Dipole Moment: [D]
     X:    -0.3521      Y:    -1.2694      Z:     0.2863     Total:     1.3481

*** Psi4 exiting successfully. Buy a developer a beer!
