                               Psi4 1.3.2 release

  ==> Input File <==

--------------------------------------------------------------------------
#psi4
#
memory 32 gb

molecule  {
0 1
  S       -0.7956408    -1.1338773     0.0181021
  N       -0.1696500     1.2952110    -0.2577190
  C        1.7694220    -0.2160770    -0.5775760
  C        0.3234810     0.0737960    -0.3165740
  C        2.6425650     0.1799470     0.6157020
  C       -2.0442290     0.0157050     0.2553730
  C       -1.5038950     1.2642780     0.0601800
  H        1.8995250    -1.2779630    -0.8129470
  H        2.0693290     0.3522120    -1.4641890
  H        2.5091790     1.2412210     0.8363590
  H        3.6994690    -0.0050250     0.4023620
  H        2.3648890    -0.3937430     1.5043860
  H       -3.0646880    -0.2455350     0.5019360
  H       -2.0550810     2.1952630     0.1367680
units angstrom
no_reorient  #important for SAPT in psi4, default
symmetry c1  #important for SAPT in psi4, default
}

set PROPERTIES_ORIGIN ["COM"]
properties('MP2/aug-cc-pvtz', properties = ['dipole'])
--------------------------------------------------------------------------

    Molecular point group: c1
  Charge       = 0
  Multiplicity = 1
  Basis Set: AUG-CC-PVTZ
    Blend: AUG-CC-PVTZ
  Basis Set: (AUG-CC-PVTZ AUX)
    Blend: AUG-CC-PVTZ-JKFIT

    Orbital Energies [Eh]
    ---------------------

    Doubly Occupied:

       1A    -91.993115     2A    -15.561521     3A    -11.306237
       4A    -11.269211     5A    -11.260243     6A    -11.245239
       7A    -11.223802     8A     -8.995229     9A     -6.676204
      10A     -6.675678    11A     -6.674911    12A     -1.278649
      13A     -1.073135    14A     -1.064497    15A     -0.979969
      16A     -0.869830    17A     -0.793585    18A     -0.730649
      19A     -0.681378    20A     -0.629068    21A     -0.604264
      22A     -0.573810    23A     -0.561003    24A     -0.520006
      25A     -0.511497    26A     -0.503649    27A     -0.494353
      28A     -0.424117    29A     -0.384537    30A     -0.332533

  @DF-RHF Final Energy:  -645.48558833368099

   => Energetics <=

    Nuclear Repulsion Energy =            353.4321139459842698
    One-Electron Energy =               -1586.0515666054282065
    Two-Electron Energy =                 587.1338643257630565
    Total Energy =                       -645.4855883336809939
  Basis Set: (AUG-CC-PVTZ AUX)
    Blend: AUG-CC-PVTZ-RI
    Molecular point group: c1

    Geometry (in Angstrom), charge = 0, multiplicity = 1:

       Center              X                  Y                   Z               Mass
    ------------   -----------------  -----------------  -----------------  -----------------
         S           -0.741804846533    -1.130138047793     0.031120931447    31.972071174400
         N           -0.115814046533     1.298950252207    -0.244700168553    14.003074004430
         C            1.823257953467    -0.212337747793    -0.564557168553    12.000000000000
         C            0.377316953467     0.077535252207    -0.303555168553    12.000000000000
         C            2.696400953467     0.183686252207     0.628720831447    12.000000000000
         C           -1.990393046533     0.019444252207     0.268391831447    12.000000000000
         C           -1.450059046533     1.268017252207     0.073198831447    12.000000000000
         H            1.953360953467    -1.274223747793    -0.799928168553     1.007825032230
         H            2.123164953467     0.355951252207    -1.451170168553     1.007825032230
         H            2.563014953467     1.244960252207     0.849377831447     1.007825032230
         H            3.753304953467    -0.001285747793     0.415380831447     1.007825032230
         H            2.418724953467    -0.390003747793     1.517404831447     1.007825032230
         H           -3.010852046533    -0.241795747793     0.514954831447     1.007825032230
         H           -2.001245046533     2.199002252207     0.149786831447     1.007825032230

  Basis Set: AUG-CC-PVTZ
    Blend: AUG-CC-PVTZ
  Basis Set: (AUG-CC-PVTZ AUX)
    Blend: AUG-CC-PVTZ-JKFIT
	 Reference Energy          =    -645.4855883336809939 [Eh]
	 Singles Energy            =      -0.0000000000000000 [Eh]
	 Same-Spin Energy          =      -0.3326610198896698 [Eh]
	 Opposite-Spin Energy      =      -1.0389551604395215 [Eh]
	 Correlation Energy        =      -1.3716161803291913 [Eh]
	 Total Energy              =    -646.8572045140101636 [Eh]

	 ================> DF-SCS-MP2 Energies <==================
	-----------------------------------------------------------
	 SCS Same-Spin Scale       =       0.3333333333333333 [-]
	 SCS Opposite-Spin Scale   =       1.2000000000000000 [-]
	 SCS Same-Spin Energy      =      -0.1108870066298899 [Eh]
	 SCS Opposite-Spin Energy  =      -1.2467461925274257 [Eh]
	 SCS Correlation Energy    =      -1.3576331991573156 [Eh]
	 SCS Total Energy          =    -646.8432215328383563 [Eh]
	-----------------------------------------------------------

  Dipole Moment: [D]
     X:    -0.3834      Y:    -1.3112      Z:     0.2785     Total:     1.3943

*** Psi4 exiting successfully. Buy a developer a beer!
