                               Psi4 1.3.2 release

  ==> Input File <==

--------------------------------------------------------------------------
#psi4
#
memory 32 gb

molecule  {
0 1
  S       -0.8349460    -1.1774250     0.0297960
  N       -0.1696500     1.2952110    -0.2577190
  C        1.7694220    -0.2160770    -0.5775760
  C        0.4200297     0.0544405    -0.3340017
  C        2.6425650     0.1799470     0.6157020
  C       -2.0442290     0.0157050     0.2553730
  C       -1.5038950     1.2642780     0.0601800
  H        1.8995250    -1.2779630    -0.8129470
  H        2.0693290     0.3522120    -1.4641890
  H        2.5091790     1.2412210     0.8363590
  H        3.6994690    -0.0050250     0.4023620
  H        2.3648890    -0.3937430     1.5043860
  H       -3.0646880    -0.2455350     0.5019360
  H       -2.0550810     2.1952630     0.1367680
units angstrom
no_reorient  #important for SAPT in psi4, default
symmetry c1  #important for SAPT in psi4, default
}

set PROPERTIES_ORIGIN ["COM"]
properties('MP2/aug-cc-pvtz', properties = ['dipole'])
--------------------------------------------------------------------------

    Molecular point group: c1
  Charge       = 0
  Multiplicity = 1
  Basis Set: AUG-CC-PVTZ
    Blend: AUG-CC-PVTZ
  Basis Set: (AUG-CC-PVTZ AUX)
    Blend: AUG-CC-PVTZ-JKFIT

    Orbital Energies [Eh]
    ---------------------

    Doubly Occupied:

       1A    -91.993691     2A    -15.568123     3A    -11.321665
       4A    -11.268761     5A    -11.261224     6A    -11.243910
       7A    -11.228697     8A     -8.993145     9A     -6.673988
      10A     -6.673573    11A     -6.672928    12A     -1.254738
      13A     -1.094785    14A     -1.050369    15A     -0.971326
      16A     -0.884903    17A     -0.784669    18A     -0.730463
      19A     -0.678689    20A     -0.637566    21A     -0.612626
      22A     -0.574920    23A     -0.552824    24A     -0.525761
      25A     -0.514821    26A     -0.501216    27A     -0.495170
      28A     -0.412401    29A     -0.380980    30A     -0.320876

  @DF-RHF Final Energy:  -645.46672691421509

   => Energetics <=

    Nuclear Repulsion Energy =            350.0667639675050964
    One-Electron Energy =               -1579.3093662650651368
    Two-Electron Energy =                 583.7758753833450101
    Total Energy =                       -645.4667269142150872
  Basis Set: (AUG-CC-PVTZ AUX)
    Blend: AUG-CC-PVTZ-RI
    Molecular point group: c1

    Geometry (in Angstrom), charge = 0, multiplicity = 1:

       Center              X                  Y                   Z               Mass
    ------------   -----------------  -----------------  -----------------  -----------------
         S           -0.780242274074    -1.159312773291     0.041357289918    31.972071174400
         N           -0.114946274074     1.313323226709    -0.246157710082    14.003074004430
         C            1.824125725926    -0.197964773291    -0.566014710082    12.000000000000
         C            0.474733425926     0.072552726709    -0.322440410082    12.000000000000
         C            2.697268725926     0.198059226709     0.627263289918    12.000000000000
         C           -1.989525274074     0.033817226709     0.266934289918    12.000000000000
         C           -1.449191274074     1.282390226709     0.071741289918    12.000000000000
         H            1.954228725926    -1.259850773291    -0.801385710082     1.007825032230
         H            2.124032725926     0.370324226709    -1.452627710082     1.007825032230
         H            2.563882725926     1.259333226709     0.847920289918     1.007825032230
         H            3.754172725926     0.013087226709     0.413923289918     1.007825032230
         H            2.419592725926    -0.375630773291     1.515947289918     1.007825032230
         H           -3.009984274074    -0.227422773291     0.513497289918     1.007825032230
         H           -2.000377274074     2.213375226709     0.148329289918     1.007825032230

  Basis Set: AUG-CC-PVTZ
    Blend: AUG-CC-PVTZ
  Basis Set: (AUG-CC-PVTZ AUX)
    Blend: AUG-CC-PVTZ-JKFIT
	 Reference Energy          =    -645.4667269142150872 [Eh]
	 Singles Energy            =      -0.0000000000000000 [Eh]
	 Same-Spin Energy          =      -0.3350720240345282 [Eh]
	 Opposite-Spin Energy      =      -1.0438826335758609 [Eh]
	 Correlation Energy        =      -1.3789546576103890 [Eh]
	 Total Energy              =    -646.8456815718254802 [Eh]

	 ================> DF-SCS-MP2 Energies <==================
	-----------------------------------------------------------
	 SCS Same-Spin Scale       =       0.3333333333333333 [-]
	 SCS Opposite-Spin Scale   =       1.2000000000000000 [-]
	 SCS Same-Spin Energy      =      -0.1116906746781761 [Eh]
	 SCS Opposite-Spin Energy  =      -1.2526591602910331 [Eh]
	 SCS Correlation Energy    =      -1.3643498349692091 [Eh]
	 SCS Total Energy          =    -646.8310767491842626 [Eh]
	-----------------------------------------------------------

  Dipole Moment: [D]
     X:    -0.1263      Y:    -1.1930      Z:     0.2401     Total:     1.2235

*** Psi4 exiting successfully. Buy a developer a beer!
