                               Psi4 1.3.2 release

  ==> Input File <==

--------------------------------------------------------------------------
#psi4
#
memory 32 gb

molecule  {
0 1
  S       -0.8349460    -1.1774250     0.0297960
  N       -0.0848198     1.3267937    -0.2743368
  C        1.7694220    -0.2160770    -0.5775760
  C        0.3234810     0.0737960    -0.3165740
  C        2.6425650     0.1799470     0.6157020
  C       -2.0442290     0.0157050     0.2553730
  C       -1.5038950     1.2642780     0.0601800
  H        1.8995250    -1.2779630    -0.8129470
  H        2.0693290     0.3522120    -1.4641890
  H        2.5091790     1.2412210     0.8363590
  H        3.6994690    -0.0050250     0.4023620
  H        2.3648890    -0.3937430     1.5043860
  H       -3.0646880    -0.2455350     0.5019360
  H       -2.0550810     2.1952630     0.1367680
units angstrom
no_reorient  #important for SAPT in psi4, default
symmetry c1  #important for SAPT in psi4, default
}

set PROPERTIES_ORIGIN ["COM"]
properties('MP2/aug-cc-pvtz', properties = ['dipole'])
--------------------------------------------------------------------------

    Molecular point group: c1
  Charge       = 0
  Multiplicity = 1
  Basis Set: AUG-CC-PVTZ
    Blend: AUG-CC-PVTZ
  Basis Set: (AUG-CC-PVTZ AUX)
    Blend: AUG-CC-PVTZ-JKFIT

    Orbital Energies [Eh]
    ---------------------

    Doubly Occupied:

       1A    -91.995203     2A    -15.574769     3A    -11.313384
       4A    -11.277388     5A    -11.265910     6A    -11.242852
       7A    -11.222921     8A     -8.996140     9A     -6.677112
      10A     -6.676495    11A     -6.675728    12A     -1.259511
      13A     -1.073807    14A     -1.058915    15A     -0.971622
      16A     -0.869102    17A     -0.785511    18A     -0.727137
      19A     -0.677251    20A     -0.627232    21A     -0.597741
      22A     -0.562548    23A     -0.554043    24A     -0.516067
      25A     -0.508428    26A     -0.506643    27A     -0.494563
      28A     -0.433534    29A     -0.385903    30A     -0.333680

  @DF-RHF Final Energy:  -645.47766306826168

   => Energetics <=

    Nuclear Repulsion Energy =            349.5323426214796427
    One-Electron Energy =               -1578.2977295129810500
    Two-Electron Energy =                 583.2877238232396166
    Total Energy =                       -645.4776630682616769
  Basis Set: (AUG-CC-PVTZ AUX)
    Blend: AUG-CC-PVTZ-RI
    Molecular point group: c1

    Geometry (in Angstrom), charge = 0, multiplicity = 1:

       Center              X                  Y                   Z               Mass
    ------------   -----------------  -----------------  -----------------  -----------------
         S           -0.780501490114    -1.165280404543     0.041565800046    31.972071174400
         N           -0.030375290114     1.338938295457    -0.262566999954    14.003074004430
         C            1.823866509886    -0.203932404543    -0.565806199954    12.000000000000
         C            0.377925509886     0.085940595457    -0.304804199954    12.000000000000
         C            2.697009509886     0.192091595457     0.627471800046    12.000000000000
         C           -1.989784490114     0.027849595457     0.267142800046    12.000000000000
         C           -1.449450490114     1.276422595457     0.071949800046    12.000000000000
         H            1.953969509886    -1.265818404543    -0.801177199954     1.007825032230
         H            2.123773509886     0.364356595457    -1.452419199954     1.007825032230
         H            2.563623509886     1.253365595457     0.848128800046     1.007825032230
         H            3.753913509886     0.007119595457     0.414131800046     1.007825032230
         H            2.419333509886    -0.381598404543     1.516155800046     1.007825032230
         H           -3.010243490114    -0.233390404543     0.513705800046     1.007825032230
         H           -2.000636490114     2.207407595457     0.148537800046     1.007825032230

  Basis Set: AUG-CC-PVTZ
    Blend: AUG-CC-PVTZ
  Basis Set: (AUG-CC-PVTZ AUX)
    Blend: AUG-CC-PVTZ-JKFIT
	 Reference Energy          =    -645.4776630682616769 [Eh]
	 Singles Energy            =      -0.0000000000000000 [Eh]
	 Same-Spin Energy          =      -0.3313962655543028 [Eh]
	 Opposite-Spin Energy      =      -1.0411279523925485 [Eh]
	 Correlation Energy        =      -1.3725242179468513 [Eh]
	 Total Energy              =    -646.8501872862085520 [Eh]

	 ================> DF-SCS-MP2 Energies <==================
	-----------------------------------------------------------
	 SCS Same-Spin Scale       =       0.3333333333333333 [-]
	 SCS Opposite-Spin Scale   =       1.2000000000000000 [-]
	 SCS Same-Spin Energy      =      -0.1104654218514343 [Eh]
	 SCS Opposite-Spin Energy  =      -1.2493535428710583 [Eh]
	 SCS Correlation Energy    =      -1.3598189647224925 [Eh]
	 SCS Total Energy          =    -646.8374820329842123 [Eh]
	-----------------------------------------------------------

  Dipole Moment: [D]
     X:    -0.4933      Y:    -1.3259      Z:     0.2999     Total:     1.4461

*** Psi4 exiting successfully. Buy a developer a beer!
