                               Psi4 1.3.2 release

  ==> Input File <==

--------------------------------------------------------------------------
#psi4
#
memory 32 gb

molecule  {
0 1
  S       -0.8349460    -1.1774250     0.0297960
  N       -0.1696500     1.2952110    -0.2577190
  C        1.7694220    -0.2160770    -0.5775760
  C        0.2569034     0.0018853    -0.2966673
  C        2.6425650     0.1799470     0.6157020
  C       -2.0442290     0.0157050     0.2553730
  C       -1.5038950     1.2642780     0.0601800
  H        1.8995250    -1.2779630    -0.8129470
  H        2.0693290     0.3522120    -1.4641890
  H        2.5091790     1.2412210     0.8363590
  H        3.6994690    -0.0050250     0.4023620
  H        2.3648890    -0.3937430     1.5043860
  H       -3.0646880    -0.2455350     0.5019360
  H       -2.0550810     2.1952630     0.1367680
units angstrom
no_reorient  #important for SAPT in psi4, default
symmetry c1  #important for SAPT in psi4, default
}

set PROPERTIES_ORIGIN ["COM"]
properties('MP2/aug-cc-pvtz', properties = ['dipole'])
--------------------------------------------------------------------------

    Molecular point group: c1
  Charge       = 0
  Multiplicity = 1
  Basis Set: AUG-CC-PVTZ
    Blend: AUG-CC-PVTZ
  Basis Set: (AUG-CC-PVTZ AUX)
    Blend: AUG-CC-PVTZ-JKFIT

    Orbital Energies [Eh]
    ---------------------

    Doubly Occupied:

       1A    -92.001829     2A    -15.564778     3A    -11.308924
       4A    -11.269383     5A    -11.257238     6A    -11.246659
       7A    -11.221562     8A     -9.004347     9A     -6.685444
      10A     -6.684650    11A     -6.683982    12A     -1.269840
      13A     -1.073276    14A     -1.060456    15A     -0.978237
      16A     -0.862042    17A     -0.787659    18A     -0.733671
      19A     -0.679557    20A     -0.623911    21A     -0.595367
      22A     -0.564787    23A     -0.558658    24A     -0.519035
      25A     -0.509169    26A     -0.498061    27A     -0.493860
      28A     -0.436373    29A     -0.386363    30A     -0.330703

  @DF-RHF Final Energy:  -645.47442157954583

   => Energetics <=

    Nuclear Repulsion Energy =            351.8115511454437865
    One-Electron Energy =               -1582.7923024841720689
    Two-Electron Energy =                 585.5063297591823357
    Total Energy =                       -645.4744215795458331
  Basis Set: (AUG-CC-PVTZ AUX)
    Blend: AUG-CC-PVTZ-RI
    Molecular point group: c1

    Geometry (in Angstrom), charge = 0, multiplicity = 1:

       Center              X                  Y                   Z               Mass
    ------------   -----------------  -----------------  -----------------  -----------------
         S           -0.762923712820    -1.153733167486     0.037393624382    31.972071174400
         N           -0.097627712820     1.318902832514    -0.250121375618    14.003074004430
         C            1.841444287180    -0.192385167486    -0.569978375618    12.000000000000
         C            0.328925687180     0.025577132514    -0.289069675618    12.000000000000
         C            2.714587287180     0.203638832514     0.623299624382    12.000000000000
         C           -1.972206712820     0.039396832514     0.262970624382    12.000000000000
         C           -1.431872712820     1.287969832514     0.067777624382    12.000000000000
         H            1.971547287180    -1.254271167486    -0.805349375618     1.007825032230
         H            2.141351287180     0.375903832514    -1.456591375618     1.007825032230
         H            2.581201287180     1.264912832514     0.843956624382     1.007825032230
         H            3.771491287180     0.018666832514     0.409959624382     1.007825032230
         H            2.436911287180    -0.370051167486     1.511983624382     1.007825032230
         H           -2.992665712820    -0.221843167486     0.509533624382     1.007825032230
         H           -1.983058712820     2.218954832514     0.144365624382     1.007825032230

  Basis Set: AUG-CC-PVTZ
    Blend: AUG-CC-PVTZ
  Basis Set: (AUG-CC-PVTZ AUX)
    Blend: AUG-CC-PVTZ-JKFIT
	 Reference Energy          =    -645.4744215795458331 [Eh]
	 Singles Energy            =      -0.0000000000000000 [Eh]
	 Same-Spin Energy          =      -0.3334975335047142 [Eh]
	 Opposite-Spin Energy      =      -1.0410063805828740 [Eh]
	 Correlation Energy        =      -1.3745039140875881 [Eh]
	 Total Energy              =    -646.8489254936333737 [Eh]

	 ================> DF-SCS-MP2 Energies <==================
	-----------------------------------------------------------
	 SCS Same-Spin Scale       =       0.3333333333333333 [-]
	 SCS Opposite-Spin Scale   =       1.2000000000000000 [-]
	 SCS Same-Spin Energy      =      -0.1111658445015714 [Eh]
	 SCS Opposite-Spin Energy  =      -1.2492076566994488 [Eh]
	 SCS Correlation Energy    =      -1.3603735012010203 [Eh]
	 SCS Total Energy          =    -646.8347950807468578 [Eh]
	-----------------------------------------------------------

  Dipole Moment: [D]
     X:    -0.5815      Y:    -1.4962      Z:     0.3208     Total:     1.6370

*** Psi4 exiting successfully. Buy a developer a beer!
