                               Psi4 1.3.2 release

  ==> Input File <==

--------------------------------------------------------------------------
#psi4
#
memory 32 gb

molecule  {
0 1
  S       -0.8349460    -1.1774250     0.0297960
  N       -0.1696500     1.2952110    -0.2577190
  C        1.7694220    -0.2160770    -0.5775760
  C        0.3298267     0.0829965    -0.2929458
  C        2.6425650     0.1799470     0.6157020
  C       -2.0442290     0.0157050     0.2553730
  C       -1.5038950     1.2642780     0.0601800
  H        1.8995250    -1.2779630    -0.8129470
  H        2.0693290     0.3522120    -1.4641890
  H        2.5091790     1.2412210     0.8363590
  H        3.6994690    -0.0050250     0.4023620
  H        2.3648890    -0.3937430     1.5043860
  H       -3.0646880    -0.2455350     0.5019360
  H       -2.0550810     2.1952630     0.1367680
units angstrom
no_reorient  #important for SAPT in psi4, default
symmetry c1  #important for SAPT in psi4, default
}

set PROPERTIES_ORIGIN ["COM"]
properties('MP2/aug-cc-pvtz', properties = ['dipole'])
--------------------------------------------------------------------------

    Molecular point group: c1
  Charge       = 0
  Multiplicity = 1
  Basis Set: AUG-CC-PVTZ
    Blend: AUG-CC-PVTZ
  Basis Set: (AUG-CC-PVTZ AUX)
    Blend: AUG-CC-PVTZ-JKFIT

    Orbital Energies [Eh]
    ---------------------

    Doubly Occupied:

       1A    -91.993421     2A    -15.564946     3A    -11.312592
       4A    -11.269122     5A    -11.261430     6A    -11.245796
       7A    -11.224074     8A     -8.994135     9A     -6.675036
      10A     -6.674519    11A     -6.673802    12A     -1.276612
      13A     -1.072739    14A     -1.061453    15A     -0.974842
      16A     -0.869609    17A     -0.792708    18A     -0.729277
      19A     -0.681451    20A     -0.629209    21A     -0.602604
      22A     -0.572710    23A     -0.556625    24A     -0.516913
      25A     -0.513332    26A     -0.503896    27A     -0.496314
      28A     -0.424067    29A     -0.388026    30A     -0.328472

  @DF-RHF Final Energy:  -645.48629287788492

   => Energetics <=

    Nuclear Repulsion Energy =            351.0559750651132163
    One-Electron Energy =               -1581.3250837748614686
    Two-Electron Energy =                 584.7828158318633314
    Total Energy =                       -645.4862928778849209
  Basis Set: (AUG-CC-PVTZ AUX)
    Blend: AUG-CC-PVTZ-RI
    Molecular point group: c1

    Geometry (in Angstrom), charge = 0, multiplicity = 1:

       Center              X                  Y                   Z               Mass
    ------------   -----------------  -----------------  -----------------  -----------------
         S           -0.770665730128    -1.162344466128     0.036998525457    31.972071174400
         N           -0.105369730128     1.310291533872    -0.250516474543    14.003074004430
         C            1.833702269872    -0.200996466128    -0.570373474543    12.000000000000
         C            0.394106969872     0.098077033872    -0.285743274543    12.000000000000
         C            2.706845269872     0.195027533872     0.622904525457    12.000000000000
         C           -1.979948730128     0.030785533872     0.262575525457    12.000000000000
         C           -1.439614730128     1.279358533872     0.067382525457    12.000000000000
         H            1.963805269872    -1.262882466128    -0.805744474543     1.007825032230
         H            2.133609269872     0.367292533872    -1.456986474543     1.007825032230
         H            2.573459269872     1.256301533872     0.843561525457     1.007825032230
         H            3.763749269872     0.010055533872     0.409564525457     1.007825032230
         H            2.429169269872    -0.378662466128     1.511588525457     1.007825032230
         H           -3.000407730128    -0.230454466128     0.509138525457     1.007825032230
         H           -1.990800730128     2.210343533872     0.143970525457     1.007825032230

  Basis Set: AUG-CC-PVTZ
    Blend: AUG-CC-PVTZ
  Basis Set: (AUG-CC-PVTZ AUX)
    Blend: AUG-CC-PVTZ-JKFIT
	 Reference Energy          =    -645.4862928778849209 [Eh]
	 Singles Energy            =      -0.0000000000000000 [Eh]
	 Same-Spin Energy          =      -0.3321457719735784 [Eh]
	 Opposite-Spin Energy      =      -1.0394838633566099 [Eh]
	 Correlation Energy        =      -1.3716296353301884 [Eh]
	 Total Energy              =    -646.8579225132151578 [Eh]

	 ================> DF-SCS-MP2 Energies <==================
	-----------------------------------------------------------
	 SCS Same-Spin Scale       =       0.3333333333333333 [-]
	 SCS Opposite-Spin Scale   =       1.2000000000000000 [-]
	 SCS Same-Spin Energy      =      -0.1107152573245261 [Eh]
	 SCS Opposite-Spin Energy  =      -1.2473806360279318 [Eh]
	 SCS Correlation Energy    =      -1.3580958933524578 [Eh]
	 SCS Total Energy          =    -646.8443887712373908 [Eh]
	-----------------------------------------------------------

  Dipole Moment: [D]
     X:    -0.3148      Y:    -1.2327      Z:     0.2479     Total:     1.2962

*** Psi4 exiting successfully. Buy a developer a beer!
