                               Psi4 1.3.2 release

  ==> Input File <==

--------------------------------------------------------------------------
#psi4
#
memory 32 gb

molecule  {
0 1
  S       -0.8349460    -1.1774250     0.0297960
  N       -0.1696500     1.2952110    -0.2577190
  C        1.7694220    -0.2160770    -0.5775760
  C        0.5165783     0.0350851    -0.3514294
  C        2.6425650     0.1799470     0.6157020
  C       -2.0442290     0.0157050     0.2553730
  C       -1.5038950     1.2642780     0.0601800
  H        1.8995250    -1.2779630    -0.8129470
  H        2.0693290     0.3522120    -1.4641890
  H        2.5091790     1.2412210     0.8363590
  H        3.6994690    -0.0050250     0.4023620
  H        2.3648890    -0.3937430     1.5043860
  H       -3.0646880    -0.2455350     0.5019360
  H       -2.0550810     2.1952630     0.1367680
units angstrom
no_reorient  #important for SAPT in psi4, default
symmetry c1  #important for SAPT in psi4, default
}

set PROPERTIES_ORIGIN ["COM"]
properties('MP2/aug-cc-pvtz', properties = ['dipole'])
--------------------------------------------------------------------------

    Molecular point group: c1
  Charge       = 0
  Multiplicity = 1
  Basis Set: AUG-CC-PVTZ
    Blend: AUG-CC-PVTZ
  Basis Set: (AUG-CC-PVTZ AUX)
    Blend: AUG-CC-PVTZ-JKFIT

    Orbital Energies [Eh]
    ---------------------

    Doubly Occupied:

       1A    -91.992082     2A    -15.569419     3A    -11.330148
       4A    -11.267989     5A    -11.259943     6A    -11.241579
       7A    -11.234934     8A     -8.990441     9A     -6.671242
      10A     -6.670855    11A     -6.670271    12A     -1.238454
      13A     -1.123383    14A     -1.039904    15A     -0.967358
      16A     -0.898447    17A     -0.777356    18A     -0.732527
      19A     -0.676074    20A     -0.648206    21A     -0.623791
      22A     -0.583556    23A     -0.551026    24A     -0.535972
      25A     -0.510014    26A     -0.501763    27A     -0.487556
      28A     -0.396198    29A     -0.374511    30A     -0.310501

  @DF-RHF Final Energy:  -645.41632066026625

   => Energetics <=

    Nuclear Repulsion Energy =            349.3473217952349046
    One-Electron Energy =               -1577.7762820165194171
    Two-Electron Energy =                 583.0126395610183181
    Total Energy =                       -645.4163206602662513
  Basis Set: (AUG-CC-PVTZ AUX)
    Blend: AUG-CC-PVTZ-RI
    Molecular point group: c1

    Geometry (in Angstrom), charge = 0, multiplicity = 1:

       Center              X                  Y                   Z               Mass
    ------------   -----------------  -----------------  -----------------  -----------------
         S           -0.790492508665    -1.157257876683     0.043207529210    31.972071174400
         N           -0.125196508665     1.315378123317    -0.244307470790    14.003074004430
         C            1.813875491335    -0.195909876683    -0.564164470790    12.000000000000
         C            0.561031791335     0.055252223317    -0.338017870790    12.000000000000
         C            2.687018491335     0.200114123317     0.629113529210    12.000000000000
         C           -1.999775508665     0.035872123317     0.268784529210    12.000000000000
         C           -1.459441508665     1.284445123317     0.073591529210    12.000000000000
         H            1.943978491335    -1.257795876683    -0.799535470790     1.007825032230
         H            2.113782491335     0.372379123317    -1.450777470790     1.007825032230
         H            2.553632491335     1.261388123317     0.849770529210     1.007825032230
         H            3.743922491335     0.015142123317     0.415773529210     1.007825032230
         H            2.409342491335    -0.373575876683     1.517797529210     1.007825032230
         H           -3.020234508665    -0.225367876683     0.515347529210     1.007825032230
         H           -2.010627508665     2.215430123317     0.150179529210     1.007825032230

  Basis Set: AUG-CC-PVTZ
    Blend: AUG-CC-PVTZ
  Basis Set: (AUG-CC-PVTZ AUX)
    Blend: AUG-CC-PVTZ-JKFIT
	 Reference Energy          =    -645.4163206602662513 [Eh]
	 Singles Energy            =      -0.0000000000000000 [Eh]
	 Same-Spin Energy          =      -0.3390186669036832 [Eh]
	 Opposite-Spin Energy      =      -1.0501346298923855 [Eh]
	 Correlation Energy        =      -1.3891532967960687 [Eh]
	 Total Energy              =    -646.8054739570623042 [Eh]

	 ================> DF-SCS-MP2 Energies <==================
	-----------------------------------------------------------
	 SCS Same-Spin Scale       =       0.3333333333333333 [-]
	 SCS Opposite-Spin Scale   =       1.2000000000000000 [-]
	 SCS Same-Spin Energy      =      -0.1130062223012277 [Eh]
	 SCS Opposite-Spin Energy  =      -1.2601615558708625 [Eh]
	 SCS Correlation Energy    =      -1.3731677781720903 [Eh]
	 SCS Total Energy          =    -646.7894884384382976 [Eh]
	-----------------------------------------------------------

  Dipole Moment: [D]
     X:     0.1329      Y:    -1.1426      Z:     0.2051     Total:     1.1684

*** Psi4 exiting successfully. Buy a developer a beer!
