                               Psi4 1.4a3.dev225

  ==> Input File <==

--------------------------------------------------------------------------
#psi4
#
memory 32 gb

molecule  {
0 1
  S       -0.8349460    -1.1774250     0.0297960
  N       -0.1696500     1.2952110    -0.2577190
  C        1.7694220    -0.2160770    -0.5775760
  C        0.3101655     0.0594139    -0.3125927
  C        2.6425650     0.1799470     0.6157020
  C       -2.0442290     0.0157050     0.2553730
  C       -1.5038950     1.2642780     0.0601800
  H        1.8995250    -1.2779630    -0.8129470
  H        2.0693290     0.3522120    -1.4641890
  H        2.5091790     1.2412210     0.8363590
  H        3.6994690    -0.0050250     0.4023620
  H        2.3648890    -0.3937430     1.5043860
  H       -3.0646880    -0.2455350     0.5019360
  H       -2.0550810     2.1952630     0.1367680
units angstrom
no_reorient  #important for SAPT in psi4, default
symmetry c1  #important for SAPT in psi4, default
}

set PROPERTIES_ORIGIN ["COM"]
properties('MP2/aug-cc-pvtz', properties = ['dipole'])
--------------------------------------------------------------------------

    Molecular point group: c1
  Charge       = 0
  Multiplicity = 1
  Basis Set: AUG-CC-PVTZ
    Blend: AUG-CC-PVTZ
  Basis Set: (AUG-CC-PVTZ AUX)
    Blend: AUG-CC-PVTZ-JKFIT

    Orbital Energies [Eh]
    ---------------------

    Doubly Occupied:

       1A    -91.995994     2A    -15.565072     3A    -11.311960
       4A    -11.269206     5A    -11.260518     6A    -11.245770
       7A    -11.223585     8A     -8.997019     9A     -6.677941
      10A     -6.677415    11A     -6.676696    12A     -1.273674
      13A     -1.069867    14A     -1.063406    15A     -0.975949
      16A     -0.868458    17A     -0.791018    18A     -0.730325
      19A     -0.680674    20A     -0.627920    21A     -0.600185
      22A     -0.570599    23A     -0.556669    24A     -0.518257
      25A     -0.509548    26A     -0.504845    27A     -0.496342
      28A     -0.427585    29A     -0.387028    30A     -0.329231

  @DF-RHF Final Energy:  -645.48524731549844

   => Energetics <=

    Nuclear Repulsion Energy =            351.1542803024150885
    One-Electron Energy =               -1581.5135437934393394
    Two-Electron Energy =                 584.8740161755257532
    Total Energy =                       -645.4852473154984409
  Basis Set: (AUG-CC-PVTZ AUX)
    Blend: AUG-CC-PVTZ-RI
    Molecular point group: c1

    Geometry (in Angstrom), charge = 0, multiplicity = 1:

       Center              X                  Y                   Z               Mass
    ------------   -----------------  -----------------  -----------------  -----------------
         S           -0.768578367780    -1.159840782156     0.039084369623    31.972071174400
         N           -0.103282367780     1.312795217844    -0.248430630377    14.003074004430
         C            1.835789632220    -0.198492782156    -0.568287630377    12.000000000000
         C            0.376533132220     0.076998117844    -0.303304330377    12.000000000000
         C            2.708932632220     0.197531217844     0.624990369623    12.000000000000
         C           -1.977861367780     0.033289217844     0.264661369623    12.000000000000
         C           -1.437527367780     1.281862217844     0.069468369623    12.000000000000
         H            1.965892632220    -1.260378782156    -0.803658630377     1.007825032230
         H            2.135696632220     0.369796217844    -1.454900630377     1.007825032230
         H            2.575546632220     1.258805217844     0.845647369623     1.007825032230
         H            3.765836632220     0.012559217844     0.411650369623     1.007825032230
         H            2.431256632220    -0.376158782156     1.513674369623     1.007825032230
         H           -2.998320367780    -0.227950782156     0.511224369623     1.007825032230
         H           -1.988713367780     2.212847217844     0.146056369623     1.007825032230

  Basis Set: AUG-CC-PVTZ
    Blend: AUG-CC-PVTZ
  Basis Set: (AUG-CC-PVTZ AUX)
    Blend: AUG-CC-PVTZ-JKFIT
	 Reference Energy          =    -645.4852473154984409 [Eh]
	 Singles Energy            =      -0.0000000000000000 [Eh]
	 Same-Spin Energy          =      -0.3324925522562445 [Eh]
	 Opposite-Spin Energy      =      -1.0398498729414967 [Eh]
	 Correlation Energy        =      -1.3723424251977412 [Eh]
	 Total Energy              =    -646.8575897406961985 [Eh]

	 ================> DF-SCS-MP2 Energies <==================
	-----------------------------------------------------------
	 SCS Same-Spin Scale       =       0.3333333333333333 [-]
	 SCS Opposite-Spin Scale   =       1.2000000000000000 [-]
	 SCS Same-Spin Energy      =      -0.1108308507520815 [Eh]
	 SCS Opposite-Spin Energy  =      -1.2478198475297959 [Eh]
	 SCS Correlation Energy    =      -1.3586506982818773 [Eh]
	 SCS Total Energy          =    -646.8438980137802901 [Eh]
	-----------------------------------------------------------

  Dipole Moment: [D]
     X:    -0.3916      Y:    -1.3070      Z:     0.2791     Total:     1.3927

*** Psi4 exiting successfully. Buy a developer a beer!
