                               Psi4 1.3.2 release

  ==> Input File <==

--------------------------------------------------------------------------
#psi4
#
memory 32 gb

molecule  {
0 1
  S       -0.8349460    -1.1774250     0.0297960
  N       -0.1696500     1.2952110    -0.2577190
  C        1.7694220    -0.2160770    -0.5775760
  C        0.3234810     0.0737960    -0.3165740
  C        2.6425650     0.1799470     0.6157020
  C       -1.9132403    -0.0370036     0.2278052
  C       -1.5038950     1.2642780     0.0601800
  H        1.8995250    -1.2779630    -0.8129470
  H        2.0693290     0.3522120    -1.4641890
  H        2.5091790     1.2412210     0.8363590
  H        3.6994690    -0.0050250     0.4023620
  H        2.3648890    -0.3937430     1.5043860
  H       -3.0646880    -0.2455350     0.5019360
  H       -2.0550810     2.1952630     0.1367680
units angstrom
no_reorient  #important for SAPT in psi4, default
symmetry c1  #important for SAPT in psi4, default
}

set PROPERTIES_ORIGIN ["COM"]
properties('MP2/aug-cc-pvtz', properties = ['dipole'])
--------------------------------------------------------------------------

    Molecular point group: c1
  Charge       = 0
  Multiplicity = 1
  Basis Set: AUG-CC-PVTZ
    Blend: AUG-CC-PVTZ
  Basis Set: (AUG-CC-PVTZ AUX)
    Blend: AUG-CC-PVTZ-JKFIT

    Orbital Energies [Eh]
    ---------------------

    Doubly Occupied:

       1A    -91.995785     2A    -15.564488     3A    -11.303862
       4A    -11.264120     5A    -11.260600     6A    -11.242333
       7A    -11.221456     8A     -8.999947     9A     -6.681215
      10A     -6.680121    11A     -6.679349    12A     -1.281903
      13A     -1.089348    14A     -1.068338    15A     -0.969251
      16A     -0.866890    17A     -0.778371    18A     -0.735993
      19A     -0.680037    20A     -0.619928    21A     -0.599035
      22A     -0.570219    23A     -0.549104    24A     -0.527057
      25A     -0.516555    26A     -0.505128    27A     -0.490291
      28A     -0.425022    29A     -0.397311    30A     -0.319482

  @DF-RHF Final Energy:  -645.45863242071482

   => Energetics <=

    Nuclear Repulsion Energy =            354.3117765787266649
    One-Electron Energy =               -1587.7757378620058262
    Two-Electron Energy =                 588.0053288625642836
    Total Energy =                       -645.4586324207148209
  Basis Set: (AUG-CC-PVTZ AUX)
    Blend: AUG-CC-PVTZ-RI
    Molecular point group: c1

    Geometry (in Angstrom), charge = 0, multiplicity = 1:

       Center              X                  Y                   Z               Mass
    ------------   -----------------  -----------------  -----------------  -----------------
         S           -0.783898651063    -1.155771788757     0.042433829648    31.972071174400
         N           -0.118602651063     1.316864211243    -0.245081170352    14.003074004430
         C            1.820469348937    -0.194423788757    -0.564938170352    12.000000000000
         C            0.374528348937     0.095449211243    -0.303936170352    12.000000000000
         C            2.693612348937     0.201600211243     0.628339829648    12.000000000000
         C           -1.862192951063    -0.015350388757     0.240443029648    12.000000000000
         C           -1.452847651063     1.285931211243     0.072817829648    12.000000000000
         H            1.950572348937    -1.256309788757    -0.800309170352     1.007825032230
         H            2.120376348937     0.373865211243    -1.451551170352     1.007825032230
         H            2.560226348937     1.262874211243     0.848996829648     1.007825032230
         H            3.750516348937     0.016628211243     0.414999829648     1.007825032230
         H            2.415936348937    -0.372089788757     1.517023829648     1.007825032230
         H           -3.013640651063    -0.223881788757     0.514573829648     1.007825032230
         H           -2.004033651063     2.216916211243     0.149405829648     1.007825032230

  Basis Set: AUG-CC-PVTZ
    Blend: AUG-CC-PVTZ
  Basis Set: (AUG-CC-PVTZ AUX)
    Blend: AUG-CC-PVTZ-JKFIT
	 Reference Energy          =    -645.4586324207148209 [Eh]
	 Singles Energy            =      -0.0000000000000000 [Eh]
	 Same-Spin Energy          =      -0.3351257134249547 [Eh]
	 Opposite-Spin Energy      =      -1.0422290231303653 [Eh]
	 Correlation Energy        =      -1.3773547365553200 [Eh]
	 Total Energy              =    -646.8359871572700968 [Eh]

	 ================> DF-SCS-MP2 Energies <==================
	-----------------------------------------------------------
	 SCS Same-Spin Scale       =       0.3333333333333333 [-]
	 SCS Opposite-Spin Scale   =       1.2000000000000000 [-]
	 SCS Same-Spin Energy      =      -0.1117085711416516 [Eh]
	 SCS Opposite-Spin Energy  =      -1.2506748277564383 [Eh]
	 SCS Correlation Energy    =      -1.3623833988980900 [Eh]
	 SCS Total Energy          =    -646.8210158196129669 [Eh]
	-----------------------------------------------------------

  Dipole Moment: [D]
     X:    -0.3702      Y:    -1.3826      Z:     0.2631     Total:     1.4553

*** Psi4 exiting successfully. Buy a developer a beer!
