                               Psi4 1.4a3.dev225

  ==> Input File <==

--------------------------------------------------------------------------
#psi4
#
memory 32 gb

molecule  {
0 1
  S       -0.8349460    -1.1774250     0.0297960
  N       -0.1696500     1.2952110    -0.2577190
  C        1.7694220    -0.2160770    -0.5775760
  C        0.3421812     0.0274784    -0.3188059
  C        2.6425650     0.1799470     0.6157020
  C       -2.0442290     0.0157050     0.2553730
  C       -1.5038950     1.2642780     0.0601800
  H        1.8995250    -1.2779630    -0.8129470
  H        2.0693290     0.3522120    -1.4641890
  H        2.5091790     1.2412210     0.8363590
  H        3.6994690    -0.0050250     0.4023620
  H        2.3648890    -0.3937430     1.5043860
  H       -3.0646880    -0.2455350     0.5019360
  H       -2.0550810     2.1952630     0.1367680
units angstrom
no_reorient  #important for SAPT in psi4, default
symmetry c1  #important for SAPT in psi4, default
}

set PROPERTIES_ORIGIN ["COM"]
properties('MP2/aug-cc-pvtz', properties = ['dipole'])
--------------------------------------------------------------------------

    Molecular point group: c1
  Charge       = 0
  Multiplicity = 1
  Basis Set: AUG-CC-PVTZ
    Blend: AUG-CC-PVTZ
  Basis Set: (AUG-CC-PVTZ AUX)
    Blend: AUG-CC-PVTZ-JKFIT

    Orbital Energies [Eh]
    ---------------------

    Doubly Occupied:

       1A    -91.998455     2A    -15.566489     3A    -11.315345
       4A    -11.269158     5A    -11.259758     6A    -11.245074
       7A    -11.224836     8A     -8.999083     9A     -6.679988
      10A     -6.679527    11A     -6.678838    12A     -1.261480
      13A     -1.077140    14A     -1.059356    15A     -0.975169
      16A     -0.873912    17A     -0.785937    18A     -0.732014
      19A     -0.679139    20A     -0.630543    21A     -0.602684
      22A     -0.568228    23A     -0.555721    24A     -0.518974
      25A     -0.512509    26A     -0.503803    27A     -0.497265
      28A     -0.425188    29A     -0.383463    30A     -0.326333

  @DF-RHF Final Energy:  -645.47939876171608

   => Energetics <=

    Nuclear Repulsion Energy =            350.8181146969301381
    One-Electron Energy =               -1580.8242086731061136
    Two-Electron Energy =                 584.5266952144600054
    Total Energy =                       -645.4793987617160838
  Basis Set: (AUG-CC-PVTZ AUX)
    Blend: AUG-CC-PVTZ-RI
    Molecular point group: c1

    Geometry (in Angstrom), charge = 0, multiplicity = 1:

       Center              X                  Y                   Z               Mass
    ------------   -----------------  -----------------  -----------------  -----------------
         S           -0.771977365131    -1.156450299365     0.039744003813    31.972071174400
         N           -0.106681365131     1.316185700635    -0.247770996187    14.003074004430
         C            1.832390634869    -0.195102299365    -0.567627996187    12.000000000000
         C            0.405149834869     0.048453100635    -0.308857896187    12.000000000000
         C            2.705533634869     0.200921700635     0.625650003813    12.000000000000
         C           -1.981260365131     0.036679700635     0.265321003813    12.000000000000
         C           -1.440926365131     1.285252700635     0.070128003813    12.000000000000
         H            1.962493634869    -1.256988299365    -0.802998996187     1.007825032230
         H            2.132297634869     0.373186700635    -1.454240996187     1.007825032230
         H            2.572147634869     1.262195700635     0.846307003813     1.007825032230
         H            3.762437634869     0.015949700635     0.412310003813     1.007825032230
         H            2.427857634869    -0.372768299365     1.514334003813     1.007825032230
         H           -3.001719365131    -0.224560299365     0.511884003813     1.007825032230
         H           -1.992112365131     2.216237700635     0.146716003813     1.007825032230

  Basis Set: AUG-CC-PVTZ
    Blend: AUG-CC-PVTZ
  Basis Set: (AUG-CC-PVTZ AUX)
    Blend: AUG-CC-PVTZ-JKFIT
	 Reference Energy          =    -645.4793987617160838 [Eh]
	 Singles Energy            =      -0.0000000000000000 [Eh]
	 Same-Spin Energy          =      -0.3339216457077932 [Eh]
	 Opposite-Spin Energy      =      -1.0418371920004450 [Eh]
	 Correlation Energy        =      -1.3757588377082381 [Eh]
	 Total Energy              =    -646.8551575994242739 [Eh]

	 ================> DF-SCS-MP2 Energies <==================
	-----------------------------------------------------------
	 SCS Same-Spin Scale       =       0.3333333333333333 [-]
	 SCS Opposite-Spin Scale   =       1.2000000000000000 [-]
	 SCS Same-Spin Energy      =      -0.1113072152359311 [Eh]
	 SCS Opposite-Spin Energy  =      -1.2502046304005339 [Eh]
	 SCS Correlation Energy    =      -1.3615118456364650 [Eh]
	 SCS Total Energy          =    -646.8409106073524981 [Eh]
	-----------------------------------------------------------

  Dipole Moment: [D]
     X:    -0.3808      Y:    -1.3430      Z:     0.2860     Total:     1.4250

*** Psi4 exiting successfully. Buy a developer a beer!
