                               Psi4 1.3.2 release

  ==> Input File <==

--------------------------------------------------------------------------
#psi4
#
memory 32 gb

molecule  {
0 1
  S       -0.9572690    -1.0444998     0.0529840
  N       -0.1696500     1.2952110    -0.2577190
  C        1.7694220    -0.2160770    -0.5775760
  C        0.3234810     0.0737960    -0.3165740
  C        2.6425650     0.1799470     0.6157020
  C       -2.0442290     0.0157050     0.2553730
  C       -1.5038950     1.2642780     0.0601800
  H        1.8995250    -1.2779630    -0.8129470
  H        2.0693290     0.3522120    -1.4641890
  H        2.5091790     1.2412210     0.8363590
  H        3.6994690    -0.0050250     0.4023620
  H        2.3648890    -0.3937430     1.5043860
  H       -3.0646880    -0.2455350     0.5019360
  H       -2.0550810     2.1952630     0.1367680
units angstrom
no_reorient  #important for SAPT in psi4, default
symmetry c1  #important for SAPT in psi4, default
}

set PROPERTIES_ORIGIN ["COM"]
properties('MP2/aug-cc-pvtz', properties = ['dipole'])
--------------------------------------------------------------------------

    Molecular point group: c1
  Charge       = 0
  Multiplicity = 1
  Basis Set: AUG-CC-PVTZ
    Blend: AUG-CC-PVTZ
  Basis Set: (AUG-CC-PVTZ AUX)
    Blend: AUG-CC-PVTZ-JKFIT

    Orbital Energies [Eh]
    ---------------------

    Doubly Occupied:

       1A    -91.985338     2A    -15.565848     3A    -11.303702
       4A    -11.262668     5A    -11.247304     6A    -11.246536
       7A    -11.223066     8A     -8.991740     9A     -6.673344
      10A     -6.671886    11A     -6.671164    12A     -1.286634
      13A     -1.107001    14A     -1.065431    15A     -0.969882
      16A     -0.869266    17A     -0.787459    18A     -0.743642
      19A     -0.687677    20A     -0.627635    21A     -0.609357
      22A     -0.573209    23A     -0.566967    24A     -0.527583
      25A     -0.514336    26A     -0.500419    27A     -0.495015
      28A     -0.421248    29A     -0.398396    30A     -0.318053

  @DF-RHF Final Energy:  -645.45969448356436

   => Energetics <=

    Nuclear Repulsion Energy =            356.0973945787811203
    One-Electron Energy =               -1591.2905651787953047
    Two-Electron Energy =                 589.7334761164497650
    Total Energy =                       -645.4596944835643626
  Basis Set: (AUG-CC-PVTZ AUX)
    Blend: AUG-CC-PVTZ-RI
    Molecular point group: c1

    Geometry (in Angstrom), charge = 0, multiplicity = 1:

       Center              X                  Y                   Z               Mass
    ------------   -----------------  -----------------  -----------------  -----------------
         S           -0.857714282017    -1.066042205792     0.056136005164    31.972071174400
         N           -0.070095282017     1.273668594208    -0.254566994836    14.003074004430
         C            1.868976717983    -0.237619405792    -0.574423994836    12.000000000000
         C            0.423035717983     0.052253594208    -0.313421994836    12.000000000000
         C            2.742119717983     0.158404594208     0.618854005164    12.000000000000
         C           -1.944674282017    -0.005837405792     0.258525005164    12.000000000000
         C           -1.404340282017     1.242735594208     0.063332005164    12.000000000000
         H            1.999079717983    -1.299505405792    -0.809794994836     1.007825032230
         H            2.168883717983     0.330669594208    -1.461036994836     1.007825032230
         H            2.608733717983     1.219678594208     0.839511005164     1.007825032230
         H            3.799023717983    -0.026567405792     0.405514005164     1.007825032230
         H            2.464443717983    -0.415285405792     1.507538005164     1.007825032230
         H           -2.965133282017    -0.267077405792     0.505088005164     1.007825032230
         H           -1.955526282017     2.173720594208     0.139920005164     1.007825032230

  Basis Set: AUG-CC-PVTZ
    Blend: AUG-CC-PVTZ
  Basis Set: (AUG-CC-PVTZ AUX)
    Blend: AUG-CC-PVTZ-JKFIT
	 Reference Energy          =    -645.4596944835643626 [Eh]
	 Singles Energy            =      -0.0000000000000000 [Eh]
	 Same-Spin Energy          =      -0.3352609456233888 [Eh]
	 Opposite-Spin Energy      =      -1.0399084793406126 [Eh]
	 Correlation Energy        =      -1.3751694249640014 [Eh]
	 Total Energy              =    -646.8348639085284049 [Eh]

	 ================> DF-SCS-MP2 Energies <==================
	-----------------------------------------------------------
	 SCS Same-Spin Scale       =       0.3333333333333333 [-]
	 SCS Opposite-Spin Scale   =       1.2000000000000000 [-]
	 SCS Same-Spin Energy      =      -0.1117536485411296 [Eh]
	 SCS Opposite-Spin Energy  =      -1.2478901752087350 [Eh]
	 SCS Correlation Energy    =      -1.3596438237498647 [Eh]
	 SCS Total Energy          =    -646.8193383073141831 [Eh]
	-----------------------------------------------------------

  Dipole Moment: [D]
     X:    -0.4610      Y:    -1.3191      Z:     0.3020     Total:     1.4296

*** Psi4 exiting successfully. Buy a developer a beer!
