                               Psi4 1.3.2 release

  ==> Input File <==

--------------------------------------------------------------------------
#psi4
#
memory 32 gb

molecule  {
0 1
  S       -0.8349460    -1.1774250     0.0297960
  N       -0.1696500     1.2952110    -0.2577190
  C        1.7694220    -0.2160770    -0.5775760
  C        0.3234810     0.0737960    -0.3165740
  C        2.6425650     0.1799470     0.6157020
  C       -2.0442290     0.0157050     0.2553730
  C       -1.5432090     1.1734335     0.0743820
  H        1.8995250    -1.2779630    -0.8129470
  H        2.0693290     0.3522120    -1.4641890
  H        2.5091790     1.2412210     0.8363590
  H        3.6994690    -0.0050250     0.4023620
  H        2.3648890    -0.3937430     1.5043860
  H       -3.0646880    -0.2455350     0.5019360
  H       -2.0550810     2.1952630     0.1367680
units angstrom
no_reorient  #important for SAPT in psi4, default
symmetry c1  #important for SAPT in psi4, default
}

set PROPERTIES_ORIGIN ["COM"]
properties('MP2/aug-cc-pvtz', properties = ['dipole'])
--------------------------------------------------------------------------

    Molecular point group: c1
  Charge       = 0
  Multiplicity = 1
  Basis Set: AUG-CC-PVTZ
    Blend: AUG-CC-PVTZ
  Basis Set: (AUG-CC-PVTZ AUX)
    Blend: AUG-CC-PVTZ-JKFIT

    Orbital Energies [Eh]
    ---------------------

    Doubly Occupied:

       1A    -91.989684     2A    -15.565931     3A    -11.313745
       4A    -11.262085     5A    -11.250334     6A    -11.246121
       7A    -11.224969     8A     -8.991157     9A     -6.672094
      10A     -6.671576    11A     -6.670710    12A     -1.272201
      13A     -1.082798    14A     -1.059968    15A     -0.982275
      16A     -0.873965    17A     -0.781706    18A     -0.732001
      19A     -0.681146    20A     -0.625896    21A     -0.601306
      22A     -0.562777    23A     -0.555334    24A     -0.522147
      25A     -0.512433    26A     -0.507775    27A     -0.490536
      28A     -0.426245    29A     -0.382602    30A     -0.348323

  @DF-RHF Final Energy:  -645.47615809514491

   => Energetics <=

    Nuclear Repulsion Energy =            352.1130978941497460
    One-Electron Energy =               -1583.4588320914299402
    Two-Electron Energy =                 585.8695761021353974
    Total Energy =                       -645.4761580951449105
  Basis Set: (AUG-CC-PVTZ AUX)
    Blend: AUG-CC-PVTZ-RI
    Molecular point group: c1

    Geometry (in Angstrom), charge = 0, multiplicity = 1:

       Center              X                  Y                   Z               Mass
    ------------   -----------------  -----------------  -----------------  -----------------
         S           -0.765818195970    -1.151723030708     0.037999272867    31.972071174400
         N           -0.100522195970     1.320912969292    -0.249515727133    14.003074004430
         C            1.838549804030    -0.190375030708    -0.569372727133    12.000000000000
         C            0.392608804030     0.099497969292    -0.308370727133    12.000000000000
         C            2.711692804030     0.205648969292     0.623905272867    12.000000000000
         C           -1.975101195970     0.041406969292     0.263576272867    12.000000000000
         C           -1.474081195970     1.199135469292     0.082585272867    12.000000000000
         H            1.968652804030    -1.252261030708    -0.804743727133     1.007825032230
         H            2.138456804030     0.377913969292    -1.455985727133     1.007825032230
         H            2.578306804030     1.266922969292     0.844562272867     1.007825032230
         H            3.768596804030     0.020676969292     0.410565272867     1.007825032230
         H            2.434016804030    -0.368041030708     1.512589272867     1.007825032230
         H           -2.995560195970    -0.219833030708     0.510139272867     1.007825032230
         H           -1.985953195970     2.220964969292     0.144971272867     1.007825032230

  Basis Set: AUG-CC-PVTZ
    Blend: AUG-CC-PVTZ
  Basis Set: (AUG-CC-PVTZ AUX)
    Blend: AUG-CC-PVTZ-JKFIT
	 Reference Energy          =    -645.4761580951449105 [Eh]
	 Singles Energy            =      -0.0000000000000000 [Eh]
	 Same-Spin Energy          =      -0.3301515152882099 [Eh]
	 Opposite-Spin Energy      =      -1.0374436478388973 [Eh]
	 Correlation Energy        =      -1.3675951631271073 [Eh]
	 Total Energy              =    -646.8437532582720451 [Eh]

	 ================> DF-SCS-MP2 Energies <==================
	-----------------------------------------------------------
	 SCS Same-Spin Scale       =       0.3333333333333333 [-]
	 SCS Opposite-Spin Scale   =       1.2000000000000000 [-]
	 SCS Same-Spin Energy      =      -0.1100505050960700 [Eh]
	 SCS Opposite-Spin Energy  =      -1.2449323774066767 [Eh]
	 SCS Correlation Energy    =      -1.3549828825027468 [Eh]
	 SCS Total Energy          =    -646.8311409776476921 [Eh]
	-----------------------------------------------------------

  Dipole Moment: [D]
     X:    -0.3089      Y:    -1.2636      Z:     0.2726     Total:     1.3291

*** Psi4 exiting successfully. Buy a developer a beer!
