                               Psi4 1.3.2 release

  ==> Input File <==

--------------------------------------------------------------------------
#psi4
#
memory 32 gb

molecule  {
0 1
  S       -0.8349460    -1.1774250     0.0297960
  N       -0.2922646     1.2367356    -0.2333549
  C        1.7694220    -0.2160770    -0.5775760
  C        0.3234810     0.0737960    -0.3165740
  C        2.6425650     0.1799470     0.6157020
  C       -2.0442290     0.0157050     0.2553730
  C       -1.5038950     1.2642780     0.0601800
  H        1.8995250    -1.2779630    -0.8129470
  H        2.0693290     0.3522120    -1.4641890
  H        2.5091790     1.2412210     0.8363590
  H        3.6994690    -0.0050250     0.4023620
  H        2.3648890    -0.3937430     1.5043860
  H       -3.0646880    -0.2455350     0.5019360
  H       -2.0550810     2.1952630     0.1367680
units angstrom
no_reorient  #important for SAPT in psi4, default
symmetry c1  #important for SAPT in psi4, default
}

set PROPERTIES_ORIGIN ["COM"]
properties('MP2/aug-cc-pvtz', properties = ['dipole'])
--------------------------------------------------------------------------

    Molecular point group: c1
  Charge       = 0
  Multiplicity = 1
  Basis Set: AUG-CC-PVTZ
    Blend: AUG-CC-PVTZ
  Basis Set: (AUG-CC-PVTZ AUX)
    Blend: AUG-CC-PVTZ-JKFIT

    Orbital Energies [Eh]
    ---------------------

    Doubly Occupied:

       1A    -91.993360     2A    -15.549414     3A    -11.311221
       4A    -11.255373     5A    -11.253995     6A    -11.249717
       7A    -11.225570     8A     -8.993769     9A     -6.674534
      10A     -6.674208    11A     -6.673576    12A     -1.305370
      13A     -1.081341    14A     -1.055403    15A     -0.981263
      16A     -0.871316    17A     -0.805673    18A     -0.728294
      19A     -0.689199    20A     -0.632043    21A     -0.612461
      22A     -0.584799    23A     -0.560162    24A     -0.523886
      25A     -0.516598    26A     -0.499777    27A     -0.496457
      28A     -0.403261    29A     -0.392139    30A     -0.319040

  @DF-RHF Final Energy:  -645.46872513725202

   => Energetics <=

    Nuclear Repulsion Energy =            353.6046984303993668
    One-Electron Energy =               -1586.3204128767183647
    Two-Electron Energy =                 587.2469893090669757
    Total Energy =                       -645.4687251372520223
  Basis Set: (AUG-CC-PVTZ AUX)
    Blend: AUG-CC-PVTZ-RI
    Molecular point group: c1

    Geometry (in Angstrom), charge = 0, multiplicity = 1:

       Center              X                  Y                   Z               Mass
    ------------   -----------------  -----------------  -----------------  -----------------
         S           -0.754801526106    -1.154123268145     0.036488625998    31.972071174400
         N           -0.212120126106     1.260037331855    -0.226662274002    14.003074004430
         C            1.849566473894    -0.192775268145    -0.570883374002    12.000000000000
         C            0.403625473894     0.097097731855    -0.309881374002    12.000000000000
         C            2.722709473894     0.203248731855     0.622394625998    12.000000000000
         C           -1.964084526106     0.039006731855     0.262065625998    12.000000000000
         C           -1.423750526106     1.287579731855     0.066872625998    12.000000000000
         H            1.979669473894    -1.254661268145    -0.806254374002     1.007825032230
         H            2.149473473894     0.375513731855    -1.457496374002     1.007825032230
         H            2.589323473894     1.264522731855     0.843051625998     1.007825032230
         H            3.779613473894     0.018276731855     0.409054625998     1.007825032230
         H            2.445033473894    -0.370441268145     1.511078625998     1.007825032230
         H           -2.984543526106    -0.222233268145     0.508628625998     1.007825032230
         H           -1.974936526106     2.218564731855     0.143460625998     1.007825032230

  Basis Set: AUG-CC-PVTZ
    Blend: AUG-CC-PVTZ
  Basis Set: (AUG-CC-PVTZ AUX)
    Blend: AUG-CC-PVTZ-JKFIT
	 Reference Energy          =    -645.4687251372520223 [Eh]
	 Singles Energy            =      -0.0000000000000000 [Eh]
	 Same-Spin Energy          =      -0.3347781169815311 [Eh]
	 Opposite-Spin Energy      =      -1.0398364932051776 [Eh]
	 Correlation Energy        =      -1.3746146101867087 [Eh]
	 Total Energy              =    -646.8433397474386766 [Eh]

	 ================> DF-SCS-MP2 Energies <==================
	-----------------------------------------------------------
	 SCS Same-Spin Scale       =       0.3333333333333333 [-]
	 SCS Opposite-Spin Scale   =       1.2000000000000000 [-]
	 SCS Same-Spin Energy      =      -0.1115927056605104 [Eh]
	 SCS Opposite-Spin Energy  =      -1.2478037918462130 [Eh]
	 SCS Correlation Energy    =      -1.3593964975067234 [Eh]
	 SCS Total Energy          =    -646.8281216347587588 [Eh]
	-----------------------------------------------------------

  Dipole Moment: [D]
     X:    -0.0576      Y:    -1.0487      Z:     0.2014     Total:     1.0694

*** Psi4 exiting successfully. Buy a developer a beer!
