                               Psi4 1.3.2 release

  ==> Input File <==

--------------------------------------------------------------------------
#psi4
#
memory 32 gb

molecule  {
0 1
  S       -0.8349460    -1.1774250     0.0297960
  N       -0.1696500     1.2952110    -0.2577190
  C        1.7694220    -0.2160770    -0.5775760
  C        0.3178860     0.0486396    -0.3209396
  C        2.6425650     0.1799470     0.6157020
  C       -2.0442290     0.0157050     0.2553730
  C       -1.5038950     1.2642780     0.0601800
  H        1.8995250    -1.2779630    -0.8129470
  H        2.0693290     0.3522120    -1.4641890
  H        2.5091790     1.2412210     0.8363590
  H        3.6994690    -0.0050250     0.4023620
  H        2.3648890    -0.3937430     1.5043860
  H       -3.0646880    -0.2455350     0.5019360
  H       -2.0550810     2.1952630     0.1367680
units angstrom
no_reorient  #important for SAPT in psi4, default
symmetry c1  #important for SAPT in psi4, default
}

set PROPERTIES_ORIGIN ["COM"]
properties('MP2/aug-cc-pvtz', properties = ['dipole'])
--------------------------------------------------------------------------

    Molecular point group: c1
  Charge       = 0
  Multiplicity = 1
  Basis Set: AUG-CC-PVTZ
    Blend: AUG-CC-PVTZ
  Basis Set: (AUG-CC-PVTZ AUX)
    Blend: AUG-CC-PVTZ-JKFIT

    Orbital Energies [Eh]
    ---------------------

    Doubly Occupied:

       1A    -91.996820     2A    -15.565588     3A    -11.312985
       4A    -11.269193     5A    -11.260289     6A    -11.245594
       7A    -11.223979     8A     -8.997740     9A     -6.678658
      10A     -6.678151    11A     -6.677441    12A     -1.269704
      13A     -1.071754    14A     -1.062253    15A     -0.975806
      16A     -0.870164    17A     -0.789415    18A     -0.730785
      19A     -0.680107    20A     -0.628610    21A     -0.600752
      22A     -0.569794    23A     -0.556189    24A     -0.518820
      25A     -0.510139    26A     -0.504506    27A     -0.496646
      28A     -0.427185    29A     -0.385833    30A     -0.328471

  @DF-RHF Final Energy:  -645.48390803910615

   => Energetics <=

    Nuclear Repulsion Energy =            351.0353870115693553
    One-Electron Energy =               -1581.2718410990964912
    Two-Electron Energy =                 584.7525460484209816
    Total Energy =                       -645.4839080391061543
  Basis Set: (AUG-CC-PVTZ AUX)
    Blend: AUG-CC-PVTZ-RI
    Molecular point group: c1

    Geometry (in Angstrom), charge = 0, multiplicity = 1:

       Center              X                  Y                   Z               Mass
    ------------   -----------------  -----------------  -----------------  -----------------
         S           -0.769398026855    -1.158696911582     0.039970531443    31.972071174400
         N           -0.104102026855     1.313939088418    -0.247544468557    14.003074004430
         C            1.834969973145    -0.197348911582    -0.567401468557    12.000000000000
         C            0.383433973145     0.067367688418    -0.310765068557    12.000000000000
         C            2.708112973145     0.198675088418     0.625876531443    12.000000000000
         C           -1.978681026855     0.034433088418     0.265547531443    12.000000000000
         C           -1.438347026855     1.283006088418     0.070354531443    12.000000000000
         H            1.965072973145    -1.259234911582    -0.802772468557     1.007825032230
         H            2.134876973145     0.370940088418    -1.454014468557     1.007825032230
         H            2.574726973145     1.259949088418     0.846533531443     1.007825032230
         H            3.765016973145     0.013703088418     0.412536531443     1.007825032230
         H            2.430436973145    -0.375014911582     1.514560531443     1.007825032230
         H           -2.999140026855    -0.226806911582     0.512110531443     1.007825032230
         H           -1.989533026855     2.213991088418     0.146942531443     1.007825032230

  Basis Set: AUG-CC-PVTZ
    Blend: AUG-CC-PVTZ
  Basis Set: (AUG-CC-PVTZ AUX)
    Blend: AUG-CC-PVTZ-JKFIT
	 Reference Energy          =    -645.4839080391061543 [Eh]
	 Singles Energy            =      -0.0000000000000000 [Eh]
	 Same-Spin Energy          =      -0.3329245861621328 [Eh]
	 Opposite-Spin Energy      =      -1.0404384568485860 [Eh]
	 Correlation Energy        =      -1.3733630430107189 [Eh]
	 Total Energy              =    -646.8572710821168812 [Eh]

	 ================> DF-SCS-MP2 Energies <==================
	-----------------------------------------------------------
	 SCS Same-Spin Scale       =       0.3333333333333333 [-]
	 SCS Opposite-Spin Scale   =       1.2000000000000000 [-]
	 SCS Same-Spin Energy      =      -0.1109748620540443 [Eh]
	 SCS Opposite-Spin Energy  =      -1.2485261482183032 [Eh]
	 SCS Correlation Energy    =      -1.3595010102723475 [Eh]
	 SCS Total Energy          =    -646.8434090493784652 [Eh]
	-----------------------------------------------------------

  Dipole Moment: [D]
     X:    -0.3908      Y:    -1.3202      Z:     0.2860     Total:     1.4062

*** Psi4 exiting successfully. Buy a developer a beer!
