                               Psi4 1.3.2 release

  ==> Input File <==

--------------------------------------------------------------------------
#psi4
#
memory 32 gb

molecule  {
0 1
  S       -0.8349460    -1.1774250     0.0297960
  N       -0.1696500     1.2952110    -0.2577190
  C        1.7694220    -0.2160770    -0.5775760
  C        0.3680899     0.1275774    -0.1762486
  C        2.6425650     0.1799470     0.6157020
  C       -2.0442290     0.0157050     0.2553730
  C       -1.5038950     1.2642780     0.0601800
  H        1.8995250    -1.2779630    -0.8129470
  H        2.0693290     0.3522120    -1.4641890
  H        2.5091790     1.2412210     0.8363590
  H        3.6994690    -0.0050250     0.4023620
  H        2.3648890    -0.3937430     1.5043860
  H       -3.0646880    -0.2455350     0.5019360
  H       -2.0550810     2.1952630     0.1367680
units angstrom
no_reorient  #important for SAPT in psi4, default
symmetry c1  #important for SAPT in psi4, default
}

set PROPERTIES_ORIGIN ["COM"]
properties('MP2/aug-cc-pvtz', properties = ['dipole'])
--------------------------------------------------------------------------

    Molecular point group: c1
  Charge       = 0
  Multiplicity = 1
  Basis Set: AUG-CC-PVTZ
    Blend: AUG-CC-PVTZ
  Basis Set: (AUG-CC-PVTZ AUX)
    Blend: AUG-CC-PVTZ-JKFIT

    Orbital Energies [Eh]
    ---------------------

    Doubly Occupied:

       1A    -91.989437     2A    -15.566095     3A    -11.313528
       4A    -11.269230     5A    -11.263285     6A    -11.246219
       7A    -11.223620     8A     -8.989802     9A     -6.670685
      10A     -6.670117    11A     -6.669409    12A     -1.282826
      13A     -1.075628    14A     -1.059562    15A     -0.972350
      16A     -0.866817    17A     -0.795222    18A     -0.729210
      19A     -0.683553    20A     -0.630514    21A     -0.606370
      22A     -0.573606    23A     -0.558126    24A     -0.520965
      25A     -0.507659    26A     -0.502715    27A     -0.495496
      28A     -0.419599    29A     -0.389105    30A     -0.327648

  @DF-RHF Final Energy:  -645.47939476751003

   => Energetics <=

    Nuclear Repulsion Energy =            350.9849037281122150
    One-Electron Energy =               -1581.1918034939342306
    Two-Electron Energy =                 584.7275049983120425
    Total Energy =                       -645.4793947675100299
  Basis Set: (AUG-CC-PVTZ AUX)
    Blend: AUG-CC-PVTZ-RI
    Molecular point group: c1

    Geometry (in Angstrom), charge = 0, multiplicity = 1:

       Center              X                  Y                   Z               Mass
    ------------   -----------------  -----------------  -----------------  -----------------
         S           -0.774728003182    -1.167077467780     0.024609182928    31.972071174400
         N           -0.109432003182     1.305558532220    -0.262905817072    14.003074004430
         C            1.829639996818    -0.205729467780    -0.582762817072    12.000000000000
         C            0.428307896818     0.137924932220    -0.181435417072    12.000000000000
         C            2.702782996818     0.190294532220     0.610515182928    12.000000000000
         C           -1.984011003182     0.026052532220     0.250186182928    12.000000000000
         C           -1.443677003182     1.274625532220     0.054993182928    12.000000000000
         H            1.959742996818    -1.267615467780    -0.818133817072     1.007825032230
         H            2.129546996818     0.362559532220    -1.469375817072     1.007825032230
         H            2.569396996818     1.251568532220     0.831172182928     1.007825032230
         H            3.759686996818     0.005322532220     0.397175182928     1.007825032230
         H            2.425106996818    -0.383395467780     1.499199182928     1.007825032230
         H           -3.004470003182    -0.235187467780     0.496749182928     1.007825032230
         H           -1.994863003182     2.205610532220     0.131581182928     1.007825032230

  Basis Set: AUG-CC-PVTZ
    Blend: AUG-CC-PVTZ
  Basis Set: (AUG-CC-PVTZ AUX)
    Blend: AUG-CC-PVTZ-JKFIT
	 Reference Energy          =    -645.4793947675100299 [Eh]
	 Singles Energy            =      -0.0000000000000000 [Eh]
	 Same-Spin Energy          =      -0.3319359101637742 [Eh]
	 Opposite-Spin Energy      =      -1.0398801467501717 [Eh]
	 Correlation Energy        =      -1.3718160569139459 [Eh]
	 Total Energy              =    -646.8512108244240153 [Eh]

	 ================> DF-SCS-MP2 Energies <==================
	-----------------------------------------------------------
	 SCS Same-Spin Scale       =       0.3333333333333333 [-]
	 SCS Opposite-Spin Scale   =       1.2000000000000000 [-]
	 SCS Same-Spin Energy      =      -0.1106453033879247 [Eh]
	 SCS Opposite-Spin Energy  =      -1.2478561761002060 [Eh]
	 SCS Correlation Energy    =      -1.3585014794881307 [Eh]
	 SCS Total Energy          =    -646.8378962469981843 [Eh]
	-----------------------------------------------------------

  Dipole Moment: [D]
     X:    -0.2515      Y:    -1.0961      Z:     0.1687     Total:     1.1372

*** Psi4 exiting successfully. Buy a developer a beer!
