                               Psi4 1.3.2 release

  ==> Input File <==

--------------------------------------------------------------------------
#psi4
#
memory 32 gb

molecule  {
0 1
  S       -0.8349460    -1.1774250     0.0297960
  N       -0.1762460     1.3906611    -0.2616924
  C        1.7694220    -0.2160770    -0.5775760
  C        0.3234810     0.0737960    -0.3165740
  C        2.6425650     0.1799470     0.6157020
  C       -2.0442290     0.0157050     0.2553730
  C       -1.5038950     1.2642780     0.0601800
  H        1.8995250    -1.2779630    -0.8129470
  H        2.0693290     0.3522120    -1.4641890
  H        2.5091790     1.2412210     0.8363590
  H        3.6994690    -0.0050250     0.4023620
  H        2.3648890    -0.3937430     1.5043860
  H       -3.0646880    -0.2455350     0.5019360
  H       -2.0550810     2.1952630     0.1367680
units angstrom
no_reorient  #important for SAPT in psi4, default
symmetry c1  #important for SAPT in psi4, default
}

set PROPERTIES_ORIGIN ["COM"]
properties('MP2/aug-cc-pvtz', properties = ['dipole'])
--------------------------------------------------------------------------

    Molecular point group: c1
  Charge       = 0
  Multiplicity = 1
  Basis Set: AUG-CC-PVTZ
    Blend: AUG-CC-PVTZ
  Basis Set: (AUG-CC-PVTZ AUX)
    Blend: AUG-CC-PVTZ-JKFIT

    Orbital Energies [Eh]
    ---------------------

    Doubly Occupied:

       1A    -92.003044     2A    -15.575952     3A    -11.325780
       4A    -11.268914     5A    -11.258156     6A    -11.248131
       7A    -11.225332     8A     -9.003013     9A     -6.683890
      10A     -6.683348    11A     -6.682737    12A     -1.252559
      13A     -1.073437    14A     -1.062944    15A     -0.969160
      16A     -0.870728    17A     -0.780725    18A     -0.734021
      19A     -0.677601    20A     -0.628846    21A     -0.596674
      22A     -0.560962    23A     -0.551943    24A     -0.516948
      25A     -0.511930    26A     -0.503874    27A     -0.496320
      28A     -0.438849    29A     -0.386769    30A     -0.321849

  @DF-RHF Final Energy:  -645.46987846416562

   => Energetics <=

    Nuclear Repulsion Energy =            348.5698982663647030
    One-Electron Energy =               -1576.2906765438708589
    Two-Electron Energy =                 582.2508998133406521
    Total Energy =                       -645.4698784641656175
  Basis Set: (AUG-CC-PVTZ AUX)
    Blend: AUG-CC-PVTZ-RI
    Molecular point group: c1

    Geometry (in Angstrom), charge = 0, multiplicity = 1:

       Center              X                  Y                   Z               Mass
    ------------   -----------------  -----------------  -----------------  -----------------
         S           -0.769174862262    -1.173192822117     0.039999308020    31.972071174400
         N           -0.110474862262     1.394893277883    -0.251489091980    14.003074004430
         C            1.835193137738    -0.211844822117    -0.567372691980    12.000000000000
         C            0.389252137738     0.078028177883    -0.306370691980    12.000000000000
         C            2.708336137738     0.184179177883     0.625905308020    12.000000000000
         C           -1.978457862262     0.019937177883     0.265576308020    12.000000000000
         C           -1.438123862262     1.268510177883     0.070383308020    12.000000000000
         H            1.965296137738    -1.273730822117    -0.802743691980     1.007825032230
         H            2.135100137738     0.356444177883    -1.453985691980     1.007825032230
         H            2.574950137738     1.245453177883     0.846562308020     1.007825032230
         H            3.765240137738    -0.000792822117     0.412565308020     1.007825032230
         H            2.430660137738    -0.389510822117     1.514589308020     1.007825032230
         H           -2.998916862262    -0.241302822117     0.512139308020     1.007825032230
         H           -1.989309862262     2.199495177883     0.146971308020     1.007825032230

  Basis Set: AUG-CC-PVTZ
    Blend: AUG-CC-PVTZ
  Basis Set: (AUG-CC-PVTZ AUX)
    Blend: AUG-CC-PVTZ-JKFIT
	 Reference Energy          =    -645.4698784641656175 [Eh]
	 Singles Energy            =      -0.0000000000000000 [Eh]
	 Same-Spin Energy          =      -0.3346421353049004 [Eh]
	 Opposite-Spin Energy      =      -1.0442485122388223 [Eh]
	 Correlation Energy        =      -1.3788906475437228 [Eh]
	 Total Energy              =    -646.8487691117093163 [Eh]

	 ================> DF-SCS-MP2 Energies <==================
	-----------------------------------------------------------
	 SCS Same-Spin Scale       =       0.3333333333333333 [-]
	 SCS Opposite-Spin Scale   =       1.2000000000000000 [-]
	 SCS Same-Spin Energy      =      -0.1115473784349668 [Eh]
	 SCS Opposite-Spin Energy  =      -1.2530982146865868 [Eh]
	 SCS Correlation Energy    =      -1.3646455931215535 [Eh]
	 SCS Total Energy          =    -646.8345240572871262 [Eh]
	-----------------------------------------------------------

  Dipole Moment: [D]
     X:    -0.3926      Y:    -1.5547      Z:     0.2965     Total:     1.6307

*** Psi4 exiting successfully. Buy a developer a beer!
