                               Psi4 1.3.2 release

  ==> Input File <==

--------------------------------------------------------------------------
#psi4
#
memory 32 gb

molecule  {
0 1
  S       -0.8349460    -1.1774250     0.0297960
  N       -0.1690388     1.2713014    -0.2565784
  C        1.7694220    -0.2160770    -0.5775760
  C        0.3234810     0.0737960    -0.3165740
  C        2.6425650     0.1799470     0.6157020
  C       -2.0442290     0.0157050     0.2553730
  C       -1.5038950     1.2642780     0.0601800
  H        1.8995250    -1.2779630    -0.8129470
  H        2.0693290     0.3522120    -1.4641890
  H        2.5091790     1.2412210     0.8363590
  H        3.6994690    -0.0050250     0.4023620
  H        2.3648890    -0.3937430     1.5043860
  H       -3.0646880    -0.2455350     0.5019360
  H       -2.0550810     2.1952630     0.1367680
units angstrom
no_reorient  #important for SAPT in psi4, default
symmetry c1  #important for SAPT in psi4, default
}

set PROPERTIES_ORIGIN ["COM"]
properties('MP2/aug-cc-pvtz', properties = ['dipole'])
--------------------------------------------------------------------------

    Molecular point group: c1
  Charge       = 0
  Multiplicity = 1
  Basis Set: AUG-CC-PVTZ
    Blend: AUG-CC-PVTZ
  Basis Set: (AUG-CC-PVTZ AUX)
    Blend: AUG-CC-PVTZ-JKFIT

    Orbital Energies [Eh]
    ---------------------

    Doubly Occupied:

       1A    -91.991934     2A    -15.562267     3A    -11.309261
       4A    -11.269317     5A    -11.261957     6A    -11.245105
       7A    -11.223935     8A     -8.992901     9A     -6.673806
      10A     -6.673308    11A     -6.672565    12A     -1.281092
      13A     -1.072595    14A     -1.060885    15A     -0.976684
      16A     -0.870071    17A     -0.794562    18A     -0.728246
      19A     -0.681892    20A     -0.629097    21A     -0.603796
      22A     -0.574940    23A     -0.557304    24A     -0.519062
      25A     -0.512480    26A     -0.503280    27A     -0.496251
      28A     -0.420565    29A     -0.387993    30A     -0.330016

  @DF-RHF Final Energy:  -645.48744555893541

   => Energetics <=

    Nuclear Repulsion Energy =            351.6403778254286863
    One-Electron Energy =               -1582.5013119334548719
    Two-Electron Energy =                 585.3734885490907800
    Total Energy =                       -645.4874455589354056
  Basis Set: (AUG-CC-PVTZ AUX)
    Blend: AUG-CC-PVTZ-RI
    Molecular point group: c1

    Geometry (in Angstrom), charge = 0, multiplicity = 1:

       Center              X                  Y                   Z               Mass
    ------------   -----------------  -----------------  -----------------  -----------------
         S           -0.770067749337    -1.158405563078     0.039365743738    31.972071174400
         N           -0.104160549337     1.290320836922    -0.247008656262    14.003074004430
         C            1.834300250663    -0.197057563078    -0.568006256262    12.000000000000
         C            0.388359250663     0.092815436922    -0.307004256262    12.000000000000
         C            2.707443250663     0.198966436922     0.625271743738    12.000000000000
         C           -1.979350749337     0.034724436922     0.264942743738    12.000000000000
         C           -1.439016749337     1.283297436922     0.069749743738    12.000000000000
         H            1.964403250663    -1.258943563078    -0.803377256262     1.007825032230
         H            2.134207250663     0.371231436922    -1.454619256262     1.007825032230
         H            2.574057250663     1.260240436922     0.845928743738     1.007825032230
         H            3.764347250663     0.013994436922     0.411931743738     1.007825032230
         H            2.429767250663    -0.374723563078     1.513955743738     1.007825032230
         H           -2.999809749337    -0.226515563078     0.511505743738     1.007825032230
         H           -1.990202749337     2.214282436922     0.146337743738     1.007825032230

  Basis Set: AUG-CC-PVTZ
    Blend: AUG-CC-PVTZ
  Basis Set: (AUG-CC-PVTZ AUX)
    Blend: AUG-CC-PVTZ-JKFIT
	 Reference Energy          =    -645.4874455589354056 [Eh]
	 Singles Energy            =      -0.0000000000000000 [Eh]
	 Same-Spin Energy          =      -0.3318225507890202 [Eh]
	 Opposite-Spin Energy      =      -1.0387198896029879 [Eh]
	 Correlation Energy        =      -1.3705424403920081 [Eh]
	 Total Energy              =    -646.8579879993274062 [Eh]

	 ================> DF-SCS-MP2 Energies <==================
	-----------------------------------------------------------
	 SCS Same-Spin Scale       =       0.3333333333333333 [-]
	 SCS Opposite-Spin Scale   =       1.2000000000000000 [-]
	 SCS Same-Spin Energy      =      -0.1106075169296734 [Eh]
	 SCS Opposite-Spin Energy  =      -1.2464638675235855 [Eh]
	 SCS Correlation Energy    =      -1.3570713844532589 [Eh]
	 SCS Total Energy          =    -646.8445169433886122 [Eh]
	-----------------------------------------------------------

  Dipole Moment: [D]
     X:    -0.3170      Y:    -1.1640      Z:     0.2579     Total:     1.2336

*** Psi4 exiting successfully. Buy a developer a beer!
