                               Psi4 1.3.2 release

  ==> Input File <==

--------------------------------------------------------------------------
#psi4
#
memory 32 gb

molecule  {
0 1
  S       -0.8349460    -1.1774250     0.0297960
  N       -0.1696500     1.2952110    -0.2577190
  C        1.7694220    -0.2160770    -0.5775760
  C        0.3234810     0.0737960    -0.3165740
  C        2.6425650     0.1799470     0.6157020
  C       -1.9030988    -0.1235401     0.2290469
  C       -1.5038950     1.2642780     0.0601800
  H        1.8995250    -1.2779630    -0.8129470
  H        2.0693290     0.3522120    -1.4641890
  H        2.5091790     1.2412210     0.8363590
  H        3.6994690    -0.0050250     0.4023620
  H        2.3648890    -0.3937430     1.5043860
  H       -3.0646880    -0.2455350     0.5019360
  H       -2.0550810     2.1952630     0.1367680
units angstrom
no_reorient  #important for SAPT in psi4, default
symmetry c1  #important for SAPT in psi4, default
}

set PROPERTIES_ORIGIN ["COM"]
properties('MP2/aug-cc-pvtz', properties = ['dipole'])
--------------------------------------------------------------------------

    Molecular point group: c1
  Charge       = 0
  Multiplicity = 1
  Basis Set: AUG-CC-PVTZ
    Blend: AUG-CC-PVTZ
  Basis Set: (AUG-CC-PVTZ AUX)
    Blend: AUG-CC-PVTZ-JKFIT

    Orbital Energies [Eh]
    ---------------------

    Doubly Occupied:

       1A    -91.997583     2A    -15.567995     3A    -11.298352
       4A    -11.271968     5A    -11.264378     6A    -11.241034
       7A    -11.219909     8A     -9.003888     9A     -6.685573
      10A     -6.683768    11A     -6.683138    12A     -1.281015
      13A     -1.108625    14A     -1.064683    15A     -0.958203
      16A     -0.861884    17A     -0.778792    18A     -0.736887
      19A     -0.677512    20A     -0.619481    21A     -0.598860
      22A     -0.571288    23A     -0.560785    24A     -0.525969
      25A     -0.513866    26A     -0.501497    27A     -0.483040
      28A     -0.427808    29A     -0.406154    30A     -0.304459

  @DF-RHF Final Energy:  -645.43167398915830

   => Energetics <=

    Nuclear Repulsion Energy =            354.8022637416793259
    One-Electron Energy =               -1588.6710889570722429
    Two-Electron Energy =                 588.4371512262346187
    Total Energy =                       -645.4316739891582984
  Basis Set: (AUG-CC-PVTZ AUX)
    Blend: AUG-CC-PVTZ-RI
    Molecular point group: c1

    Geometry (in Angstrom), charge = 0, multiplicity = 1:

       Center              X                  Y                   Z               Mass
    ------------   -----------------  -----------------  -----------------  -----------------
         S           -0.784975339426    -1.146584504574     0.042302002606    31.972071174400
         N           -0.119679339426     1.326051495426    -0.245212997394    14.003074004430
         C            1.819392660574    -0.185236504574    -0.565069997394    12.000000000000
         C            0.373451660574     0.104636495426    -0.304067997394    12.000000000000
         C            2.692535660574     0.210787495426     0.628208002606    12.000000000000
         C           -1.853128139426    -0.092699604574     0.241552902606    12.000000000000
         C           -1.453924339426     1.295118495426     0.072686002606    12.000000000000
         H            1.949495660574    -1.247122504574    -0.800440997394     1.007825032230
         H            2.119299660574     0.383052495426    -1.451682997394     1.007825032230
         H            2.559149660574     1.272061495426     0.848865002606     1.007825032230
         H            3.749439660574     0.025815495426     0.414868002606     1.007825032230
         H            2.414859660574    -0.362902504574     1.516892002606     1.007825032230
         H           -3.014717339426    -0.214694504574     0.514442002606     1.007825032230
         H           -2.005110339426     2.226103495426     0.149274002606     1.007825032230

  Basis Set: AUG-CC-PVTZ
    Blend: AUG-CC-PVTZ
  Basis Set: (AUG-CC-PVTZ AUX)
    Blend: AUG-CC-PVTZ-JKFIT
	 Reference Energy          =    -645.4316739891582984 [Eh]
	 Singles Energy            =      -0.0000000000000000 [Eh]
	 Same-Spin Energy          =      -0.3380731469205614 [Eh]
	 Opposite-Spin Energy      =      -1.0454763043580282 [Eh]
	 Correlation Energy        =      -1.3835494512785895 [Eh]
	 Total Energy              =    -646.8152234404368528 [Eh]

	 ================> DF-SCS-MP2 Energies <==================
	-----------------------------------------------------------
	 SCS Same-Spin Scale       =       0.3333333333333333 [-]
	 SCS Opposite-Spin Scale   =       1.2000000000000000 [-]
	 SCS Same-Spin Energy      =      -0.1126910489735205 [Eh]
	 SCS Opposite-Spin Energy  =      -1.2545715652296339 [Eh]
	 SCS Correlation Energy    =      -1.3672626142031543 [Eh]
	 SCS Total Energy          =    -646.7989366033614260 [Eh]
	-----------------------------------------------------------

  Dipole Moment: [D]
     X:    -0.4226      Y:    -1.4200      Z:     0.2704     Total:     1.5060

*** Psi4 exiting successfully. Buy a developer a beer!
