                               Psi4 1.3.2 release

  ==> Input File <==

--------------------------------------------------------------------------
#psi4
#
memory 32 gb

molecule  {
0 1
  S       -0.8349460    -1.1774250     0.0297960
  N       -0.1696500     1.2952110    -0.2577190
  C        1.7694220    -0.2160770    -0.5775760
  C        0.3234810     0.0737960    -0.3165740
  C        2.6425650     0.1799470     0.6157020
  C       -2.0442290     0.0157050     0.2553730
  C       -1.5825229     1.0825891     0.0885840
  H        1.8995250    -1.2779630    -0.8129470
  H        2.0693290     0.3522120    -1.4641890
  H        2.5091790     1.2412210     0.8363590
  H        3.6994690    -0.0050250     0.4023620
  H        2.3648890    -0.3937430     1.5043860
  H       -3.0646880    -0.2455350     0.5019360
  H       -2.0550810     2.1952630     0.1367680
units angstrom
no_reorient  #important for SAPT in psi4, default
symmetry c1  #important for SAPT in psi4, default
}

set PROPERTIES_ORIGIN ["COM"]
properties('MP2/aug-cc-pvtz', properties = ['dipole'])
--------------------------------------------------------------------------

    Molecular point group: c1
  Charge       = 0
  Multiplicity = 1
  Basis Set: AUG-CC-PVTZ
    Blend: AUG-CC-PVTZ
  Basis Set: (AUG-CC-PVTZ AUX)
    Blend: AUG-CC-PVTZ-JKFIT

    Orbital Energies [Eh]
    ---------------------

    Doubly Occupied:

       1A    -91.986224     2A    -15.567418     3A    -11.314416
       4A    -11.254269     5A    -11.246463     6A    -11.237386
       7A    -11.225639     8A     -8.988322     9A     -6.669272
      10A     -6.668749    11A     -6.667737    12A     -1.271480
      13A     -1.101690    14A     -1.056618    15A     -0.988505
      16A     -0.877713    17A     -0.769129    18A     -0.736060
      19A     -0.681246    20A     -0.623794    21A     -0.602610
      22A     -0.565279    23A     -0.550452    24A     -0.526530
      25A     -0.513266    26A     -0.508924    27A     -0.477383
      28A     -0.423289    29A     -0.382563    30A     -0.366032

  @DF-RHF Final Energy:  -645.42771397970591

   => Energetics <=

    Nuclear Repulsion Energy =            353.3925890404076426
    One-Electron Energy =               -1585.9436900290947960
    Two-Electron Energy =                 587.1233870089813536
    Total Energy =                       -645.4277139797059135
  Basis Set: (AUG-CC-PVTZ AUX)
    Blend: AUG-CC-PVTZ-RI
    Molecular point group: c1

    Geometry (in Angstrom), charge = 0, multiplicity = 1:

       Center              X                  Y                   Z               Mass
    ------------   -----------------  -----------------  -----------------  -----------------
         S           -0.761644373691    -1.142078391518     0.036491495108    31.972071174400
         N           -0.096348373691     1.330557608482    -0.251023504892    14.003074004430
         C            1.842723626309    -0.180730391518    -0.570880504892    12.000000000000
         C            0.396782626309     0.109142608482    -0.309878504892    12.000000000000
         C            2.715866626309     0.215293608482     0.622397495108    12.000000000000
         C           -1.970927373691     0.051051608482     0.262068495108    12.000000000000
         C           -1.509221273691     1.117935708482     0.095279495108    12.000000000000
         H            1.972826626309    -1.242616391518    -0.806251504892     1.007825032230
         H            2.142630626309     0.387558608482    -1.457493504892     1.007825032230
         H            2.582480626309     1.276567608482     0.843054495108     1.007825032230
         H            3.772770626309     0.030321608482     0.409057495108     1.007825032230
         H            2.438190626309    -0.358396391518     1.511081495108     1.007825032230
         H           -2.991386373691    -0.210188391518     0.508631495108     1.007825032230
         H           -1.981779373691     2.230609608482     0.143463495108     1.007825032230

  Basis Set: AUG-CC-PVTZ
    Blend: AUG-CC-PVTZ
  Basis Set: (AUG-CC-PVTZ AUX)
    Blend: AUG-CC-PVTZ-JKFIT
	 Reference Energy          =    -645.4277139797059135 [Eh]
	 Singles Energy            =      -0.0000000000000000 [Eh]
	 Same-Spin Energy          =      -0.3289294006068508 [Eh]
	 Opposite-Spin Energy      =      -1.0367226110564887 [Eh]
	 Correlation Energy        =      -1.3656520116633395 [Eh]
	 Total Energy              =    -646.7933659913692281 [Eh]

	 ================> DF-SCS-MP2 Energies <==================
	-----------------------------------------------------------
	 SCS Same-Spin Scale       =       0.3333333333333333 [-]
	 SCS Opposite-Spin Scale   =       1.2000000000000000 [-]
	 SCS Same-Spin Energy      =      -0.1096431335356169 [Eh]
	 SCS Opposite-Spin Energy  =      -1.2440671332677864 [Eh]
	 SCS Correlation Energy    =      -1.3537102668034033 [Eh]
	 SCS Total Energy          =    -646.7814242465093457 [Eh]
	-----------------------------------------------------------

  Dipole Moment: [D]
     X:    -0.2834      Y:    -1.2659      Z:     0.2767     Total:     1.3264

*** Psi4 exiting successfully. Buy a developer a beer!
