                               Psi4 1.3.2 release

  ==> Input File <==

--------------------------------------------------------------------------
#psi4
#
memory 32 gb

molecule  {
0 1
  S       -0.8349460    -1.1774250     0.0297960
  N       -0.1696500     1.2952110    -0.2577190
  C        1.7694220    -0.2160770    -0.5775760
  C        0.3234810     0.0737960    -0.3165740
  C        2.6425650     0.1799470     0.6157020
  C       -1.9736639    -0.0539175     0.2422099
  C       -1.5038950     1.2642780     0.0601800
  H        1.8995250    -1.2779630    -0.8129470
  H        2.0693290     0.3522120    -1.4641890
  H        2.5091790     1.2412210     0.8363590
  H        3.6994690    -0.0050250     0.4023620
  H        2.3648890    -0.3937430     1.5043860
  H       -3.0646880    -0.2455350     0.5019360
  H       -2.0550810     2.1952630     0.1367680
units angstrom
no_reorient  #important for SAPT in psi4, default
symmetry c1  #important for SAPT in psi4, default
}

set PROPERTIES_ORIGIN ["COM"]
properties('MP2/aug-cc-pvtz', properties = ['dipole'])
--------------------------------------------------------------------------

    Molecular point group: c1
  Charge       = 0
  Multiplicity = 1
  Basis Set: AUG-CC-PVTZ
    Blend: AUG-CC-PVTZ
  Basis Set: (AUG-CC-PVTZ AUX)
    Blend: AUG-CC-PVTZ-JKFIT

    Orbital Energies [Eh]
    ---------------------

    Doubly Occupied:

       1A    -91.996694     2A    -15.566285     3A    -11.306218
       4A    -11.270209     5A    -11.262224     6A    -11.243622
       7A    -11.222263     8A     -8.999571     9A     -6.680708
      10A     -6.679887    11A     -6.679141    12A     -1.277243
      13A     -1.082652    14A     -1.068274    15A     -0.967054
      16A     -0.866436    17A     -0.785124    18A     -0.732415
      19A     -0.678214    20A     -0.623789    21A     -0.600603
      22A     -0.570404    23A     -0.555477    24A     -0.520689
      25A     -0.515182    26A     -0.504625    27A     -0.495563
      28A     -0.426116    29A     -0.396050    30A     -0.316627

  @DF-RHF Final Energy:  -645.47154855502731

   => Energetics <=

    Nuclear Repulsion Energy =            352.8027206932634385
    One-Electron Energy =               -1584.7698227403900546
    Two-Electron Energy =                 586.4955534920993614
    Total Energy =                       -645.4715485550273115
  Basis Set: (AUG-CC-PVTZ AUX)
    Blend: AUG-CC-PVTZ-RI
    Molecular point group: c1

    Geometry (in Angstrom), charge = 0, multiplicity = 1:

       Center              X                  Y                   Z               Mass
    ------------   -----------------  -----------------  -----------------  -----------------
         S           -0.777483684146    -1.153976097853     0.040904531924    31.972071174400
         N           -0.112187684146     1.318659902147    -0.246610468076    14.003074004430
         C            1.826884315854    -0.192628097853    -0.566467468076    12.000000000000
         C            0.380943315854     0.097244902147    -0.305465468076    12.000000000000
         C            2.700027315854     0.203395902147     0.626810531924    12.000000000000
         C           -1.916201584146    -0.030468597853     0.253318431924    12.000000000000
         C           -1.446432684146     1.287726902147     0.071288531924    12.000000000000
         H            1.956987315854    -1.254514097853    -0.801838468076     1.007825032230
         H            2.126791315854     0.375660902147    -1.453080468076     1.007825032230
         H            2.566641315854     1.264669902147     0.847467531924     1.007825032230
         H            3.756931315854     0.018423902147     0.413470531924     1.007825032230
         H            2.422351315854    -0.370294097853     1.515494531924     1.007825032230
         H           -3.007225684146    -0.222086097853     0.513044531924     1.007825032230
         H           -1.997618684146     2.218711902147     0.147876531924     1.007825032230

  Basis Set: AUG-CC-PVTZ
    Blend: AUG-CC-PVTZ
  Basis Set: (AUG-CC-PVTZ AUX)
    Blend: AUG-CC-PVTZ-JKFIT
	 Reference Energy          =    -645.4715485550273115 [Eh]
	 Singles Energy            =      -0.0000000000000000 [Eh]
	 Same-Spin Energy          =      -0.3348458097437091 [Eh]
	 Opposite-Spin Energy      =      -1.0419719459184393 [Eh]
	 Correlation Energy        =      -1.3768177556621484 [Eh]
	 Total Energy              =    -646.8483663106894710 [Eh]

	 ================> DF-SCS-MP2 Energies <==================
	-----------------------------------------------------------
	 SCS Same-Spin Scale       =       0.3333333333333333 [-]
	 SCS Opposite-Spin Scale   =       1.2000000000000000 [-]
	 SCS Same-Spin Energy      =      -0.1116152699145697 [Eh]
	 SCS Opposite-Spin Energy  =      -1.2503663351021272 [Eh]
	 SCS Correlation Energy    =      -1.3619816050166969 [Eh]
	 SCS Total Energy          =    -646.8335301600440062 [Eh]
	-----------------------------------------------------------

  Dipole Moment: [D]
     X:    -0.3686      Y:    -1.3442      Z:     0.2669     Total:     1.4191

*** Psi4 exiting successfully. Buy a developer a beer!
