                               Psi4 1.3.2 release

  ==> Input File <==

--------------------------------------------------------------------------
#psi4
#
memory 32 gb

molecule  {
0 1
  S       -0.8349460    -1.1774250     0.0297960
  N       -0.1706903     1.3191058    -0.2588584
  C        1.7694220    -0.2160770    -0.5775760
  C        0.3234810     0.0737960    -0.3165740
  C        2.6425650     0.1799470     0.6157020
  C       -2.0442290     0.0157050     0.2553730
  C       -1.5038950     1.2642780     0.0601800
  H        1.8995250    -1.2779630    -0.8129470
  H        2.0693290     0.3522120    -1.4641890
  H        2.5091790     1.2412210     0.8363590
  H        3.6994690    -0.0050250     0.4023620
  H        2.3648890    -0.3937430     1.5043860
  H       -3.0646880    -0.2455350     0.5019360
  H       -2.0550810     2.1952630     0.1367680
units angstrom
no_reorient  #important for SAPT in psi4, default
symmetry c1  #important for SAPT in psi4, default
}

set PROPERTIES_ORIGIN ["COM"]
properties('MP2/aug-cc-pvtz', properties = ['dipole'])
--------------------------------------------------------------------------

    Molecular point group: c1
  Charge       = 0
  Multiplicity = 1
  Basis Set: AUG-CC-PVTZ
    Blend: AUG-CC-PVTZ
  Basis Set: (AUG-CC-PVTZ AUX)
    Blend: AUG-CC-PVTZ-JKFIT

    Orbital Energies [Eh]
    ---------------------

    Doubly Occupied:

       1A    -91.996533     2A    -15.567996     3A    -11.316105
       4A    -11.269036     5A    -11.260479     6A    -11.246335
       7A    -11.224444     8A     -8.997083     9A     -6.677981
      10A     -6.677460    11A     -6.676772    12A     -1.268819
      13A     -1.072168    14A     -1.062166    15A     -0.973654
      16A     -0.870243    17A     -0.789175    18A     -0.730493
      19A     -0.680036    20A     -0.628901    21A     -0.600396
      22A     -0.569515    23A     -0.554969    24A     -0.517861
      25A     -0.511862    26A     -0.504046    27A     -0.496496
      28A     -0.428838    29A     -0.387085    30A     -0.326984

  @DF-RHF Final Energy:  -645.48337722819258

   => Energetics <=

    Nuclear Repulsion Energy =            350.3804399524948963
    One-Electron Energy =               -1579.9597680112010494
    Two-Electron Energy =                 584.0959508305135159
    Total Energy =                       -645.4833772281925803
  Basis Set: (AUG-CC-PVTZ AUX)
    Blend: AUG-CC-PVTZ-RI
    Molecular point group: c1

    Geometry (in Angstrom), charge = 0, multiplicity = 1:

       Center              X                  Y                   Z               Mass
    ------------   -----------------  -----------------  -----------------  -----------------
         S           -0.769863147966    -1.164327964408     0.039648208846    31.972071174400
         N           -0.105607447966     1.332202835592    -0.249006191154    14.003074004430
         C            1.834504852034    -0.202979964408    -0.567723791154    12.000000000000
         C            0.388563852034     0.086893035592    -0.306721791154    12.000000000000
         C            2.707647852034     0.193044035592     0.625554208846    12.000000000000
         C           -1.979146147966     0.028802035592     0.265225208846    12.000000000000
         C           -1.438812147966     1.277375035592     0.070032208846    12.000000000000
         H            1.964607852034    -1.264865964408    -0.803094791154     1.007825032230
         H            2.134411852034     0.365309035592    -1.454336791154     1.007825032230
         H            2.574261852034     1.254318035592     0.846211208846     1.007825032230
         H            3.764551852034     0.008072035592     0.412214208846     1.007825032230
         H            2.429971852034    -0.380645964408     1.514238208846     1.007825032230
         H           -2.999605147966    -0.232437964408     0.511788208846     1.007825032230
         H           -1.989998147966     2.208360035592     0.146620208846     1.007825032230

  Basis Set: AUG-CC-PVTZ
    Blend: AUG-CC-PVTZ
  Basis Set: (AUG-CC-PVTZ AUX)
    Blend: AUG-CC-PVTZ-JKFIT
	 Reference Energy          =    -645.4833772281925803 [Eh]
	 Singles Energy            =      -0.0000000000000000 [Eh]
	 Same-Spin Energy          =      -0.3328635826102264 [Eh]
	 Opposite-Spin Energy      =      -1.0407445681848113 [Eh]
	 Correlation Energy        =      -1.3736081507950377 [Eh]
	 Total Energy              =    -646.8569853789875879 [Eh]

	 ================> DF-SCS-MP2 Energies <==================
	-----------------------------------------------------------
	 SCS Same-Spin Scale       =       0.3333333333333333 [-]
	 SCS Opposite-Spin Scale   =       1.2000000000000000 [-]
	 SCS Same-Spin Energy      =      -0.1109545275367421 [Eh]
	 SCS Opposite-Spin Energy  =      -1.2488934818217736 [Eh]
	 SCS Correlation Energy    =      -1.3598480093585157 [Eh]
	 SCS Total Energy          =    -646.8432252375511098 [Eh]
	-----------------------------------------------------------

  Dipole Moment: [D]
     X:    -0.3477      Y:    -1.3356      Z:     0.2747     Total:     1.4072

*** Psi4 exiting successfully. Buy a developer a beer!
