                               Psi4 1.4a3.dev225

  ==> Input File <==

--------------------------------------------------------------------------
#psi4
#
memory 32 gb

molecule  {
0 1
  S       -0.8349460    -1.1774250     0.0297960
  N       -0.1696500     1.2952110    -0.2577190
  C        1.7694220    -0.2160770    -0.5775760
  C        0.3234810     0.0737960    -0.3165740
  C        2.6425650     0.1799470     0.6157020
  C       -2.0089464    -0.0191063     0.2487915
  C       -1.5038950     1.2642780     0.0601800
  H        1.8995250    -1.2779630    -0.8129470
  H        2.0693290     0.3522120    -1.4641890
  H        2.5091790     1.2412210     0.8363590
  H        3.6994690    -0.0050250     0.4023620
  H        2.3648890    -0.3937430     1.5043860
  H       -3.0646880    -0.2455350     0.5019360
  H       -2.0550810     2.1952630     0.1367680
units angstrom
no_reorient  #important for SAPT in psi4, default
symmetry c1  #important for SAPT in psi4, default
}

set PROPERTIES_ORIGIN ["COM"]
properties('MP2/aug-cc-pvtz', properties = ['dipole'])
--------------------------------------------------------------------------

    Molecular point group: c1
  Charge       = 0
  Multiplicity = 1
  Basis Set: AUG-CC-PVTZ
    Blend: AUG-CC-PVTZ
  Basis Set: (AUG-CC-PVTZ AUX)
    Blend: AUG-CC-PVTZ-JKFIT

    Orbital Energies [Eh]
    ---------------------

    Doubly Occupied:

       1A    -91.995676     2A    -15.565657     3A    -11.309623
       4A    -11.269534     5A    -11.261512     6A    -11.244735
       7A    -11.223276     8A     -8.997355     9A     -6.678335
      10A     -6.677754    11A     -6.676998    12A     -1.275903
      13A     -1.072828    14A     -1.068826    15A     -0.971253
      16A     -0.868396    17A     -0.788453    18A     -0.730552
      19A     -0.679283    20A     -0.626347    21A     -0.601393
      22A     -0.570989    23A     -0.555338    24A     -0.518288
      25A     -0.513787    26A     -0.505230    27A     -0.497973
      28A     -0.425449    29A     -0.391568    30A     -0.322637

  @DF-RHF Final Energy:  -645.48153478650897

   => Energetics <=

    Nuclear Repulsion Energy =            351.8823748873160184
    One-Electron Energy =               -1582.9579195162100405
    Two-Electron Energy =                 585.5940098423850486
    Total Energy =                       -645.4815347865089734
  Basis Set: (AUG-CC-PVTZ AUX)
    Blend: AUG-CC-PVTZ-RI
    Molecular point group: c1

    Geometry (in Angstrom), charge = 0, multiplicity = 1:

       Center              X                  Y                   Z               Mass
    ------------   -----------------  -----------------  -----------------  -----------------
         S           -0.773737861814    -1.157671883876     0.040205785966    31.972071174400
         N           -0.108441861814     1.314964116124    -0.247309214034    14.003074004430
         C            1.830630138186    -0.196323883876    -0.567166214034    12.000000000000
         C            0.384689138186     0.093549116124    -0.306164214034    12.000000000000
         C            2.703773138186     0.199700116124     0.626111785966    12.000000000000
         C           -1.947738261814     0.000646816124     0.259201285966    12.000000000000
         C           -1.442686861814     1.284031116124     0.070589785966    12.000000000000
         H            1.960733138186    -1.258209883876    -0.802537214034     1.007825032230
         H            2.130537138186     0.371965116124    -1.453779214034     1.007825032230
         H            2.570387138186     1.260974116124     0.846768785966     1.007825032230
         H            3.760677138186     0.014728116124     0.412771785966     1.007825032230
         H            2.426097138186    -0.373989883876     1.514795785966     1.007825032230
         H           -3.003479861814    -0.225781883876     0.512345785966     1.007825032230
         H           -1.993872861814     2.215016116124     0.147177785966     1.007825032230

  Basis Set: AUG-CC-PVTZ
    Blend: AUG-CC-PVTZ
  Basis Set: (AUG-CC-PVTZ AUX)
    Blend: AUG-CC-PVTZ-JKFIT
	 Reference Energy          =    -645.4815347865089734 [Eh]
	 Singles Energy            =      -0.0000000000000000 [Eh]
	 Same-Spin Energy          =      -0.3334876935163705 [Eh]
	 Opposite-Spin Energy      =      -1.0406822348082798 [Eh]
	 Correlation Energy        =      -1.3741699283246502 [Eh]
	 Total Energy              =    -646.8557047148336778 [Eh]

	 ================> DF-SCS-MP2 Energies <==================
	-----------------------------------------------------------
	 SCS Same-Spin Scale       =       0.3333333333333333 [-]
	 SCS Opposite-Spin Scale   =       1.2000000000000000 [-]
	 SCS Same-Spin Energy      =      -0.1111625645054568 [Eh]
	 SCS Opposite-Spin Energy  =      -1.2488186817699358 [Eh]
	 SCS Correlation Energy    =      -1.3599812462753926 [Eh]
	 SCS Total Energy          =    -646.8415160327843978 [Eh]
	-----------------------------------------------------------

  Dipole Moment: [D]
     X:    -0.3478      Y:    -1.3001      Z:     0.2663     Total:     1.3719

*** Psi4 exiting successfully. Buy a developer a beer!
