                               Psi4 1.4a3.dev225

  ==> Input File <==

--------------------------------------------------------------------------
#psi4
#
memory 32 gb

molecule  {
0 1
  S       -0.8349460    -1.1774250     0.0297960
  N       -0.1696500     1.2952110    -0.2577190
  C        1.7694220    -0.2160770    -0.5775760
  C        0.3160009     0.0923231    -0.3156813
  C        2.6425650     0.1799470     0.6157020
  C       -2.0442290     0.0157050     0.2553730
  C       -1.5038950     1.2642780     0.0601800
  H        1.8995250    -1.2779630    -0.8129470
  H        2.0693290     0.3522120    -1.4641890
  H        2.5091790     1.2412210     0.8363590
  H        3.6994690    -0.0050250     0.4023620
  H        2.3648890    -0.3937430     1.5043860
  H       -3.0646880    -0.2455350     0.5019360
  H       -2.0550810     2.1952630     0.1367680
units angstrom
no_reorient  #important for SAPT in psi4, default
symmetry c1  #important for SAPT in psi4, default
}

set PROPERTIES_ORIGIN ["COM"]
properties('MP2/aug-cc-pvtz', properties = ['dipole'])
--------------------------------------------------------------------------

    Molecular point group: c1
  Charge       = 0
  Multiplicity = 1
  Basis Set: AUG-CC-PVTZ
    Blend: AUG-CC-PVTZ
  Basis Set: (AUG-CC-PVTZ AUX)
    Blend: AUG-CC-PVTZ-JKFIT

    Orbital Energies [Eh]
    ---------------------

    Doubly Occupied:

       1A    -91.992548     2A    -15.564492     3A    -11.311540
       4A    -11.269208     5A    -11.261826     6A    -11.245964
       7A    -11.223930     8A     -8.993351     9A     -6.674255
      10A     -6.673718    11A     -6.672997    12A     -1.280826
      13A     -1.070769    14A     -1.062229    15A     -0.975050
      16A     -0.868659    17A     -0.794296    18A     -0.728199
      19A     -0.681728    20A     -0.628368    21A     -0.602048
      22A     -0.573904    23A     -0.556492    24A     -0.518392
      25A     -0.512137    26A     -0.503632    27A     -0.495911
      28A     -0.423899    29A     -0.389472    30A     -0.329158

  @DF-RHF Final Energy:  -645.48701390275517

   => Energetics <=

    Nuclear Repulsion Energy =            351.0892699101333960
    One-Electron Energy =               -1581.3945766958170225
    Two-Electron Energy =                 584.8182928829284037
    Total Energy =                       -645.4870139027551659
  Basis Set: (AUG-CC-PVTZ AUX)
    Blend: AUG-CC-PVTZ-RI
    Molecular point group: c1

    Geometry (in Angstrom), charge = 0, multiplicity = 1:

       Center              X                  Y                   Z               Mass
    ------------   -----------------  -----------------  -----------------  -----------------
         S           -0.769197892236    -1.163334639345     0.039412275719    31.972071174400
         N           -0.103901892236     1.309301360655    -0.248102724281    14.003074004430
         C            1.835170107764    -0.201986639345    -0.567959724281    12.000000000000
         C            0.381749007764     0.106413460655    -0.306065024281    12.000000000000
         C            2.708313107764     0.194037360655     0.625318275719    12.000000000000
         C           -1.978480892236     0.029795360655     0.264989275719    12.000000000000
         C           -1.438146892236     1.278368360655     0.069796275719    12.000000000000
         H            1.965273107764    -1.263872639345    -0.803330724281     1.007825032230
         H            2.135077107764     0.366302360655    -1.454572724281     1.007825032230
         H            2.574927107764     1.255311360655     0.845975275719     1.007825032230
         H            3.765217107764     0.009065360655     0.411978275719     1.007825032230
         H            2.430637107764    -0.379652639345     1.514002275719     1.007825032230
         H           -2.998939892236    -0.231444639345     0.511552275719     1.007825032230
         H           -1.989332892236     2.209353360655     0.146384275719     1.007825032230

  Basis Set: AUG-CC-PVTZ
    Blend: AUG-CC-PVTZ
  Basis Set: (AUG-CC-PVTZ AUX)
    Blend: AUG-CC-PVTZ-JKFIT
	 Reference Energy          =    -645.4870139027551659 [Eh]
	 Singles Energy            =      -0.0000000000000000 [Eh]
	 Same-Spin Energy          =      -0.3317234098586634 [Eh]
	 Opposite-Spin Energy      =      -1.0389244797279078 [Eh]
	 Correlation Energy        =      -1.3706478895865712 [Eh]
	 Total Energy              =    -646.8576617923417871 [Eh]

	 ================> DF-SCS-MP2 Energies <==================
	-----------------------------------------------------------
	 SCS Same-Spin Scale       =       0.3333333333333333 [-]
	 SCS Opposite-Spin Scale   =       1.2000000000000000 [-]
	 SCS Same-Spin Energy      =      -0.1105744699528878 [Eh]
	 SCS Opposite-Spin Energy  =      -1.2467093756734893 [Eh]
	 SCS Correlation Energy    =      -1.3572838456263772 [Eh]
	 SCS Total Energy          =    -646.8442977483815639 [Eh]
	-----------------------------------------------------------

  Dipole Moment: [D]
     X:    -0.3128      Y:    -1.2084      Z:     0.2581     Total:     1.2746

*** Psi4 exiting successfully. Buy a developer a beer!
