                               Psi4 1.4a3.dev225

  ==> Input File <==

--------------------------------------------------------------------------
#psi4
#
memory 32 gb

molecule  {
0 1
  S       -0.8349460    -1.1774250     0.0297960
  N       -0.1696500     1.2952110    -0.2577190
  C        1.7694220    -0.2160770    -0.5775760
  C        0.3234810     0.0737960    -0.3165740
  C        2.6425650     0.1799470     0.6157020
  C       -2.0442290     0.0157050     0.2553730
  C       -1.5235520     1.2188558     0.0672810
  H        1.8995250    -1.2779630    -0.8129470
  H        2.0693290     0.3522120    -1.4641890
  H        2.5091790     1.2412210     0.8363590
  H        3.6994690    -0.0050250     0.4023620
  H        2.3648890    -0.3937430     1.5043860
  H       -3.0646880    -0.2455350     0.5019360
  H       -2.0550810     2.1952630     0.1367680
units angstrom
no_reorient  #important for SAPT in psi4, default
symmetry c1  #important for SAPT in psi4, default
}

set PROPERTIES_ORIGIN ["COM"]
properties('MP2/aug-cc-pvtz', properties = ['dipole'])
--------------------------------------------------------------------------

    Molecular point group: c1
  Charge       = 0
  Multiplicity = 1
  Basis Set: AUG-CC-PVTZ
    Blend: AUG-CC-PVTZ
  Basis Set: (AUG-CC-PVTZ AUX)
    Blend: AUG-CC-PVTZ-JKFIT

    Orbital Energies [Eh]
    ---------------------

    Doubly Occupied:

       1A    -91.991864     2A    -15.565444     3A    -11.313295
       4A    -11.265726     5A    -11.256065     6A    -11.245941
       7A    -11.224597     8A     -8.992987     9A     -6.673910
      10A     -6.673394    11A     -6.672604    12A     -1.273341
      13A     -1.076158    14A     -1.061336    15A     -0.978704
      16A     -0.872001    17A     -0.787185    18A     -0.730240
      19A     -0.681158    20A     -0.627242    21A     -0.601377
      22A     -0.566369    23A     -0.556537    24A     -0.520187
      25A     -0.512227    26A     -0.506220    27A     -0.494234
      28A     -0.425967    29A     -0.384812    30A     -0.338262

  @DF-RHF Final Energy:  -645.48503387922972

   => Energetics <=

    Nuclear Repulsion Energy =            351.5414365445445810
    One-Electron Energy =               -1582.3141708529476546
    Two-Electron Energy =                 585.2877004291732419
    Total Energy =                       -645.4850338792297180
  Basis Set: (AUG-CC-PVTZ AUX)
    Blend: AUG-CC-PVTZ-RI
    Molecular point group: c1

    Geometry (in Angstrom), charge = 0, multiplicity = 1:

       Center              X                  Y                   Z               Mass
    ------------   -----------------  -----------------  -----------------  -----------------
         S           -0.767905112418    -1.156545360920     0.038753161746    31.972071174400
         N           -0.102609112418     1.316090639080    -0.248761838254    14.003074004430
         C            1.836462887582    -0.195197360920    -0.568618838254    12.000000000000
         C            0.390521887582     0.094675639080    -0.307616838254    12.000000000000
         C            2.709605887582     0.200826639080     0.624659161746    12.000000000000
         C           -1.977188112418     0.036584639080     0.264330161746    12.000000000000
         C           -1.456511112418     1.239735439080     0.076238161746    12.000000000000
         H            1.966565887582    -1.257083360920    -0.803989838254     1.007825032230
         H            2.136369887582     0.373091639080    -1.455231838254     1.007825032230
         H            2.576219887582     1.262100639080     0.845316161746     1.007825032230
         H            3.766509887582     0.015854639080     0.411319161746     1.007825032230
         H            2.431929887582    -0.372863360920     1.513343161746     1.007825032230
         H           -2.997647112418    -0.224655360920     0.510893161746     1.007825032230
         H           -1.988040112418     2.216142639080     0.145725161746     1.007825032230

  Basis Set: AUG-CC-PVTZ
    Blend: AUG-CC-PVTZ
  Basis Set: (AUG-CC-PVTZ AUX)
    Blend: AUG-CC-PVTZ-JKFIT
	 Reference Energy          =    -645.4850338792297180 [Eh]
	 Singles Energy            =      -0.0000000000000000 [Eh]
	 Same-Spin Energy          =      -0.3311364177319323 [Eh]
	 Opposite-Spin Energy      =      -1.0383831170560329 [Eh]
	 Correlation Energy        =      -1.3695195347879652 [Eh]
	 Total Energy              =    -646.8545534140176869 [Eh]

	 ================> DF-SCS-MP2 Energies <==================
	-----------------------------------------------------------
	 SCS Same-Spin Scale       =       0.3333333333333333 [-]
	 SCS Opposite-Spin Scale   =       1.2000000000000000 [-]
	 SCS Same-Spin Energy      =      -0.1103788059106441 [Eh]
	 SCS Opposite-Spin Energy  =      -1.2460597404672396 [Eh]
	 SCS Correlation Energy    =      -1.3564385463778836 [Eh]
	 SCS Total Energy          =    -646.8414724256075488 [Eh]
	-----------------------------------------------------------

  Dipole Moment: [D]
     X:    -0.3213      Y:    -1.2609      Z:     0.2700     Total:     1.3290

*** Psi4 exiting successfully. Buy a developer a beer!
