                               Psi4 1.3.2 release

  ==> Input File <==

--------------------------------------------------------------------------
#psi4
#
memory 32 gb

molecule  {
0 1
  S       -0.8349460    -1.1774250     0.0297960
  N       -0.2111896     1.2771774    -0.2495126
  C        1.7694220    -0.2160770    -0.5775760
  C        0.3234810     0.0737960    -0.3165740
  C        2.6425650     0.1799470     0.6157020
  C       -2.0442290     0.0157050     0.2553730
  C       -1.5038950     1.2642780     0.0601800
  H        1.8995250    -1.2779630    -0.8129470
  H        2.0693290     0.3522120    -1.4641890
  H        2.5091790     1.2412210     0.8363590
  H        3.6994690    -0.0050250     0.4023620
  H        2.3648890    -0.3937430     1.5043860
  H       -3.0646880    -0.2455350     0.5019360
  H       -2.0550810     2.1952630     0.1367680
units angstrom
no_reorient  #important for SAPT in psi4, default
symmetry c1  #important for SAPT in psi4, default
}

set PROPERTIES_ORIGIN ["COM"]
properties('MP2/aug-cc-pvtz', properties = ['dipole'])
--------------------------------------------------------------------------

    Molecular point group: c1
  Charge       = 0
  Multiplicity = 1
  Basis Set: AUG-CC-PVTZ
    Blend: AUG-CC-PVTZ
  Basis Set: (AUG-CC-PVTZ AUX)
    Blend: AUG-CC-PVTZ-JKFIT

    Orbital Energies [Eh]
    ---------------------

    Doubly Occupied:

       1A    -91.993895     2A    -15.560062     3A    -11.312313
       4A    -11.264596     5A    -11.258883     6A    -11.247116
       7A    -11.224722     8A     -8.994542     9A     -6.675404
      10A     -6.674950    11A     -6.674263    12A     -1.283980
      13A     -1.074551    14A     -1.060079    15A     -0.977158
      16A     -0.870577    17A     -0.796178    18A     -0.729477
      19A     -0.683288    20A     -0.629893    21A     -0.605074
      22A     -0.576658    23A     -0.557347    24A     -0.520156
      25A     -0.513809    26A     -0.502053    27A     -0.496934
      28A     -0.418691    29A     -0.388761    30A     -0.325557

  @DF-RHF Final Energy:  -645.48486191381517

   => Energetics <=

    Nuclear Repulsion Energy =            351.8195805509632805
    One-Electron Energy =               -1582.8269546316028027
    Two-Electron Energy =                 585.5225121668242991
    Total Energy =                       -645.4848619138151662
  Basis Set: (AUG-CC-PVTZ AUX)
    Blend: AUG-CC-PVTZ-RI
    Molecular point group: c1

    Geometry (in Angstrom), charge = 0, multiplicity = 1:

       Center              X                  Y                   Z               Mass
    ------------   -----------------  -----------------  -----------------  -----------------
         S           -0.764845762365    -1.159133530173     0.038490374455    31.972071174400
         N           -0.141089362365     1.295468869827    -0.240818225545    14.003074004430
         C            1.839522237635    -0.197785530173    -0.568881625545    12.000000000000
         C            0.393581237635     0.092087469827    -0.307879625545    12.000000000000
         C            2.712665237635     0.198238469827     0.624396374455    12.000000000000
         C           -1.974128762365     0.033996469827     0.264067374455    12.000000000000
         C           -1.433794762365     1.282569469827     0.068874374455    12.000000000000
         H            1.969625237635    -1.259671530173    -0.804252625545     1.007825032230
         H            2.139429237635     0.370503469827    -1.455494625545     1.007825032230
         H            2.579279237635     1.259512469827     0.845053374455     1.007825032230
         H            3.769569237635     0.013266469827     0.411056374455     1.007825032230
         H            2.434989237635    -0.375451530173     1.513080374455     1.007825032230
         H           -2.994587762365    -0.227243530173     0.510630374455     1.007825032230
         H           -1.984980762365     2.213554469827     0.145462374455     1.007825032230

  Basis Set: AUG-CC-PVTZ
    Blend: AUG-CC-PVTZ
  Basis Set: (AUG-CC-PVTZ AUX)
    Blend: AUG-CC-PVTZ-JKFIT
	 Reference Energy          =    -645.4848619138151662 [Eh]
	 Singles Energy            =      -0.0000000000000000 [Eh]
	 Same-Spin Energy          =      -0.3330158310973365 [Eh]
	 Opposite-Spin Energy      =      -1.0394352435261980 [Eh]
	 Correlation Energy        =      -1.3724510746235346 [Eh]
	 Total Energy              =    -646.8573129884387072 [Eh]

	 ================> DF-SCS-MP2 Energies <==================
	-----------------------------------------------------------
	 SCS Same-Spin Scale       =       0.3333333333333333 [-]
	 SCS Opposite-Spin Scale   =       1.2000000000000000 [-]
	 SCS Same-Spin Energy      =      -0.1110052770324455 [Eh]
	 SCS Opposite-Spin Energy  =      -1.2473222922314375 [Eh]
	 SCS Correlation Energy    =      -1.3583275692638830 [Eh]
	 SCS Total Energy          =    -646.8431894830790725 [Eh]
	-----------------------------------------------------------

  Dipole Moment: [D]
     X:    -0.2472      Y:    -1.1981      Z:     0.2473     Total:     1.2481

*** Psi4 exiting successfully. Buy a developer a beer!
