                               Psi4 1.3.2 release

  ==> Input File <==

--------------------------------------------------------------------------
#psi4
#
memory 32 gb

molecule  {
0 1
  S       -0.8349460    -1.1774250     0.0297960
  N       -0.1696500     1.2952110    -0.2577190
  C        1.7694220    -0.2160770    -0.5775760
  C        0.2797369     0.1151087    -0.3083136
  C        2.6425650     0.1799470     0.6157020
  C       -2.0442290     0.0157050     0.2553730
  C       -1.5038950     1.2642780     0.0601800
  H        1.8995250    -1.2779630    -0.8129470
  H        2.0693290     0.3522120    -1.4641890
  H        2.5091790     1.2412210     0.8363590
  H        3.6994690    -0.0050250     0.4023620
  H        2.3648890    -0.3937430     1.5043860
  H       -3.0646880    -0.2455350     0.5019360
  H       -2.0550810     2.1952630     0.1367680
units angstrom
no_reorient  #important for SAPT in psi4, default
symmetry c1  #important for SAPT in psi4, default
}

set PROPERTIES_ORIGIN ["COM"]
properties('MP2/aug-cc-pvtz', properties = ['dipole'])
--------------------------------------------------------------------------

    Molecular point group: c1
  Charge       = 0
  Multiplicity = 1
  Basis Set: AUG-CC-PVTZ
    Blend: AUG-CC-PVTZ
  Basis Set: (AUG-CC-PVTZ AUX)
    Blend: AUG-CC-PVTZ-JKFIT

    Orbital Energies [Eh]
    ---------------------

    Doubly Occupied:

       1A    -91.991226     2A    -15.562576     3A    -11.307727
       4A    -11.269509     5A    -11.262304     6A    -11.246183
       7A    -11.222516     8A     -8.992456     9A     -6.673379
      10A     -6.672780    11A     -6.672029    12A     -1.293994
      13A     -1.069559    14A     -1.061041    15A     -0.975738
      16A     -0.862933    17A     -0.798533    18A     -0.726931
      19A     -0.683260    20A     -0.625557    21A     -0.599851
      22A     -0.575823    23A     -0.558433    24A     -0.518208
      25A     -0.508930    26A     -0.504732    27A     -0.494608
      28A     -0.424270    29A     -0.393714    30A     -0.331309

  @DF-RHF Final Energy:  -645.48528890197349

   => Energetics <=

    Nuclear Repulsion Energy =            351.5114641671352160
    One-Electron Energy =               -1582.2332870800571527
    Two-Electron Energy =                 585.2365340109483896
    Total Energy =                       -645.4852889019734903
  Basis Set: (AUG-CC-PVTZ AUX)
    Blend: AUG-CC-PVTZ-RI
    Molecular point group: c1

    Geometry (in Angstrom), charge = 0, multiplicity = 1:

       Center              X                  Y                   Z               Mass
    ------------   -----------------  -----------------  -----------------  -----------------
         S           -0.765347867407    -1.165753708553     0.038630072214    31.972071174400
         N           -0.100051867407     1.306882291447    -0.248884927786    14.003074004430
         C            1.839020132593    -0.204405708553    -0.568741927786    12.000000000000
         C            0.349335032593     0.126779991447    -0.299479527786    12.000000000000
         C            2.712163132593     0.191618291447     0.624536072214    12.000000000000
         C           -1.974630867407     0.027376291447     0.264207072214    12.000000000000
         C           -1.434296867407     1.275949291447     0.069014072214    12.000000000000
         H            1.969123132593    -1.266291708553    -0.804112927786     1.007825032230
         H            2.138927132593     0.363883291447    -1.455354927786     1.007825032230
         H            2.578777132593     1.252892291447     0.845193072214     1.007825032230
         H            3.769067132593     0.006646291447     0.411196072214     1.007825032230
         H            2.434487132593    -0.382071708553     1.513220072214     1.007825032230
         H           -2.995089867407    -0.233863708553     0.510770072214     1.007825032230
         H           -1.985482867407     2.206934291447     0.145602072214     1.007825032230

  Basis Set: AUG-CC-PVTZ
    Blend: AUG-CC-PVTZ
  Basis Set: (AUG-CC-PVTZ AUX)
    Blend: AUG-CC-PVTZ-JKFIT
	 Reference Energy          =    -645.4852889019734903 [Eh]
	 Singles Energy            =      -0.0000000000000000 [Eh]
	 Same-Spin Energy          =      -0.3306480513855797 [Eh]
	 Opposite-Spin Energy      =      -1.0375353020800269 [Eh]
	 Correlation Energy        =      -1.3681833534656065 [Eh]
	 Total Energy              =    -646.8534722554391010 [Eh]

	 ================> DF-SCS-MP2 Energies <==================
	-----------------------------------------------------------
	 SCS Same-Spin Scale       =       0.3333333333333333 [-]
	 SCS Opposite-Spin Scale   =       1.2000000000000000 [-]
	 SCS Same-Spin Energy      =      -0.1102160171285265 [Eh]
	 SCS Opposite-Spin Energy  =      -1.2450423624960323 [Eh]
	 SCS Correlation Energy    =      -1.3552583796245588 [Eh]
	 SCS Total Energy          =    -646.8405472815981057 [Eh]
	-----------------------------------------------------------

  Dipole Moment: [D]
     X:    -0.3586      Y:    -1.1827      Z:     0.2577     Total:     1.2624

*** Psi4 exiting successfully. Buy a developer a beer!
