                               Psi4 1.4a3.dev225

  ==> Input File <==

--------------------------------------------------------------------------
#psi4
#
memory 32 gb

molecule  {
0 1
  S       -0.8349460    -1.1774250     0.0297960
  N       -0.1696500     1.2952110    -0.2577190
  C        1.7694220    -0.2160770    -0.5775760
  C        0.3234810     0.0737960    -0.3165740
  C        2.6425650     0.1799470     0.6157020
  C       -2.0442290     0.0157050     0.2553730
  C       -1.5117578     1.2461091     0.0630204
  H        1.8995250    -1.2779630    -0.8129470
  H        2.0693290     0.3522120    -1.4641890
  H        2.5091790     1.2412210     0.8363590
  H        3.6994690    -0.0050250     0.4023620
  H        2.3648890    -0.3937430     1.5043860
  H       -3.0646880    -0.2455350     0.5019360
  H       -2.0550810     2.1952630     0.1367680
units angstrom
no_reorient  #important for SAPT in psi4, default
symmetry c1  #important for SAPT in psi4, default
}

set PROPERTIES_ORIGIN ["COM"]
properties('MP2/aug-cc-pvtz', properties = ['dipole'])
--------------------------------------------------------------------------

    Molecular point group: c1
  Charge       = 0
  Multiplicity = 1
  Basis Set: AUG-CC-PVTZ
    Blend: AUG-CC-PVTZ
  Basis Set: (AUG-CC-PVTZ AUX)
    Blend: AUG-CC-PVTZ-JKFIT

    Orbital Energies [Eh]
    ---------------------

    Doubly Occupied:

       1A    -91.993280     2A    -15.565251     3A    -11.312965
       4A    -11.267808     5A    -11.259231     6A    -11.245817
       7A    -11.224353     8A     -8.994184     9A     -6.675095
      10A     -6.674582    11A     -6.673837    12A     -1.274193
      13A     -1.073425    14A     -1.061701    15A     -0.976563
      16A     -0.870863    17A     -0.790113    18A     -0.729561
      19A     -0.681075    20A     -0.628226    21A     -0.601686
      22A     -0.569852    23A     -0.556352    24A     -0.519084
      25A     -0.512168    26A     -0.504843    27A     -0.495678
      28A     -0.425391    29A     -0.386367    30A     -0.332375

  @DF-RHF Final Energy:  -645.48646422206059

   => Energetics <=

    Nuclear Repulsion Energy =            351.2158748895641338
    One-Electron Energy =               -1581.6528412852428573
    Two-Electron Energy =                 584.9505021736180197
    Total Energy =                       -645.4864642220605901
  Basis Set: (AUG-CC-PVTZ AUX)
    Blend: AUG-CC-PVTZ-RI
    Molecular point group: c1

    Geometry (in Angstrom), charge = 0, multiplicity = 1:

       Center              X                  Y                   Z               Mass
    ------------   -----------------  -----------------  -----------------  -----------------
         S           -0.769157262287    -1.159438750554     0.039205495073    31.972071174400
         N           -0.103861262287     1.313197249446    -0.248309504927    14.003074004430
         C            1.835210737713    -0.198090750554    -0.568166504927    12.000000000000
         C            0.389269737713     0.091782249446    -0.307164504927    12.000000000000
         C            2.708353737713     0.197933249446     0.625111495073    12.000000000000
         C           -1.978440262287     0.033691249446     0.264782495073    12.000000000000
         C           -1.445969062287     1.264095349446     0.072429895073    12.000000000000
         H            1.965313737713    -1.259976750554    -0.803537504927     1.007825032230
         H            2.135117737713     0.370198249446    -1.454779504927     1.007825032230
         H            2.574967737713     1.259207249446     0.845768495073     1.007825032230
         H            3.765257737713     0.012961249446     0.411771495073     1.007825032230
         H            2.430677737713    -0.375756750554     1.513795495073     1.007825032230
         H           -2.998899262287    -0.227548750554     0.511345495073     1.007825032230
         H           -1.989292262287     2.213249249446     0.146177495073     1.007825032230

  Basis Set: AUG-CC-PVTZ
    Blend: AUG-CC-PVTZ
  Basis Set: (AUG-CC-PVTZ AUX)
    Blend: AUG-CC-PVTZ-JKFIT
	 Reference Energy          =    -645.4864642220605901 [Eh]
	 Singles Energy            =      -0.0000000000000000 [Eh]
	 Same-Spin Energy          =      -0.3318275835090180 [Eh]
	 Opposite-Spin Energy      =      -1.0391279081130067 [Eh]
	 Correlation Energy        =      -1.3709554916220248 [Eh]
	 Total Energy              =    -646.8574197136825887 [Eh]

	 ================> DF-SCS-MP2 Energies <==================
	-----------------------------------------------------------
	 SCS Same-Spin Scale       =       0.3333333333333333 [-]
	 SCS Opposite-Spin Scale   =       1.2000000000000000 [-]
	 SCS Same-Spin Energy      =      -0.1106091945030060 [Eh]
	 SCS Opposite-Spin Energy  =      -1.2469534897356080 [Eh]
	 SCS Correlation Energy    =      -1.3575626842386141 [Eh]
	 SCS Total Energy          =    -646.8440269062991774 [Eh]
	-----------------------------------------------------------

  Dipole Moment: [D]
     X:    -0.3283      Y:    -1.2568      Z:     0.2681     Total:     1.3263

*** Psi4 exiting successfully. Buy a developer a beer!
