                               Psi4 1.3.2 release

  ==> Input File <==

--------------------------------------------------------------------------
#psi4
#
memory 32 gb

molecule  {
0 1
  S       -0.8349460    -1.1774250     0.0297960
  N       -0.1696500     1.2952110    -0.2577190
  C        1.7694220    -0.2160770    -0.5775760
  C        0.3234810     0.0737960    -0.3165740
  C        2.6425650     0.1799470     0.6157020
  C       -2.0442290     0.0157050     0.2553730
  C       -1.6350882     1.3169360     0.0868578
  H        1.8995250    -1.2779630    -0.8129470
  H        2.0693290     0.3522120    -1.4641890
  H        2.5091790     1.2412210     0.8363590
  H        3.6994690    -0.0050250     0.4023620
  H        2.3648890    -0.3937430     1.5043860
  H       -3.0646880    -0.2455350     0.5019360
  H       -2.0550810     2.1952630     0.1367680
units angstrom
no_reorient  #important for SAPT in psi4, default
symmetry c1  #important for SAPT in psi4, default
}

set PROPERTIES_ORIGIN ["COM"]
properties('MP2/aug-cc-pvtz', properties = ['dipole'])
--------------------------------------------------------------------------

    Molecular point group: c1
  Charge       = 0
  Multiplicity = 1
  Basis Set: AUG-CC-PVTZ
    Blend: AUG-CC-PVTZ
  Basis Set: (AUG-CC-PVTZ AUX)
    Blend: AUG-CC-PVTZ-JKFIT

    Orbital Energies [Eh]
    ---------------------

    Doubly Occupied:

       1A    -91.993822     2A    -15.567874     3A    -11.310396
       4A    -11.271508     5A    -11.269901     6A    -11.245635
       7A    -11.223447     8A     -8.994808     9A     -6.675820
      10A     -6.675123    11A     -6.674375    12A     -1.245168
      13A     -1.071315    14A     -1.050019    15A     -0.982111
      16A     -0.872777    17A     -0.797757    18A     -0.722746
      19A     -0.689578    20A     -0.626184    21A     -0.602211
      22A     -0.566970    23A     -0.547870    24A     -0.522444
      25A     -0.513045    26A     -0.509622    27A     -0.495189
      28A     -0.409088    29A     -0.377195    30A     -0.338302

  @DF-RHF Final Energy:  -645.46073365735515

   => Energetics <=

    Nuclear Repulsion Energy =            348.3030774663851616
    One-Electron Energy =               -1575.8430211404311194
    Two-Electron Energy =                 582.0792100166906948
    Total Energy =                       -645.4607336573551493
  Basis Set: (AUG-CC-PVTZ AUX)
    Blend: AUG-CC-PVTZ-RI
    Molecular point group: c1

    Geometry (in Angstrom), charge = 0, multiplicity = 1:

       Center              X                  Y                   Z               Mass
    ------------   -----------------  -----------------  -----------------  -----------------
         S           -0.756063695604    -1.166958200244     0.036674759857    31.972071174400
         N           -0.090767695604     1.305677799756    -0.250840240143    14.003074004430
         C            1.848304304396    -0.205610200244    -0.570697240143    12.000000000000
         C            0.402363304396     0.084262799756    -0.309695240143    12.000000000000
         C            2.721447304396     0.190413799756     0.622580759857    12.000000000000
         C           -1.965346695604     0.026171799756     0.262251759857    12.000000000000
         C           -1.556205895604     1.327402799756     0.093736559857    12.000000000000
         H            1.978407304396    -1.267496200244    -0.806068240143     1.007825032230
         H            2.148211304396     0.362678799756    -1.457310240143     1.007825032230
         H            2.588061304396     1.251687799756     0.843237759857     1.007825032230
         H            3.778351304396     0.005441799756     0.409240759857     1.007825032230
         H            2.443771304396    -0.383276200244     1.511264759857     1.007825032230
         H           -2.985805695604    -0.235068200244     0.508814759857     1.007825032230
         H           -1.976198695604     2.205729799756     0.143646759857     1.007825032230

  Basis Set: AUG-CC-PVTZ
    Blend: AUG-CC-PVTZ
  Basis Set: (AUG-CC-PVTZ AUX)
    Blend: AUG-CC-PVTZ-JKFIT
	 Reference Energy          =    -645.4607336573551493 [Eh]
	 Singles Energy            =      -0.0000000000000000 [Eh]
	 Same-Spin Energy          =      -0.3310791711185158 [Eh]
	 Opposite-Spin Energy      =      -1.0419235071488107 [Eh]
	 Correlation Energy        =      -1.3730026782673264 [Eh]
	 Total Energy              =    -646.8337363356224614 [Eh]

	 ================> DF-SCS-MP2 Energies <==================
	-----------------------------------------------------------
	 SCS Same-Spin Scale       =       0.3333333333333333 [-]
	 SCS Opposite-Spin Scale   =       1.2000000000000000 [-]
	 SCS Same-Spin Energy      =      -0.1103597237061719 [Eh]
	 SCS Opposite-Spin Energy  =      -1.2503082085785728 [Eh]
	 SCS Correlation Energy    =      -1.3606679322847448 [Eh]
	 SCS Total Energy          =    -646.8214015896398905 [Eh]
	-----------------------------------------------------------

  Dipole Moment: [D]
     X:    -0.3383      Y:    -1.1887      Z:     0.2746     Total:     1.2661

*** Psi4 exiting successfully. Buy a developer a beer!
