                               Psi4 1.3.2 release

  ==> Input File <==

--------------------------------------------------------------------------
#psi4
#
memory 32 gb

molecule  {
0 1
  S       -0.8349460    -1.1774250     0.0297960
  N       -0.1486517     1.3036711    -0.2618497
  C        1.7694220    -0.2160770    -0.5775760
  C        0.3234810     0.0737960    -0.3165740
  C        2.6425650     0.1799470     0.6157020
  C       -2.0442290     0.0157050     0.2553730
  C       -1.5038950     1.2642780     0.0601800
  H        1.8995250    -1.2779630    -0.8129470
  H        2.0693290     0.3522120    -1.4641890
  H        2.5091790     1.2412210     0.8363590
  H        3.6994690    -0.0050250     0.4023620
  H        2.3648890    -0.3937430     1.5043860
  H       -3.0646880    -0.2455350     0.5019360
  H       -2.0550810     2.1952630     0.1367680
units angstrom
no_reorient  #important for SAPT in psi4, default
symmetry c1  #important for SAPT in psi4, default
}

set PROPERTIES_ORIGIN ["COM"]
properties('MP2/aug-cc-pvtz', properties = ['dipole'])
--------------------------------------------------------------------------

    Molecular point group: c1
  Charge       = 0
  Multiplicity = 1
  Basis Set: AUG-CC-PVTZ
    Blend: AUG-CC-PVTZ
  Basis Set: (AUG-CC-PVTZ AUX)
    Blend: AUG-CC-PVTZ-JKFIT

    Orbital Energies [Eh]
    ---------------------

    Doubly Occupied:

       1A    -91.994469     2A    -15.567648     3A    -11.312891
       4A    -11.271336     5A    -11.262403     6A    -11.245013
       7A    -11.223885     8A     -8.995274     9A     -6.676196
      10A     -6.675657    11A     -6.674929    12A     -1.270613
      13A     -1.071824    14A     -1.061693    15A     -0.974226
      16A     -0.869902    17A     -0.789997    18A     -0.729057
      19A     -0.679902    20A     -0.628536    21A     -0.600710
      22A     -0.569913    23A     -0.555545    24A     -0.517611
      25A     -0.511246    26A     -0.504577    27A     -0.496027
      28A     -0.427494    29A     -0.386942    30A     -0.329949

  @DF-RHF Final Energy:  -645.48510514940881

   => Energetics <=

    Nuclear Repulsion Energy =            350.6175244055470444
    One-Electron Energy =               -1580.4543321330713752
    Two-Electron Energy =                 584.3517025781154643
    Total Energy =                       -645.4851051494088097
  Basis Set: (AUG-CC-PVTZ AUX)
    Blend: AUG-CC-PVTZ-RI
    Molecular point group: c1

    Geometry (in Angstrom), charge = 0, multiplicity = 1:

       Center              X                  Y                   Z               Mass
    ------------   -----------------  -----------------  -----------------  -----------------
         S           -0.772593470571    -1.162415787123     0.040018795635    31.972071174400
         N           -0.086299170571     1.318680312877    -0.251626904365    14.003074004430
         C            1.831774529429    -0.201067787123    -0.567353204365    12.000000000000
         C            0.385833529429     0.088805212877    -0.306351204365    12.000000000000
         C            2.704917529429     0.194956212877     0.625924795635    12.000000000000
         C           -1.981876470571     0.030714212877     0.265595795635    12.000000000000
         C           -1.441542470571     1.279287212877     0.070402795635    12.000000000000
         H            1.961877529429    -1.262953787123    -0.802724204365     1.007825032230
         H            2.131681529429     0.367221212877    -1.453966204365     1.007825032230
         H            2.571531529429     1.256230212877     0.846581795635     1.007825032230
         H            3.761821529429     0.009984212877     0.412584795635     1.007825032230
         H            2.427241529429    -0.378733787123     1.514608795635     1.007825032230
         H           -3.002335470571    -0.230525787123     0.512158795635     1.007825032230
         H           -1.992728470571     2.210272212877     0.146990795635     1.007825032230

  Basis Set: AUG-CC-PVTZ
    Blend: AUG-CC-PVTZ
  Basis Set: (AUG-CC-PVTZ AUX)
    Blend: AUG-CC-PVTZ-JKFIT
	 Reference Energy          =    -645.4851051494088097 [Eh]
	 Singles Energy            =      -0.0000000000000000 [Eh]
	 Same-Spin Energy          =      -0.3320349484379190 [Eh]
	 Opposite-Spin Energy      =      -1.0399435387509328 [Eh]
	 Correlation Energy        =      -1.3719784871888518 [Eh]
	 Total Energy              =    -646.8570836365976220 [Eh]

	 ================> DF-SCS-MP2 Energies <==================
	-----------------------------------------------------------
	 SCS Same-Spin Scale       =       0.3333333333333333 [-]
	 SCS Opposite-Spin Scale   =       1.2000000000000000 [-]
	 SCS Same-Spin Energy      =      -0.1106783161459730 [Eh]
	 SCS Opposite-Spin Energy  =      -1.2479322465011193 [Eh]
	 SCS Correlation Energy    =      -1.3586105626470923 [Eh]
	 SCS Total Energy          =    -646.8437157120558822 [Eh]
	-----------------------------------------------------------

  Dipole Moment: [D]
     X:    -0.3738      Y:    -1.2750      Z:     0.2754     Total:     1.3569

*** Psi4 exiting successfully. Buy a developer a beer!
