                               Psi4 1.3.2 release

  ==> Input File <==

--------------------------------------------------------------------------
#psi4
#
memory 32 gb

molecule  {
0 1
  S       -0.8128942    -1.1981569     0.0273248
  N       -0.1696500     1.2952110    -0.2577190
  C        1.7694220    -0.2160770    -0.5775760
  C        0.3234810     0.0737960    -0.3165740
  C        2.6425650     0.1799470     0.6157020
  C       -2.0442290     0.0157050     0.2553730
  C       -1.5038950     1.2642780     0.0601800
  H        1.8995250    -1.2779630    -0.8129470
  H        2.0693290     0.3522120    -1.4641890
  H        2.5091790     1.2412210     0.8363590
  H        3.6994690    -0.0050250     0.4023620
  H        2.3648890    -0.3937430     1.5043860
  H       -3.0646880    -0.2455350     0.5019360
  H       -2.0550810     2.1952630     0.1367680
units angstrom
no_reorient  #important for SAPT in psi4, default
symmetry c1  #important for SAPT in psi4, default
}

set PROPERTIES_ORIGIN ["COM"]
properties('MP2/aug-cc-pvtz', properties = ['dipole'])
--------------------------------------------------------------------------

    Molecular point group: c1
  Charge       = 0
  Multiplicity = 1
  Basis Set: AUG-CC-PVTZ
    Blend: AUG-CC-PVTZ
  Basis Set: (AUG-CC-PVTZ AUX)
    Blend: AUG-CC-PVTZ-JKFIT

    Orbital Energies [Eh]
    ---------------------

    Doubly Occupied:

       1A    -91.995330     2A    -15.565094     3A    -11.313959
       4A    -11.270314     5A    -11.263490     6A    -11.245485
       7A    -11.224277     8A     -8.995475     9A     -6.676366
      10A     -6.675790    11A     -6.675138    12A     -1.273560
      13A     -1.072274    14A     -1.056359    15A     -0.975960
      16A     -0.870158    17A     -0.792957    18A     -0.727014
      19A     -0.680156    20A     -0.629202    21A     -0.601192
      22A     -0.572640    23A     -0.554778    24A     -0.517416
      25A     -0.511585    26A     -0.504325    27A     -0.494461
      28A     -0.425143    29A     -0.386377    30A     -0.329822

  @DF-RHF Final Energy:  -645.48534513186326

   => Energetics <=

    Nuclear Repulsion Energy =            350.2824244046868785
    One-Electron Energy =               -1579.7833458116158454
    Two-Electron Energy =                 584.0155762750656550
    Total Energy =                       -645.4853451318632551
  Basis Set: (AUG-CC-PVTZ AUX)
    Blend: AUG-CC-PVTZ-RI
    Molecular point group: c1

    Geometry (in Angstrom), charge = 0, multiplicity = 1:

       Center              X                  Y                   Z               Mass
    ------------   -----------------  -----------------  -----------------  -----------------
         S           -0.754177884494    -1.176235276798     0.037734863612    31.972071174400
         N           -0.110933684494     1.317132623202    -0.247308936388    14.003074004430
         C            1.828138315506    -0.194155376798    -0.567165936388    12.000000000000
         C            0.382197315506     0.095717623202    -0.306163936388    12.000000000000
         C            2.701281315506     0.201868623202     0.626112063612    12.000000000000
         C           -1.985512684494     0.037626623202     0.265783063612    12.000000000000
         C           -1.445178684494     1.286199623202     0.070590063612    12.000000000000
         H            1.958241315506    -1.256041376798    -0.802536936388     1.007825032230
         H            2.128045315506     0.374133623202    -1.453778936388     1.007825032230
         H            2.567895315506     1.263142623202     0.846769063612     1.007825032230
         H            3.758185315506     0.016896623202     0.412772063612     1.007825032230
         H            2.423605315506    -0.371821376798     1.514796063612     1.007825032230
         H           -3.005971684494    -0.223613376798     0.512346063612     1.007825032230
         H           -1.996364684494     2.217184623202     0.147178063612     1.007825032230

  Basis Set: AUG-CC-PVTZ
    Blend: AUG-CC-PVTZ
  Basis Set: (AUG-CC-PVTZ AUX)
    Blend: AUG-CC-PVTZ-JKFIT
	 Reference Energy          =    -645.4853451318632551 [Eh]
	 Singles Energy            =      -0.0000000000000000 [Eh]
	 Same-Spin Energy          =      -0.3319675608472403 [Eh]
	 Opposite-Spin Energy      =      -1.0398764361310135 [Eh]
	 Correlation Energy        =      -1.3718439969782539 [Eh]
	 Total Energy              =    -646.8571891288414690 [Eh]

	 ================> DF-SCS-MP2 Energies <==================
	-----------------------------------------------------------
	 SCS Same-Spin Scale       =       0.3333333333333333 [-]
	 SCS Opposite-Spin Scale   =       1.2000000000000000 [-]
	 SCS Same-Spin Energy      =      -0.1106558536157468 [Eh]
	 SCS Opposite-Spin Energy  =      -1.2478517233572162 [Eh]
	 SCS Correlation Energy    =      -1.3585075769729629 [Eh]
	 SCS Total Energy          =    -646.8438527088362662 [Eh]
	-----------------------------------------------------------

  Dipole Moment: [D]
     X:    -0.3214      Y:    -1.2352      Z:     0.2638     Total:     1.3033

*** Psi4 exiting successfully. Buy a developer a beer!
