                               Psi4 1.3.2 release

  ==> Input File <==

--------------------------------------------------------------------------
#psi4
#
memory 32 gb

molecule  {
0 1
  S       -0.9615012    -1.2991429     0.0664682
  N       -0.1696500     1.2952110    -0.2577190
  C        1.7694220    -0.2160770    -0.5775760
  C        0.3234810     0.0737960    -0.3165740
  C        2.6425650     0.1799470     0.6157020
  C       -2.0442290     0.0157050     0.2553730
  C       -1.5038950     1.2642780     0.0601800
  H        1.8995250    -1.2779630    -0.8129470
  H        2.0693290     0.3522120    -1.4641890
  H        2.5091790     1.2412210     0.8363590
  H        3.6994690    -0.0050250     0.4023620
  H        2.3648890    -0.3937430     1.5043860
  H       -3.0646880    -0.2455350     0.5019360
  H       -2.0550810     2.1952630     0.1367680
units angstrom
no_reorient  #important for SAPT in psi4, default
symmetry c1  #important for SAPT in psi4, default
}

set PROPERTIES_ORIGIN ["COM"]
properties('MP2/aug-cc-pvtz', properties = ['dipole'])
--------------------------------------------------------------------------

    Molecular point group: c1
  Charge       = 0
  Multiplicity = 1
  Basis Set: AUG-CC-PVTZ
    Blend: AUG-CC-PVTZ
  Basis Set: (AUG-CC-PVTZ AUX)
    Blend: AUG-CC-PVTZ-JKFIT

    Orbital Energies [Eh]
    ---------------------

    Doubly Occupied:

       1A    -91.994927     2A    -15.575996     3A    -11.329712
       4A    -11.269112     5A    -11.263742     6A    -11.248525
       7A    -11.225898     8A     -8.993153     9A     -6.674007
      10A     -6.673184    11A     -6.672635    12A     -1.268937
      13A     -1.073217    14A     -1.053666    15A     -0.963129
      16A     -0.872004    17A     -0.788638    18A     -0.724121
      19A     -0.680280    20A     -0.629878    21A     -0.599649
      22A     -0.568400    23A     -0.543676    24A     -0.515504
      25A     -0.514736    26A     -0.504248    27A     -0.496467
      28A     -0.422090    29A     -0.395729    30A     -0.318259

  @DF-RHF Final Energy:  -645.46838415429056

   => Energetics <=

    Nuclear Repulsion Energy =            344.3889187835004577
    One-Electron Energy =               -1568.0075699329372583
    Two-Electron Energy =                 578.1502669951462394
    Total Energy =                       -645.4683841542905611
  Basis Set: (AUG-CC-PVTZ AUX)
    Blend: AUG-CC-PVTZ-RI
    Molecular point group: c1

    Geometry (in Angstrom), charge = 0, multiplicity = 1:

       Center              X                  Y                   Z               Mass
    ------------   -----------------  -----------------  -----------------  -----------------
         S           -0.860749345903    -1.248655994543     0.065806013306    31.972071174400
         N           -0.068898145903     1.345697905457    -0.258381186694    14.003074004430
         C            1.870173854097    -0.165590094543    -0.578238186694    12.000000000000
         C            0.424232854097     0.124282905457    -0.317236186694    12.000000000000
         C            2.743316854097     0.230433905457     0.615039813306    12.000000000000
         C           -1.943477145903     0.066191905457     0.254710813306    12.000000000000
         C           -1.403143145903     1.314764905457     0.059517813306    12.000000000000
         H            2.000276854097    -1.227476094543    -0.813609186694     1.007825032230
         H            2.170080854097     0.402698905457    -1.464851186694     1.007825032230
         H            2.609930854097     1.291707905457     0.835696813306     1.007825032230
         H            3.800220854097     0.045461905457     0.401699813306     1.007825032230
         H            2.465640854097    -0.343256094543     1.503723813306     1.007825032230
         H           -2.963936145903    -0.195048094543     0.501273813306     1.007825032230
         H           -1.954329145903     2.245749905457     0.136105813306     1.007825032230

  Basis Set: AUG-CC-PVTZ
    Blend: AUG-CC-PVTZ
  Basis Set: (AUG-CC-PVTZ AUX)
    Blend: AUG-CC-PVTZ-JKFIT
	 Reference Energy          =    -645.4683841542905611 [Eh]
	 Singles Energy            =      -0.0000000000000000 [Eh]
	 Same-Spin Energy          =      -0.3322377956731019 [Eh]
	 Opposite-Spin Energy      =      -1.0433503230038814 [Eh]
	 Correlation Energy        =      -1.3755881186769834 [Eh]
	 Total Energy              =    -646.8439722729675623 [Eh]

	 ================> DF-SCS-MP2 Energies <==================
	-----------------------------------------------------------
	 SCS Same-Spin Scale       =       0.3333333333333333 [-]
	 SCS Opposite-Spin Scale   =       1.2000000000000000 [-]
	 SCS Same-Spin Energy      =      -0.1107459318910340 [Eh]
	 SCS Opposite-Spin Energy  =      -1.2520203876046576 [Eh]
	 SCS Correlation Energy    =      -1.3627663194956916 [Eh]
	 SCS Total Energy          =    -646.8311504737862379 [Eh]
	-----------------------------------------------------------

  Dipole Moment: [D]
     X:    -0.0819      Y:    -0.9912      Z:     0.2098     Total:     1.0165

*** Psi4 exiting successfully. Buy a developer a beer!
