                               Psi4 1.3.2 release

  ==> Input File <==

--------------------------------------------------------------------------
#psi4
#
memory 32 gb

molecule  {
0 1
  S       -0.8349460    -1.1774250     0.0297960
  N       -0.1696500     1.2952110    -0.2577190
  C        1.7694220    -0.2160770    -0.5775760
  C        0.3234810     0.0737960    -0.3165740
  C        2.6425650     0.1799470     0.6157020
  C       -2.0442290     0.0157050     0.2553730
  C       -1.5038950     1.2642780     0.0601800
  H        1.8995250    -1.2779630    -0.8129470
  H        2.0693290     0.3522120    -1.4641890
  H        2.5091790     1.2412210     0.8363590
  H        3.6994690    -0.0050250     0.4023620
  H        2.3648890    -0.3937430     1.5043860
  H       -2.9703617    -0.2213872     0.4791449
  H       -2.0550810     2.1952630     0.1367680
units angstrom
no_reorient  #important for SAPT in psi4, default
symmetry c1  #important for SAPT in psi4, default
}

set PROPERTIES_ORIGIN ["COM"]
properties('MP2/aug-cc-pvtz', properties = ['dipole'])
--------------------------------------------------------------------------

    Molecular point group: c1
  Charge       = 0
  Multiplicity = 1
  Basis Set: AUG-CC-PVTZ
    Blend: AUG-CC-PVTZ
  Basis Set: (AUG-CC-PVTZ AUX)
    Blend: AUG-CC-PVTZ-JKFIT

    Orbital Energies [Eh]
    ---------------------

    Doubly Occupied:

       1A    -91.993741     2A    -15.564792     3A    -11.312668
       4A    -11.269000     5A    -11.250244     6A    -11.245629
       7A    -11.224137     8A     -8.994539     9A     -6.675452
      10A     -6.674937    11A     -6.674232    12A     -1.274601
      13A     -1.073165    14A     -1.063723    15A     -0.976802
      16A     -0.871052    17A     -0.804292    18A     -0.730868
      19A     -0.688050    20A     -0.632739    21A     -0.603368
      22A     -0.574946    23A     -0.558592    24A     -0.518806
      25A     -0.512268    26A     -0.503618    27A     -0.496735
      28A     -0.424702    29A     -0.387308    30A     -0.328559

  @DF-RHF Final Energy:  -645.47986194327473

   => Energetics <=

    Nuclear Repulsion Energy =            351.5714207997955896
    One-Electron Energy =               -1582.2954379603611414
    Two-Electron Energy =                 585.2441552172908814
    Total Energy =                       -645.4798619432747273
  Basis Set: (AUG-CC-PVTZ AUX)
    Blend: AUG-CC-PVTZ-RI
    Molecular point group: c1

    Geometry (in Angstrom), charge = 0, multiplicity = 1:

       Center              X                  Y                   Z               Mass
    ------------   -----------------  -----------------  -----------------  -----------------
         S           -0.770833084101    -1.161582993038     0.039710266207    31.972071174400
         N           -0.105537084101     1.311053006962    -0.247804733793    14.003074004430
         C            1.833534915899    -0.200234993038    -0.567661733793    12.000000000000
         C            0.387593915899     0.089638006962    -0.306659733793    12.000000000000
         C            2.706677915899     0.195789006962     0.625616266207    12.000000000000
         C           -1.980116084101     0.031547006962     0.265287266207    12.000000000000
         C           -1.439782084101     1.280120006962     0.070094266207    12.000000000000
         H            1.963637915899    -1.262120993038    -0.803032733793     1.007825032230
         H            2.133441915899     0.368054006962    -1.454274733793     1.007825032230
         H            2.573291915899     1.257063006962     0.846273266207     1.007825032230
         H            3.763581915899     0.010817006962     0.412276266207     1.007825032230
         H            2.429001915899    -0.377900993038     1.514300266207     1.007825032230
         H           -2.906248784101    -0.205545193038     0.489059166207     1.007825032230
         H           -1.990968084101     2.211105006962     0.146682266207     1.007825032230

  Basis Set: AUG-CC-PVTZ
    Blend: AUG-CC-PVTZ
  Basis Set: (AUG-CC-PVTZ AUX)
    Blend: AUG-CC-PVTZ-JKFIT
	 Reference Energy          =    -645.4798619432747273 [Eh]
	 Singles Energy            =      -0.0000000000000000 [Eh]
	 Same-Spin Energy          =      -0.3321420672031333 [Eh]
	 Opposite-Spin Energy      =      -1.0394012195305100 [Eh]
	 Correlation Energy        =      -1.3715432867336435 [Eh]
	 Total Energy              =    -646.8514052300083677 [Eh]

	 ================> DF-SCS-MP2 Energies <==================
	-----------------------------------------------------------
	 SCS Same-Spin Scale       =       0.3333333333333333 [-]
	 SCS Opposite-Spin Scale   =       1.2000000000000000 [-]
	 SCS Same-Spin Energy      =      -0.1107140224010444 [Eh]
	 SCS Opposite-Spin Energy  =      -1.2472814634366121 [Eh]
	 SCS Correlation Energy    =      -1.3579954858376566 [Eh]
	 SCS Total Energy          =    -646.8378574291124323 [Eh]
	-----------------------------------------------------------

  Dipole Moment: [D]
     X:    -0.3179      Y:    -1.2437      Z:     0.2627     Total:     1.3102

*** Psi4 exiting successfully. Buy a developer a beer!
