                               Psi4 1.3.2 release

  ==> Input File <==

--------------------------------------------------------------------------
#psi4
#
memory 32 gb

molecule  {
0 1
  S       -0.8349460    -1.1774250     0.0297960
  N       -0.1696500     1.2952110    -0.2577190
  C        1.7694220    -0.2160770    -0.5775760
  C        0.2965729    -0.0781980    -0.3439126
  C        2.6425650     0.1799470     0.6157020
  C       -2.0442290     0.0157050     0.2553730
  C       -1.5038950     1.2642780     0.0601800
  H        1.8995250    -1.2779630    -0.8129470
  H        2.0693290     0.3522120    -1.4641890
  H        2.5091790     1.2412210     0.8363590
  H        3.6994690    -0.0050250     0.4023620
  H        2.3648890    -0.3937430     1.5043860
  H       -3.0646880    -0.2455350     0.5019360
  H       -2.0550810     2.1952630     0.1367680
units angstrom
no_reorient  #important for SAPT in psi4, default
symmetry c1  #important for SAPT in psi4, default
}

set PROPERTIES_ORIGIN ["COM"]
properties('MP2/aug-cc-pvtz', properties = ['dipole'])
--------------------------------------------------------------------------

    Molecular point group: c1
  Charge       = 0
  Multiplicity = 1
  Basis Set: AUG-CC-PVTZ
    Blend: AUG-CC-PVTZ
  Basis Set: (AUG-CC-PVTZ AUX)
    Blend: AUG-CC-PVTZ-JKFIT

    Orbital Energies [Eh]
    ---------------------

    Doubly Occupied:

       1A    -92.007837     2A    -15.566763     3A    -11.313219
       4A    -11.269795     5A    -11.255405     6A    -11.246246
       7A    -11.223562     8A     -9.009972     9A     -6.691139
      10A     -6.690287    11A     -6.689761    12A     -1.249693
      13A     -1.076268    14A     -1.062191    15A     -0.976823
      16A     -0.871392    17A     -0.778183    18A     -0.735430
      19A     -0.676271    20A     -0.627256    21A     -0.599840
      22A     -0.558378    23A     -0.557087    24A     -0.523671
      25A     -0.508149    26A     -0.504348    27A     -0.491846
      28A     -0.428923    29A     -0.383490    30A     -0.323854

  @DF-RHF Final Energy:  -645.45657341739820

   => Energetics <=

    Nuclear Repulsion Energy =            351.2061860145834089
    One-Electron Energy =               -1581.5313544620432822
    Two-Electron Energy =                 584.8685950300616696
    Total Energy =                       -645.4565734173982037
  Basis Set: (AUG-CC-PVTZ AUX)
    Blend: AUG-CC-PVTZ-RI
    Molecular point group: c1

    Geometry (in Angstrom), charge = 0, multiplicity = 1:

       Center              X                  Y                   Z               Mass
    ------------   -----------------  -----------------  -----------------  -----------------
         S           -0.767135287935    -1.145230997472     0.042409496268    31.972071174400
         N           -0.101839287935     1.327405002528    -0.245105503732    14.003074004430
         C            1.837232712065    -0.183882997472    -0.564962503732    12.000000000000
         C            0.364383612065    -0.046003997472    -0.331299103732    12.000000000000
         C            2.710375712065     0.212141002528     0.628315496268    12.000000000000
         C           -1.976418287935     0.047899002528     0.267986496268    12.000000000000
         C           -1.436084287935     1.296472002528     0.072793496268    12.000000000000
         H            1.967335712065    -1.245768997472    -0.800333503732     1.007825032230
         H            2.137139712065     0.384406002528    -1.451575503732     1.007825032230
         H            2.576989712065     1.273415002528     0.848972496268     1.007825032230
         H            3.767279712065     0.027169002528     0.414975496268     1.007825032230
         H            2.432699712065    -0.361548997472     1.516999496268     1.007825032230
         H           -2.996877287935    -0.213340997472     0.514549496268     1.007825032230
         H           -1.987270287935     2.227457002528     0.149381496268     1.007825032230

  Basis Set: AUG-CC-PVTZ
    Blend: AUG-CC-PVTZ
  Basis Set: (AUG-CC-PVTZ AUX)
    Blend: AUG-CC-PVTZ-JKFIT
	 Reference Energy          =    -645.4565734173982037 [Eh]
	 Singles Energy            =      -0.0000000000000000 [Eh]
	 Same-Spin Energy          =      -0.3363267222548458 [Eh]
	 Opposite-Spin Energy      =      -1.0451114509537827 [Eh]
	 Correlation Energy        =      -1.3814381732086285 [Eh]
	 Total Energy              =    -646.8380115906068113 [Eh]

	 ================> DF-SCS-MP2 Energies <==================
	-----------------------------------------------------------
	 SCS Same-Spin Scale       =       0.3333333333333333 [-]
	 SCS Opposite-Spin Scale   =       1.2000000000000000 [-]
	 SCS Same-Spin Energy      =      -0.1121089074182819 [Eh]
	 SCS Opposite-Spin Energy  =      -1.2541337411445392 [Eh]
	 SCS Correlation Energy    =      -1.3662426485628212 [Eh]
	 SCS Total Energy          =    -646.8228160659609784 [Eh]
	-----------------------------------------------------------

  Dipole Moment: [D]
     X:    -0.5997      Y:    -1.5310      Z:     0.3699     Total:     1.6854

*** Psi4 exiting successfully. Buy a developer a beer!
