                               Psi4 1.4a3.dev225

  ==> Input File <==

--------------------------------------------------------------------------
#psi4
#
memory 32 gb

molecule  {
0 1
  S       -0.8349460    -1.1774250     0.0297960
  N       -0.1696500     1.2952110    -0.2577190
  C        1.7694220    -0.2160770    -0.5775760
  C        0.3234810     0.0737960    -0.3165740
  C        2.6425650     0.1799470     0.6157020
  C       -2.0442290     0.0157050     0.2553730
  C       -1.4844445     1.2647289     0.0555457
  H        1.8995250    -1.2779630    -0.8129470
  H        2.0693290     0.3522120    -1.4641890
  H        2.5091790     1.2412210     0.8363590
  H        3.6994690    -0.0050250     0.4023620
  H        2.3648890    -0.3937430     1.5043860
  H       -3.0646880    -0.2455350     0.5019360
  H       -2.0550810     2.1952630     0.1367680
units angstrom
no_reorient  #important for SAPT in psi4, default
symmetry c1  #important for SAPT in psi4, default
}

set PROPERTIES_ORIGIN ["COM"]
properties('MP2/aug-cc-pvtz', properties = ['dipole'])
--------------------------------------------------------------------------

    Molecular point group: c1
  Charge       = 0
  Multiplicity = 1
  Basis Set: AUG-CC-PVTZ
    Blend: AUG-CC-PVTZ
  Basis Set: (AUG-CC-PVTZ AUX)
    Blend: AUG-CC-PVTZ-JKFIT

    Orbital Energies [Eh]
    ---------------------

    Doubly Occupied:

       1A    -91.994894     2A    -15.564654     3A    -11.312942
       4A    -11.269660     5A    -11.261122     6A    -11.245727
       7A    -11.224226     8A     -8.995546     9A     -6.676428
      10A     -6.675942    11A     -6.675245    12A     -1.279812
      13A     -1.072355    14A     -1.062950    15A     -0.973795
      16A     -0.869510    17A     -0.793326    18A     -0.729828
      19A     -0.680133    20A     -0.629490    21A     -0.602069
      22A     -0.574071    23A     -0.557276    24A     -0.518789
      25A     -0.512265    26A     -0.501769    27A     -0.495135
      28A     -0.426248    29A     -0.389498    30A     -0.325696

  @DF-RHF Final Energy:  -645.48506476100818

   => Energetics <=

    Nuclear Repulsion Energy =            351.2810535316500022
    One-Electron Energy =               -1581.7514333055228235
    Two-Electron Energy =                 584.9853150128645893
    Total Energy =                       -645.4850647610081751
  Basis Set: (AUG-CC-PVTZ AUX)
    Blend: AUG-CC-PVTZ-RI
    Molecular point group: c1

    Geometry (in Angstrom), charge = 0, multiplicity = 1:

       Center              X                  Y                   Z               Mass
    ------------   -----------------  -----------------  -----------------  -----------------
         S           -0.772057021915    -1.161415551026     0.039999058403    31.972071174400
         N           -0.106761021915     1.311220448974    -0.247515941597    14.003074004430
         C            1.832310978085    -0.200067551026    -0.567372941597    12.000000000000
         C            0.386369978085     0.089805448974    -0.306370941597    12.000000000000
         C            2.705453978085     0.195956448974     0.625905058403    12.000000000000
         C           -1.981340021915     0.031714448974     0.265576058403    12.000000000000
         C           -1.421555521915     1.280738348974     0.065748758403    12.000000000000
         H            1.962413978085    -1.261953551026    -0.802743941597     1.007825032230
         H            2.132217978085     0.368221448974    -1.453985941597     1.007825032230
         H            2.572067978085     1.257230448974     0.846562058403     1.007825032230
         H            3.762357978085     0.010984448974     0.412565058403     1.007825032230
         H            2.427777978085    -0.377733551026     1.514589058403     1.007825032230
         H           -3.001799021915    -0.229525551026     0.512139058403     1.007825032230
         H           -1.992192021915     2.211272448974     0.146971058403     1.007825032230

  Basis Set: AUG-CC-PVTZ
    Blend: AUG-CC-PVTZ
  Basis Set: (AUG-CC-PVTZ AUX)
    Blend: AUG-CC-PVTZ-JKFIT
	 Reference Energy          =    -645.4850647610081751 [Eh]
	 Singles Energy            =      -0.0000000000000000 [Eh]
	 Same-Spin Energy          =      -0.3327909247957480 [Eh]
	 Opposite-Spin Energy      =      -1.0398976637952366 [Eh]
	 Correlation Energy        =      -1.3726885885909845 [Eh]
	 Total Energy              =    -646.8577533495991929 [Eh]

	 ================> DF-SCS-MP2 Energies <==================
	-----------------------------------------------------------
	 SCS Same-Spin Scale       =       0.3333333333333333 [-]
	 SCS Opposite-Spin Scale   =       1.2000000000000000 [-]
	 SCS Same-Spin Energy      =      -0.1109303082652493 [Eh]
	 SCS Opposite-Spin Energy  =      -1.2478771965542839 [Eh]
	 SCS Correlation Energy    =      -1.3588075048195332 [Eh]
	 SCS Total Energy          =    -646.8438722658277129 [Eh]
	-----------------------------------------------------------

  Dipole Moment: [D]
     X:    -0.3291      Y:    -1.2625      Z:     0.2641     Total:     1.3311

*** Psi4 exiting successfully. Buy a developer a beer!
