                               Psi4 1.3.2 release

  ==> Input File <==

--------------------------------------------------------------------------
#psi4
#
memory 32 gb

molecule  {
0 1
  S       -0.8552333    -1.1986734     0.0354095
  N       -0.1696500     1.2952110    -0.2577190
  C        1.7694220    -0.2160770    -0.5775760
  C        0.3234810     0.0737960    -0.3165740
  C        2.6425650     0.1799470     0.6157020
  C       -2.0442290     0.0157050     0.2553730
  C       -1.5038950     1.2642780     0.0601800
  H        1.8995250    -1.2779630    -0.8129470
  H        2.0693290     0.3522120    -1.4641890
  H        2.5091790     1.2412210     0.8363590
  H        3.6994690    -0.0050250     0.4023620
  H        2.3648890    -0.3937430     1.5043860
  H       -3.0646880    -0.2455350     0.5019360
  H       -2.0550810     2.1952630     0.1367680
units angstrom
no_reorient  #important for SAPT in psi4, default
symmetry c1  #important for SAPT in psi4, default
}

set PROPERTIES_ORIGIN ["COM"]
properties('MP2/aug-cc-pvtz', properties = ['dipole'])
--------------------------------------------------------------------------

    Molecular point group: c1
  Charge       = 0
  Multiplicity = 1
  Basis Set: AUG-CC-PVTZ
    Blend: AUG-CC-PVTZ
  Basis Set: (AUG-CC-PVTZ AUX)
    Blend: AUG-CC-PVTZ-JKFIT

    Orbital Energies [Eh]
    ---------------------

    Doubly Occupied:

       1A    -91.994646     2A    -15.566983     3A    -11.315791
       4A    -11.269138     5A    -11.261683     6A    -11.246056
       7A    -11.224408     8A     -8.994833     9A     -6.675724
      10A     -6.675170    11A     -6.674492    12A     -1.273304
      13A     -1.072195    14A     -1.060062    15A     -0.972891
      16A     -0.870360    17A     -0.791162    18A     -0.728608
      19A     -0.680758    20A     -0.629006    21A     -0.601206
      22A     -0.571456    23A     -0.553775    24A     -0.517671
      25A     -0.512657    26A     -0.503731    27A     -0.496990
      28A     -0.424927    29A     -0.388928    30A     -0.326648

  @DF-RHF Final Energy:  -645.48472508456871

   => Energetics <=

    Nuclear Repulsion Energy =            349.8344855131911117
    One-Electron Energy =               -1578.8879061210836880
    Two-Electron Energy =                 583.5686955233238677
    Total Energy =                       -645.4847250845687086
  Basis Set: (AUG-CC-PVTZ AUX)
    Blend: AUG-CC-PVTZ-RI
    Molecular point group: c1

    Geometry (in Angstrom), charge = 0, multiplicity = 1:

       Center              X                  Y                   Z               Mass
    ------------   -----------------  -----------------  -----------------  -----------------
         S           -0.784540786388    -1.176605677653     0.043532694764    31.972071174400
         N           -0.098957486388     1.317278722347    -0.249595805236    14.003074004430
         C            1.840114513612    -0.194009277653    -0.569452805236    12.000000000000
         C            0.394173513612     0.095863722347    -0.308450805236    12.000000000000
         C            2.713257513612     0.202014722347     0.623825194764    12.000000000000
         C           -1.973536486388     0.037772722347     0.263496194764    12.000000000000
         C           -1.433202486388     1.286345722347     0.068303194764    12.000000000000
         H            1.970217513612    -1.255895277653    -0.804823805236     1.007825032230
         H            2.140021513612     0.374279722347    -1.456065805236     1.007825032230
         H            2.579871513612     1.263288722347     0.844482194764     1.007825032230
         H            3.770161513612     0.017042722347     0.410485194764     1.007825032230
         H            2.435581513612    -0.371675277653     1.512509194764     1.007825032230
         H           -2.993995486388    -0.223467277653     0.510059194764     1.007825032230
         H           -1.984388486388     2.217330722347     0.144891194764     1.007825032230

  Basis Set: AUG-CC-PVTZ
    Blend: AUG-CC-PVTZ
  Basis Set: (AUG-CC-PVTZ AUX)
    Blend: AUG-CC-PVTZ-JKFIT
	 Reference Energy          =    -645.4847250845687086 [Eh]
	 Singles Energy            =      -0.0000000000000000 [Eh]
	 Same-Spin Energy          =      -0.3322153513737086 [Eh]
	 Opposite-Spin Energy      =      -1.0401631915316276 [Eh]
	 Correlation Energy        =      -1.3723785429053361 [Eh]
	 Total Energy              =    -646.8571036274740891 [Eh]

	 ================> DF-SCS-MP2 Energies <==================
	-----------------------------------------------------------
	 SCS Same-Spin Scale       =       0.3333333333333333 [-]
	 SCS Opposite-Spin Scale   =       1.2000000000000000 [-]
	 SCS Same-Spin Energy      =      -0.1107384504579028 [Eh]
	 SCS Opposite-Spin Energy  =      -1.2481958298379532 [Eh]
	 SCS Correlation Energy    =      -1.3589342802958559 [Eh]
	 SCS Total Energy          =    -646.8436593648646067 [Eh]
	-----------------------------------------------------------

  Dipole Moment: [D]
     X:    -0.3006      Y:    -1.2174      Z:     0.2590     Total:     1.2804

*** Psi4 exiting successfully. Buy a developer a beer!
