                               Psi4 1.3.2 release

  ==> Input File <==

--------------------------------------------------------------------------
#psi4
#
memory 32 gb

molecule  {
0 1
  S       -0.8349460    -1.1774250     0.0297960
  N       -0.1696500     1.2952110    -0.2577190
  C        1.7694220    -0.2160770    -0.5775760
  C        0.1969699     0.0289675    -0.2844386
  C        2.6425650     0.1799470     0.6157020
  C       -2.0442290     0.0157050     0.2553730
  C       -1.5038950     1.2642780     0.0601800
  H        1.8995250    -1.2779630    -0.8129470
  H        2.0693290     0.3522120    -1.4641890
  H        2.5091790     1.2412210     0.8363590
  H        3.6994690    -0.0050250     0.4023620
  H        2.3648890    -0.3937430     1.5043860
  H       -3.0646880    -0.2455350     0.5019360
  H       -2.0550810     2.1952630     0.1367680
units angstrom
no_reorient  #important for SAPT in psi4, default
symmetry c1  #important for SAPT in psi4, default
}

set PROPERTIES_ORIGIN ["COM"]
properties('MP2/aug-cc-pvtz', properties = ['dipole'])
--------------------------------------------------------------------------

    Molecular point group: c1
  Charge       = 0
  Multiplicity = 1
  Basis Set: AUG-CC-PVTZ
    Blend: AUG-CC-PVTZ
  Basis Set: (AUG-CC-PVTZ AUX)
    Blend: AUG-CC-PVTZ-JKFIT

    Orbital Energies [Eh]
    ---------------------

    Doubly Occupied:

       1A    -92.000371     2A    -15.562891     3A    -11.304430
       4A    -11.269618     5A    -11.257194     6A    -11.246767
       7A    -11.219616     8A     -9.003901     9A     -6.685068
      10A     -6.684096    11A     -6.683381    12A     -1.285605
      13A     -1.081645    14A     -1.051585    15A     -0.979398
      16A     -0.853525    17A     -0.793082    18A     -0.732811
      19A     -0.681377    20A     -0.619839    21A     -0.592723
      22A     -0.568669    23A     -0.560293    24A     -0.519459
      25A     -0.510075    26A     -0.493393    27A     -0.487491
      28A     -0.438328    29A     -0.390397    30A     -0.334610

  @DF-RHF Final Energy:  -645.46751291535713

   => Energetics <=

    Nuclear Repulsion Energy =            352.5333555419114759
    One-Electron Energy =               -1584.2184582710478935
    Two-Electron Energy =                 586.2175898137792274
    Total Energy =                       -645.4675129153571334
  Basis Set: (AUG-CC-PVTZ AUX)
    Blend: AUG-CC-PVTZ-RI
    Molecular point group: c1

    Geometry (in Angstrom), charge = 0, multiplicity = 1:

       Center              X                  Y                   Z               Mass
    ------------   -----------------  -----------------  -----------------  -----------------
         S           -0.756560778144    -1.156608392018     0.036095345135    31.972071174400
         N           -0.091264778144     1.316027607982    -0.251419654865    14.003074004430
         C            1.847807221856    -0.195260392018    -0.571276654865    12.000000000000
         C            0.275355121856     0.049784107982    -0.278139254865    12.000000000000
         C            2.720950221856     0.200763607982     0.622001345135    12.000000000000
         C           -1.965843778144     0.036521607982     0.261672345135    12.000000000000
         C           -1.425509778144     1.285094607982     0.066479345135    12.000000000000
         H            1.977910221856    -1.257146392018    -0.806647654865     1.007825032230
         H            2.147714221856     0.373028607982    -1.457889654865     1.007825032230
         H            2.587564221856     1.262037607982     0.842658345135     1.007825032230
         H            3.777854221856     0.015791607982     0.408661345135     1.007825032230
         H            2.443274221856    -0.372926392018     1.510685345135     1.007825032230
         H           -2.986302778144    -0.224718392018     0.508235345135     1.007825032230
         H           -1.976695778144     2.216079607982     0.143067345135     1.007825032230

  Basis Set: AUG-CC-PVTZ
    Blend: AUG-CC-PVTZ
  Basis Set: (AUG-CC-PVTZ AUX)
    Blend: AUG-CC-PVTZ-JKFIT
	 Reference Energy          =    -645.4675129153571334 [Eh]
	 Singles Energy            =      -0.0000000000000000 [Eh]
	 Same-Spin Energy          =      -0.3324636479604629 [Eh]
	 Opposite-Spin Energy      =      -1.0397571258327636 [Eh]
	 Correlation Energy        =      -1.3722207737932264 [Eh]
	 Total Energy              =    -646.8397336891503073 [Eh]

	 ================> DF-SCS-MP2 Energies <==================
	-----------------------------------------------------------
	 SCS Same-Spin Scale       =       0.3333333333333333 [-]
	 SCS Opposite-Spin Scale   =       1.2000000000000000 [-]
	 SCS Same-Spin Energy      =      -0.1108212159868210 [Eh]
	 SCS Opposite-Spin Energy  =      -1.2477085509993162 [Eh]
	 SCS Correlation Energy    =      -1.3585297669861371 [Eh]
	 SCS Total Energy          =    -646.8260426823433136 [Eh]
	-----------------------------------------------------------

  Dipole Moment: [D]
     X:    -0.6527      Y:    -1.5205      Z:     0.3262     Total:     1.6866

*** Psi4 exiting successfully. Buy a developer a beer!
