                               Psi4 1.3.2 release

  ==> Input File <==

--------------------------------------------------------------------------
#psi4
#
memory 32 gb

molecule  {
0 1
  S       -0.8349460    -1.1774250     0.0297960
  N       -0.1720914     1.3429947    -0.2597093
  C        1.7694220    -0.2160770    -0.5775760
  C        0.3234810     0.0737960    -0.3165740
  C        2.6425650     0.1799470     0.6157020
  C       -2.0442290     0.0157050     0.2553730
  C       -1.5038950     1.2642780     0.0601800
  H        1.8995250    -1.2779630    -0.8129470
  H        2.0693290     0.3522120    -1.4641890
  H        2.5091790     1.2412210     0.8363590
  H        3.6994690    -0.0050250     0.4023620
  H        2.3648890    -0.3937430     1.5043860
  H       -3.0646880    -0.2455350     0.5019360
  H       -2.0550810     2.1952630     0.1367680
units angstrom
no_reorient  #important for SAPT in psi4, default
symmetry c1  #important for SAPT in psi4, default
}

set PROPERTIES_ORIGIN ["COM"]
properties('MP2/aug-cc-pvtz', properties = ['dipole'])
--------------------------------------------------------------------------

    Molecular point group: c1
  Charge       = 0
  Multiplicity = 1
  Basis Set: AUG-CC-PVTZ
    Blend: AUG-CC-PVTZ
  Basis Set: (AUG-CC-PVTZ AUX)
    Blend: AUG-CC-PVTZ-JKFIT

    Orbital Energies [Eh]
    ---------------------

    Doubly Occupied:

       1A    -91.998756     2A    -15.570741     3A    -11.319421
       4A    -11.268957     5A    -11.259719     6A    -11.246940
       7A    -11.224723     8A     -8.999106     9A     -6.679999
      10A     -6.679469    11A     -6.678807    12A     -1.263113
      13A     -1.072349    14A     -1.062573    15A     -0.972136
      16A     -0.870376    17A     -0.786397    18A     -0.731654
      19A     -0.679177    20A     -0.628856    21A     -0.598967
      22A     -0.566715    23A     -0.553888    24A     -0.517451
      25A     -0.511711    26A     -0.504175    27A     -0.496530
      28A     -0.432517    29A     -0.386844    30A     -0.325334

  @DF-RHF Final Energy:  -645.47975192867375

   => Energetics <=

    Nuclear Repulsion Energy =            349.7666072627403651
    One-Electron Energy =               -1578.7179214887960370
    Two-Electron Energy =                 583.4715622973819791
    Total Energy =                       -645.4797519286737497
  Basis Set: (AUG-CC-PVTZ AUX)
    Blend: AUG-CC-PVTZ-RI
    Molecular point group: c1

    Geometry (in Angstrom), charge = 0, multiplicity = 1:

       Center              X                  Y                   Z               Mass
    ------------   -----------------  -----------------  -----------------  -----------------
         S           -0.769689568201    -1.167287517360     0.039753625320    31.972071174400
         N           -0.106834968201     1.353132182640    -0.249751674680    14.003074004430
         C            1.834678431799    -0.205939517360    -0.567618374680    12.000000000000
         C            0.388737431799     0.083933482640    -0.306616374680    12.000000000000
         C            2.707821431799     0.190084482640     0.625659625320    12.000000000000
         C           -1.978972568201     0.025842482640     0.265330625320    12.000000000000
         C           -1.438638568201     1.274415482640     0.070137625320    12.000000000000
         H            1.964781431799    -1.267825517360    -0.802989374680     1.007825032230
         H            2.134585431799     0.362349482640    -1.454231374680     1.007825032230
         H            2.574435431799     1.251358482640     0.846316625320     1.007825032230
         H            3.764725431799     0.005112482640     0.412319625320     1.007825032230
         H            2.430145431799    -0.383605517360     1.514343625320     1.007825032230
         H           -2.999431568201    -0.235397517360     0.511893625320     1.007825032230
         H           -1.989824568201     2.205400482640     0.146725625320     1.007825032230

  Basis Set: AUG-CC-PVTZ
    Blend: AUG-CC-PVTZ
  Basis Set: (AUG-CC-PVTZ AUX)
    Blend: AUG-CC-PVTZ-JKFIT
	 Reference Energy          =    -645.4797519286737497 [Eh]
	 Singles Energy            =      -0.0000000000000000 [Eh]
	 Same-Spin Energy          =      -0.3334323617330528 [Eh]
	 Opposite-Spin Energy      =      -1.0418562558955551 [Eh]
	 Correlation Energy        =      -1.3752886176286079 [Eh]
	 Total Energy              =    -646.8550405463023480 [Eh]

	 ================> DF-SCS-MP2 Energies <==================
	-----------------------------------------------------------
	 SCS Same-Spin Scale       =       0.3333333333333333 [-]
	 SCS Opposite-Spin Scale   =       1.2000000000000000 [-]
	 SCS Same-Spin Energy      =      -0.1111441205776843 [Eh]
	 SCS Opposite-Spin Energy  =      -1.2502275070746660 [Eh]
	 SCS Correlation Energy    =      -1.3613716276523502 [Eh]
	 SCS Total Energy          =    -646.8411235563261243 [Eh]
	-----------------------------------------------------------

  Dipole Moment: [D]
     X:    -0.3627      Y:    -1.4135      Z:     0.2823     Total:     1.4863

*** Psi4 exiting successfully. Buy a developer a beer!
