                               Psi4 1.3.2 release

  ==> Input File <==

--------------------------------------------------------------------------
#psi4
#
memory 32 gb

molecule  {
0 1
  S       -0.8349460    -1.1774250     0.0297960
  N       -0.1696500     1.2952110    -0.2577190
  C        1.7694220    -0.2160770    -0.5775760
  C        0.3662312     0.2226141    -0.2920950
  C        2.6425650     0.1799470     0.6157020
  C       -2.0442290     0.0157050     0.2553730
  C       -1.5038950     1.2642780     0.0601800
  H        1.8995250    -1.2779630    -0.8129470
  H        2.0693290     0.3522120    -1.4641890
  H        2.5091790     1.2412210     0.8363590
  H        3.6994690    -0.0050250     0.4023620
  H        2.3648890    -0.3937430     1.5043860
  H       -3.0646880    -0.2455350     0.5019360
  H       -2.0550810     2.1952630     0.1367680
units angstrom
no_reorient  #important for SAPT in psi4, default
symmetry c1  #important for SAPT in psi4, default
}

set PROPERTIES_ORIGIN ["COM"]
properties('MP2/aug-cc-pvtz', properties = ['dipole'])
--------------------------------------------------------------------------

    Molecular point group: c1
  Charge       = 0
  Multiplicity = 1
  Basis Set: AUG-CC-PVTZ
    Blend: AUG-CC-PVTZ
  Basis Set: (AUG-CC-PVTZ AUX)
    Blend: AUG-CC-PVTZ-JKFIT

    Orbital Energies [Eh]
    ---------------------

    Doubly Occupied:

       1A    -91.974913     2A    -15.563225     3A    -11.311340
       4A    -11.269456     5A    -11.266473     6A    -11.249207
       7A    -11.226535     8A     -8.975371     9A     -6.656287
      10A     -6.655540    11A     -6.654890    12A     -1.311789
      13A     -1.078679    14A     -1.059653    15A     -0.969015
      16A     -0.872031    17A     -0.805422    18A     -0.720115
      19A     -0.686852    20A     -0.632137    21A     -0.617400
      22A     -0.586208    23A     -0.557578    24A     -0.524018
      25A     -0.519310    26A     -0.502650    27A     -0.491432
      28A     -0.401588    29A     -0.397793    30A     -0.324372

  @DF-RHF Final Energy:  -645.47139291403880

   => Energetics <=

    Nuclear Repulsion Energy =            350.8523271545043940
    One-Electron Energy =               -1580.9248814394679812
    Two-Electron Energy =                 584.6011613709248422
    Total Energy =                       -645.4713929140388018
  Basis Set: (AUG-CC-PVTZ AUX)
    Blend: AUG-CC-PVTZ-RI
    Molecular point group: c1

    Geometry (in Angstrom), charge = 0, multiplicity = 1:

       Center              X                  Y                   Z               Mass
    ------------   -----------------  -----------------  -----------------  -----------------
         S           -0.774530671361    -1.177167189120     0.036908198932    31.972071174400
         N           -0.109234671361     1.295468810880    -0.250606801068    14.003074004430
         C            1.829837328639    -0.215819189120    -0.570463801068    12.000000000000
         C            0.426646528639     0.222871910880    -0.284982801068    12.000000000000
         C            2.702980328639     0.180204810880     0.622814198932    12.000000000000
         C           -1.983813671361     0.015962810880     0.262485198932    12.000000000000
         C           -1.443479671361     1.264535810880     0.067292198932    12.000000000000
         H            1.959940328639    -1.277705189120    -0.805834801068     1.007825032230
         H            2.129744328639     0.352469810880    -1.457076801068     1.007825032230
         H            2.569594328639     1.241478810880     0.843471198932     1.007825032230
         H            3.759884328639    -0.004767189120     0.409474198932     1.007825032230
         H            2.425304328639    -0.393485189120     1.511498198932     1.007825032230
         H           -3.004272671361    -0.245277189120     0.509048198932     1.007825032230
         H           -1.994665671361     2.195520810880     0.143880198932     1.007825032230

  Basis Set: AUG-CC-PVTZ
    Blend: AUG-CC-PVTZ
  Basis Set: (AUG-CC-PVTZ AUX)
    Blend: AUG-CC-PVTZ-JKFIT
	 Reference Energy          =    -645.4713929140388018 [Eh]
	 Singles Energy            =      -0.0000000000000000 [Eh]
	 Same-Spin Energy          =      -0.3299910646562565 [Eh]
	 Opposite-Spin Energy      =      -1.0371348661237252 [Eh]
	 Correlation Energy        =      -1.3671259307799817 [Eh]
	 Total Energy              =    -646.8385188448187364 [Eh]

	 ================> DF-SCS-MP2 Energies <==================
	-----------------------------------------------------------
	 SCS Same-Spin Scale       =       0.3333333333333333 [-]
	 SCS Opposite-Spin Scale   =       1.2000000000000000 [-]
	 SCS Same-Spin Energy      =      -0.1099970215520855 [Eh]
	 SCS Opposite-Spin Energy  =      -1.2445618393484701 [Eh]
	 SCS Correlation Energy    =      -1.3545588609005557 [Eh]
	 SCS Total Energy          =    -646.8259517749393126 [Eh]
	-----------------------------------------------------------

  Dipole Moment: [D]
     X:     0.1368      Y:    -0.6443      Z:     0.1309     Total:     0.6716

*** Psi4 exiting successfully. Buy a developer a beer!
