                               Psi4 1.3.2 release

  ==> Input File <==

--------------------------------------------------------------------------
#psi4
#
memory 32 gb

molecule  {
0 1
  S       -0.8349460    -1.1774250     0.0297960
  N       -0.2520777     1.2576777    -0.2413879
  C        1.7694220    -0.2160770    -0.5775760
  C        0.3234810     0.0737960    -0.3165740
  C        2.6425650     0.1799470     0.6157020
  C       -2.0442290     0.0157050     0.2553730
  C       -1.5038950     1.2642780     0.0601800
  H        1.8995250    -1.2779630    -0.8129470
  H        2.0693290     0.3522120    -1.4641890
  H        2.5091790     1.2412210     0.8363590
  H        3.6994690    -0.0050250     0.4023620
  H        2.3648890    -0.3937430     1.5043860
  H       -3.0646880    -0.2455350     0.5019360
  H       -2.0550810     2.1952630     0.1367680
units angstrom
no_reorient  #important for SAPT in psi4, default
symmetry c1  #important for SAPT in psi4, default
}

set PROPERTIES_ORIGIN ["COM"]
properties('MP2/aug-cc-pvtz', properties = ['dipole'])
--------------------------------------------------------------------------

    Molecular point group: c1
  Charge       = 0
  Multiplicity = 1
  Basis Set: AUG-CC-PVTZ
    Blend: AUG-CC-PVTZ
  Basis Set: (AUG-CC-PVTZ AUX)
    Blend: AUG-CC-PVTZ-JKFIT

    Orbital Energies [Eh]
    ---------------------

    Doubly Occupied:

       1A    -91.993596     2A    -15.554790     3A    -11.311824
       4A    -11.259857     5A    -11.256571     6A    -11.248452
       7A    -11.225188     8A     -8.994128     9A     -6.674944
      10A     -6.674552    11A     -6.673893    12A     -1.294175
      13A     -1.077780    14A     -1.057802    15A     -0.979212
      16A     -0.870964    17A     -0.800861    18A     -0.729074
      19A     -0.686026    20A     -0.630886    21A     -0.608649
      22A     -0.580755    23A     -0.558710    24A     -0.522032
      25A     -0.515298    26A     -0.500609    27A     -0.497062
      28A     -0.411462    29A     -0.390339    30A     -0.322362

  @DF-RHF Final Energy:  -645.47935008071602

   => Energetics <=

    Nuclear Repulsion Energy =            352.6862343168024267
    One-Electron Energy =               -1584.5274616814576802
    Two-Electron Energy =                 586.3618772839391795
    Total Energy =                       -645.4793500807160171
  Basis Set: (AUG-CC-PVTZ AUX)
    Blend: AUG-CC-PVTZ-RI
    Molecular point group: c1

    Geometry (in Angstrom), charge = 0, multiplicity = 1:

       Center              X                  Y                   Z               Mass
    ------------   -----------------  -----------------  -----------------  -----------------
         S           -0.759780209031    -1.156717747333     0.037483819952    31.972071174400
         N           -0.176911909031     1.278384952667    -0.233700080048    14.003074004430
         C            1.844587790969    -0.195369747333    -0.569888180048    12.000000000000
         C            0.398646790969     0.094503252667    -0.308886180048    12.000000000000
         C            2.717730790969     0.200654252667     0.623389819952    12.000000000000
         C           -1.969063209031     0.036412252667     0.263060819952    12.000000000000
         C           -1.428729209031     1.284985252667     0.067867819952    12.000000000000
         H            1.974690790969    -1.257255747333    -0.805259180048     1.007825032230
         H            2.144494790969     0.372919252667    -1.456501180048     1.007825032230
         H            2.584344790969     1.261928252667     0.844046819952     1.007825032230
         H            3.774634790969     0.015682252667     0.410049819952     1.007825032230
         H            2.440054790969    -0.373035747333     1.512073819952     1.007825032230
         H           -2.989522209031    -0.224827747333     0.509623819952     1.007825032230
         H           -1.979915209031     2.215970252667     0.144455819952     1.007825032230

  Basis Set: AUG-CC-PVTZ
    Blend: AUG-CC-PVTZ
  Basis Set: (AUG-CC-PVTZ AUX)
    Blend: AUG-CC-PVTZ-JKFIT
	 Reference Energy          =    -645.4793500807160171 [Eh]
	 Singles Energy            =      -0.0000000000000000 [Eh]
	 Same-Spin Energy          =      -0.3338393199776541 [Eh]
	 Opposite-Spin Energy      =      -1.0394819581174615 [Eh]
	 Correlation Energy        =      -1.3733212780951156 [Eh]
	 Total Energy              =    -646.8526713588111079 [Eh]

	 ================> DF-SCS-MP2 Energies <==================
	-----------------------------------------------------------
	 SCS Same-Spin Scale       =       0.3333333333333333 [-]
	 SCS Opposite-Spin Scale   =       1.2000000000000000 [-]
	 SCS Same-Spin Energy      =      -0.1112797733258847 [Eh]
	 SCS Opposite-Spin Energy  =      -1.2473783497409536 [Eh]
	 SCS Correlation Energy    =      -1.3586581230668384 [Eh]
	 SCS Total Energy          =    -646.8380082037828060 [Eh]
	-----------------------------------------------------------

  Dipole Moment: [D]
     X:    -0.1564      Y:    -1.1304      Z:     0.2258     Total:     1.1633

*** Psi4 exiting successfully. Buy a developer a beer!
