                               Psi4 1.3.2 release

  ==> Input File <==

--------------------------------------------------------------------------
#psi4
#
memory 32 gb

molecule  {
0 1
  S       -0.8349460    -1.1774250     0.0297960
  N       -0.1696500     1.2952110    -0.2577190
  C        1.7694220    -0.2160770    -0.5775760
  C        0.3502463     0.1734625    -0.2999197
  C        2.6425650     0.1799470     0.6157020
  C       -2.0442290     0.0157050     0.2553730
  C       -1.5038950     1.2642780     0.0601800
  H        1.8995250    -1.2779630    -0.8129470
  H        2.0693290     0.3522120    -1.4641890
  H        2.5091790     1.2412210     0.8363590
  H        3.6994690    -0.0050250     0.4023620
  H        2.3648890    -0.3937430     1.5043860
  H       -3.0646880    -0.2455350     0.5019360
  H       -2.0550810     2.1952630     0.1367680
units angstrom
no_reorient  #important for SAPT in psi4, default
symmetry c1  #important for SAPT in psi4, default
}

set PROPERTIES_ORIGIN ["COM"]
properties('MP2/aug-cc-pvtz', properties = ['dipole'])
--------------------------------------------------------------------------

    Molecular point group: c1
  Charge       = 0
  Multiplicity = 1
  Basis Set: AUG-CC-PVTZ
    Blend: AUG-CC-PVTZ
  Basis Set: (AUG-CC-PVTZ AUX)
    Blend: AUG-CC-PVTZ-JKFIT

    Orbital Energies [Eh]
    ---------------------

    Doubly Occupied:

       1A    -91.982292     2A    -15.563526     3A    -11.311569
       4A    -11.269266     5A    -11.264807     6A    -11.247442
       7A    -11.225494     8A     -8.982706     9A     -6.663609
      10A     -6.662955    11A     -6.662276    12A     -1.298421
      13A     -1.076191    14A     -1.059664    15A     -0.971414
      16A     -0.870970    17A     -0.801338    18A     -0.723137
      19A     -0.684664    20A     -0.630852    21A     -0.611100
      22A     -0.581350    23A     -0.556790    24A     -0.520302
      25A     -0.518251    26A     -0.502069    27A     -0.493750
      28A     -0.409482    29A     -0.396063    30A     -0.326495

  @DF-RHF Final Energy:  -645.48152053731224

   => Energetics <=

    Nuclear Repulsion Energy =            350.8996617774888591
    One-Electron Energy =               -1581.0258721649465770
    Two-Electron Energy =                 584.6446898501455962
    Total Energy =                       -645.4815205373122353
  Basis Set: (AUG-CC-PVTZ AUX)
    Blend: AUG-CC-PVTZ-RI
    Molecular point group: c1

    Geometry (in Angstrom), charge = 0, multiplicity = 1:

       Center              X                  Y                   Z               Mass
    ------------   -----------------  -----------------  -----------------  -----------------
         S           -0.772833609209    -1.171948931884     0.037738920564    31.972071174400
         N           -0.107537609209     1.300687068116    -0.249776079436    14.003074004430
         C            1.831534390791    -0.210600931884    -0.569633079436    12.000000000000
         C            0.412358690791     0.178938568116    -0.291976779436    12.000000000000
         C            2.704677390791     0.185423068116     0.623644920564    12.000000000000
         C           -1.982116609209     0.021181068116     0.263315920564    12.000000000000
         C           -1.441782609209     1.269754068116     0.068122920564    12.000000000000
         H            1.961637390791    -1.272486931884    -0.805004079436     1.007825032230
         H            2.131441390791     0.357688068116    -1.456246079436     1.007825032230
         H            2.571291390791     1.246697068116     0.844301920564     1.007825032230
         H            3.761581390791     0.000451068116     0.410304920564     1.007825032230
         H            2.427001390791    -0.388266931884     1.512328920564     1.007825032230
         H           -3.002575609209    -0.240058931884     0.509878920564     1.007825032230
         H           -1.992968609209     2.200739068116     0.144710920564     1.007825032230

  Basis Set: AUG-CC-PVTZ
    Blend: AUG-CC-PVTZ
  Basis Set: (AUG-CC-PVTZ AUX)
    Blend: AUG-CC-PVTZ-JKFIT
	 Reference Energy          =    -645.4815205373122353 [Eh]
	 Singles Energy            =      -0.0000000000000000 [Eh]
	 Same-Spin Energy          =      -0.3304957499351642 [Eh]
	 Opposite-Spin Energy      =      -1.0376172567667772 [Eh]
	 Correlation Energy        =      -1.3681130067019414 [Eh]
	 Total Energy              =    -646.8496335440141820 [Eh]

	 ================> DF-SCS-MP2 Energies <==================
	-----------------------------------------------------------
	 SCS Same-Spin Scale       =       0.3333333333333333 [-]
	 SCS Opposite-Spin Scale   =       1.2000000000000000 [-]
	 SCS Same-Spin Energy      =      -0.1101652499783881 [Eh]
	 SCS Opposite-Spin Energy  =      -1.2451407081201327 [Eh]
	 SCS Correlation Energy    =      -1.3553059580985207 [Eh]
	 SCS Total Energy          =    -646.8368264954107190 [Eh]
	-----------------------------------------------------------

  Dipole Moment: [D]
     X:    -0.0435      Y:    -0.8865      Z:     0.1799     Total:     0.9056

*** Psi4 exiting successfully. Buy a developer a beer!
