                               Psi4 1.3.2 release

  ==> Input File <==

--------------------------------------------------------------------------
#psi4
#
memory 32 gb

molecule  {
0 1
  S       -0.8349460    -1.1774250     0.0297960
  N       -0.1719454     1.1518989    -0.2488631
  C        1.7694220    -0.2160770    -0.5775760
  C        0.3234810     0.0737960    -0.3165740
  C        2.6425650     0.1799470     0.6157020
  C       -2.0442290     0.0157050     0.2553730
  C       -1.5038950     1.2642780     0.0601800
  H        1.8995250    -1.2779630    -0.8129470
  H        2.0693290     0.3522120    -1.4641890
  H        2.5091790     1.2412210     0.8363590
  H        3.6994690    -0.0050250     0.4023620
  H        2.3648890    -0.3937430     1.5043860
  H       -3.0646880    -0.2455350     0.5019360
  H       -2.0550810     2.1952630     0.1367680
units angstrom
no_reorient  #important for SAPT in psi4, default
symmetry c1  #important for SAPT in psi4, default
}

set PROPERTIES_ORIGIN ["COM"]
properties('MP2/aug-cc-pvtz', properties = ['dipole'])
--------------------------------------------------------------------------

    Molecular point group: c1
  Charge       = 0
  Multiplicity = 1
  Basis Set: AUG-CC-PVTZ
    Blend: AUG-CC-PVTZ
  Basis Set: (AUG-CC-PVTZ AUX)
    Blend: AUG-CC-PVTZ-JKFIT

    Orbital Energies [Eh]
    ---------------------

    Doubly Occupied:

       1A    -91.979445     2A    -15.547202     3A    -11.291688
       4A    -11.270793     5A    -11.265459     6A    -11.241855
       7A    -11.222994     8A     -8.981581     9A     -6.662460
      10A     -6.662064    11A     -6.661160    12A     -1.316520
      13A     -1.077360    14A     -1.056264    15A     -0.983603
      16A     -0.870295    17A     -0.806595    18A     -0.723504
      19A     -0.687158    20A     -0.631069    21A     -0.613999
      22A     -0.588943    23A     -0.563337    24A     -0.524290
      25A     -0.513893    26A     -0.500234    27A     -0.494926
      28A     -0.395311    29A     -0.392642    30A     -0.335461

  @DF-RHF Final Energy:  -645.47318593921182

   => Energetics <=

    Nuclear Repulsion Energy =            354.9747666341426680
    One-Electron Energy =               -1589.1716945960763496
    Two-Electron Energy =                 588.7237420227218081
    Total Energy =                       -645.4731859392118167
  Basis Set: (AUG-CC-PVTZ AUX)
    Blend: AUG-CC-PVTZ-RI
    Molecular point group: c1

    Geometry (in Angstrom), charge = 0, multiplicity = 1:

       Center              X                  Y                   Z               Mass
    ------------   -----------------  -----------------  -----------------  -----------------
         S           -0.769707655879    -1.143613001623     0.038409909066    31.972071174400
         N           -0.106707055879     1.185710898377    -0.240249190934    14.003074004430
         C            1.834660344121    -0.182265001623    -0.568962090934    12.000000000000
         C            0.388719344121     0.107607998377    -0.307960090934    12.000000000000
         C            2.707803344121     0.213758998377     0.624315909066    12.000000000000
         C           -1.978990655879     0.049516998377     0.263986909066    12.000000000000
         C           -1.438656655879     1.298089998377     0.068793909066    12.000000000000
         H            1.964763344121    -1.244151001623    -0.804333090934     1.007825032230
         H            2.134567344121     0.386023998377    -1.455575090934     1.007825032230
         H            2.574417344121     1.275032998377     0.844972909066     1.007825032230
         H            3.764707344121     0.028786998377     0.410975909066     1.007825032230
         H            2.430127344121    -0.359931001623     1.512999909066     1.007825032230
         H           -2.999449655879    -0.211723001623     0.510549909066     1.007825032230
         H           -1.989842655879     2.229074998377     0.145381909066     1.007825032230

  Basis Set: AUG-CC-PVTZ
    Blend: AUG-CC-PVTZ
  Basis Set: (AUG-CC-PVTZ AUX)
    Blend: AUG-CC-PVTZ-JKFIT
	 Reference Energy          =    -645.4731859392118167 [Eh]
	 Singles Energy            =      -0.0000000000000000 [Eh]
	 Same-Spin Energy          =      -0.3299634949384340 [Eh]
	 Opposite-Spin Energy      =      -1.0349877292207661 [Eh]
	 Correlation Energy        =      -1.3649512241592001 [Eh]
	 Total Energy              =    -646.8381371633710160 [Eh]

	 ================> DF-SCS-MP2 Energies <==================
	-----------------------------------------------------------
	 SCS Same-Spin Scale       =       0.3333333333333333 [-]
	 SCS Opposite-Spin Scale   =       1.2000000000000000 [-]
	 SCS Same-Spin Energy      =      -0.1099878316461447 [Eh]
	 SCS Opposite-Spin Energy  =      -1.2419852750649192 [Eh]
	 SCS Correlation Energy    =      -1.3519731067110639 [Eh]
	 SCS Total Energy          =    -646.8251590459228737 [Eh]
	-----------------------------------------------------------

  Dipole Moment: [D]
     X:    -0.2269      Y:    -0.6360      Z:     0.2051     Total:     0.7057

*** Psi4 exiting successfully. Buy a developer a beer!
