                               Psi4 1.3.2 release

  ==> Input File <==

--------------------------------------------------------------------------
#psi4
#
memory 32 gb

molecule  {
0 1
  S       -0.8349460    -1.1774250     0.0297960
  N       -0.1696500     1.2952110    -0.2577190
  C        1.7694220    -0.2160770    -0.5775760
  C        0.3234810     0.0737960    -0.3165740
  C        2.6425650     0.1799470     0.6157020
  C       -2.0227706     0.0059528     0.2509190
  C       -1.5038950     1.2642780     0.0601800
  H        1.8995250    -1.2779630    -0.8129470
  H        2.0693290     0.3522120    -1.4641890
  H        2.5091790     1.2412210     0.8363590
  H        3.6994690    -0.0050250     0.4023620
  H        2.3648890    -0.3937430     1.5043860
  H       -3.0646880    -0.2455350     0.5019360
  H       -2.0550810     2.1952630     0.1367680
units angstrom
no_reorient  #important for SAPT in psi4, default
symmetry c1  #important for SAPT in psi4, default
}

set PROPERTIES_ORIGIN ["COM"]
properties('MP2/aug-cc-pvtz', properties = ['dipole'])
--------------------------------------------------------------------------

    Molecular point group: c1
  Charge       = 0
  Multiplicity = 1
  Basis Set: AUG-CC-PVTZ
    Blend: AUG-CC-PVTZ
  Basis Set: (AUG-CC-PVTZ AUX)
    Blend: AUG-CC-PVTZ-JKFIT

    Orbital Energies [Eh]
    ---------------------

    Doubly Occupied:

       1A    -91.994694     2A    -15.564995     3A    -11.311268
       4A    -11.268103     5A    -11.260901     6A    -11.245182
       7A    -11.223738     8A     -8.995888     9A     -6.676819
      10A     -6.676284    11A     -6.675541    12A     -1.275655
      13A     -1.072102    14A     -1.065168    15A     -0.974199
      16A     -0.869582    17A     -0.789302    18A     -0.730087
      19A     -0.680365    20A     -0.627258    21A     -0.601590
      22A     -0.571169    23A     -0.555035    24A     -0.518270
      25A     -0.512562    26A     -0.505494    27A     -0.497591
      28A     -0.424880    29A     -0.389010    30A     -0.327001

  @DF-RHF Final Energy:  -645.48478123006873

   => Energetics <=

    Nuclear Repulsion Energy =            351.5264208871599863
    One-Electron Energy =               -1582.2629356437255410
    Two-Electron Energy =                 585.2517335264968779
    Total Energy =                       -645.4847812300687337
  Basis Set: (AUG-CC-PVTZ AUX)
    Blend: AUG-CC-PVTZ-RI
    Molecular point group: c1

    Geometry (in Angstrom), charge = 0, multiplicity = 1:

       Center              X                  Y                   Z               Mass
    ------------   -----------------  -----------------  -----------------  -----------------
         S           -0.772270193790    -1.160332322801     0.039979916569    31.972071174400
         N           -0.106974193790     1.312303677199    -0.247535083431    14.003074004430
         C            1.832097806210    -0.198984322801    -0.567392083431    12.000000000000
         C            0.386156806210     0.090888677199    -0.306390083431    12.000000000000
         C            2.705240806210     0.197039677199     0.625885916569    12.000000000000
         C           -1.960094793790     0.023045477199     0.261102916569    12.000000000000
         C           -1.441219193790     1.281370677199     0.070363916569    12.000000000000
         H            1.962200806210    -1.260870322801    -0.802763083431     1.007825032230
         H            2.132004806210     0.369304677199    -1.454005083431     1.007825032230
         H            2.571854806210     1.258313677199     0.846542916569     1.007825032230
         H            3.762144806210     0.012067677199     0.412545916569     1.007825032230
         H            2.427564806210    -0.376650322801     1.514569916569     1.007825032230
         H           -3.002012193790    -0.228442322801     0.512119916569     1.007825032230
         H           -1.992405193790     2.212355677199     0.146951916569     1.007825032230

  Basis Set: AUG-CC-PVTZ
    Blend: AUG-CC-PVTZ
  Basis Set: (AUG-CC-PVTZ AUX)
    Blend: AUG-CC-PVTZ-JKFIT
	 Reference Energy          =    -645.4847812300687337 [Eh]
	 Singles Energy            =      -0.0000000000000000 [Eh]
	 Same-Spin Energy          =      -0.3327071385673414 [Eh]
	 Opposite-Spin Energy      =      -1.0399341639834030 [Eh]
	 Correlation Energy        =      -1.3726413025507442 [Eh]
	 Total Energy              =    -646.8574225326194664 [Eh]

	 ================> DF-SCS-MP2 Energies <==================
	-----------------------------------------------------------
	 SCS Same-Spin Scale       =       0.3333333333333333 [-]
	 SCS Opposite-Spin Scale   =       1.2000000000000000 [-]
	 SCS Same-Spin Energy      =      -0.1109023795224471 [Eh]
	 SCS Opposite-Spin Energy  =      -1.2479209967800835 [Eh]
	 SCS Correlation Energy    =      -1.3588233763025306 [Eh]
	 SCS Total Energy          =    -646.8436046063712865 [Eh]
	-----------------------------------------------------------

  Dipole Moment: [D]
     X:    -0.3405      Y:    -1.2750      Z:     0.2664     Total:     1.3463

*** Psi4 exiting successfully. Buy a developer a beer!
