                               Psi4 1.4a3.dev225

  ==> Input File <==

--------------------------------------------------------------------------
#psi4
#
memory 32 gb

molecule  {
0 1
  S       -0.8349460    -1.1774250     0.0297960
  N       -0.1696500     1.2952110    -0.2577190
  C        1.7694220    -0.2160770    -0.5775760
  C        0.3041713     0.0776671    -0.3130885
  C        2.6425650     0.1799470     0.6157020
  C       -2.0442290     0.0157050     0.2553730
  C       -1.5038950     1.2642780     0.0601800
  H        1.8995250    -1.2779630    -0.8129470
  H        2.0693290     0.3522120    -1.4641890
  H        2.5091790     1.2412210     0.8363590
  H        3.6994690    -0.0050250     0.4023620
  H        2.3648890    -0.3937430     1.5043860
  H       -3.0646880    -0.2455350     0.5019360
  H       -2.0550810     2.1952630     0.1367680
units angstrom
no_reorient  #important for SAPT in psi4, default
symmetry c1  #important for SAPT in psi4, default
}

set PROPERTIES_ORIGIN ["COM"]
properties('MP2/aug-cc-pvtz', properties = ['dipole'])
--------------------------------------------------------------------------

    Molecular point group: c1
  Charge       = 0
  Multiplicity = 1
  Basis Set: AUG-CC-PVTZ
    Blend: AUG-CC-PVTZ
  Basis Set: (AUG-CC-PVTZ AUX)
    Blend: AUG-CC-PVTZ-JKFIT

    Orbital Energies [Eh]
    ---------------------

    Doubly Occupied:

       1A    -91.994331     2A    -15.564481     3A    -11.310984
       4A    -11.269243     5A    -11.261144     6A    -11.245925
       7A    -11.223408     8A     -8.995362     9A     -6.676280
      10A     -6.675739    11A     -6.675011    12A     -1.279153
      13A     -1.068741    14A     -1.063745    15A     -0.975812
      16A     -0.867253    17A     -0.793289    18A     -0.729204
      19A     -0.681396    20A     -0.627452    21A     -0.600251
      22A     -0.572340    23A     -0.556904    24A     -0.518273
      25A     -0.509704    26A     -0.504600    27A     -0.495930
      28A     -0.426655    29A     -0.388784    30A     -0.329818

  @DF-RHF Final Energy:  -645.48651775508756

   => Energetics <=

    Nuclear Repulsion Energy =            351.2146946356305648
    One-Electron Energy =               -1581.6399982926727716
    Two-Electron Energy =                 584.9387859019545886
    Total Energy =                       -645.4865177550875615
  Basis Set: (AUG-CC-PVTZ AUX)
    Blend: AUG-CC-PVTZ-RI
    Molecular point group: c1

    Geometry (in Angstrom), charge = 0, multiplicity = 1:

       Center              X                  Y                   Z               Mass
    ------------   -----------------  -----------------  -----------------  -----------------
         S           -0.767941984071    -1.161778661960     0.039137007013    31.972071174400
         N           -0.102645984071     1.310857338040    -0.248377992987    14.003074004430
         C            1.836426015929    -0.200430661960    -0.568234992987    12.000000000000
         C            0.371175315929     0.093313438040    -0.303747492987    12.000000000000
         C            2.709569015929     0.195593338040     0.625043007013    12.000000000000
         C           -1.977224984071     0.031351338040     0.264714007013    12.000000000000
         C           -1.436890984071     1.279924338040     0.069521007013    12.000000000000
         H            1.966529015929    -1.262316661960    -0.803605992987     1.007825032230
         H            2.136333015929     0.367858338040    -1.454847992987     1.007825032230
         H            2.576183015929     1.256867338040     0.845700007013     1.007825032230
         H            3.766473015929     0.010621338040     0.411703007013     1.007825032230
         H            2.431893015929    -0.378096661960     1.513727007013     1.007825032230
         H           -2.997683984071    -0.229888661960     0.511277007013     1.007825032230
         H           -1.988076984071     2.210909338040     0.146109007013     1.007825032230

  Basis Set: AUG-CC-PVTZ
    Blend: AUG-CC-PVTZ
  Basis Set: (AUG-CC-PVTZ AUX)
    Blend: AUG-CC-PVTZ-JKFIT
	 Reference Energy          =    -645.4865177550875615 [Eh]
	 Singles Energy            =      -0.0000000000000000 [Eh]
	 Same-Spin Energy          =      -0.3319188143304812 [Eh]
	 Opposite-Spin Energy      =      -1.0391187190756286 [Eh]
	 Correlation Energy        =      -1.3710375334061098 [Eh]
	 Total Energy              =    -646.8575552884936997 [Eh]

	 ================> DF-SCS-MP2 Energies <==================
	-----------------------------------------------------------
	 SCS Same-Spin Scale       =       0.3333333333333333 [-]
	 SCS Opposite-Spin Scale   =       1.2000000000000000 [-]
	 SCS Same-Spin Energy      =      -0.1106396047768271 [Eh]
	 SCS Opposite-Spin Energy  =      -1.2469424628907542 [Eh]
	 SCS Correlation Energy    =      -1.3575820676675812 [Eh]
	 SCS Total Energy          =    -646.8440998227551972 [Eh]
	-----------------------------------------------------------

  Dipole Moment: [D]
     X:    -0.3702      Y:    -1.2652      Z:     0.2714     Total:     1.3459

*** Psi4 exiting successfully. Buy a developer a beer!
