                               Psi4 1.3.2 release

  ==> Input File <==

--------------------------------------------------------------------------
#psi4
#
memory 32 gb

molecule  {
0 1
  S       -0.7912809    -1.2187548     0.0212096
  N       -0.1696500     1.2952110    -0.2577190
  C        1.7694220    -0.2160770    -0.5775760
  C        0.3234810     0.0737960    -0.3165740
  C        2.6425650     0.1799470     0.6157020
  C       -2.0442290     0.0157050     0.2553730
  C       -1.5038950     1.2642780     0.0601800
  H        1.8995250    -1.2779630    -0.8129470
  H        2.0693290     0.3522120    -1.4641890
  H        2.5091790     1.2412210     0.8363590
  H        3.6994690    -0.0050250     0.4023620
  H        2.3648890    -0.3937430     1.5043860
  H       -3.0646880    -0.2455350     0.5019360
  H       -2.0550810     2.1952630     0.1367680
units angstrom
no_reorient  #important for SAPT in psi4, default
symmetry c1  #important for SAPT in psi4, default
}

set PROPERTIES_ORIGIN ["COM"]
properties('MP2/aug-cc-pvtz', properties = ['dipole'])
--------------------------------------------------------------------------

    Molecular point group: c1
  Charge       = 0
  Multiplicity = 1
  Basis Set: AUG-CC-PVTZ
    Blend: AUG-CC-PVTZ
  Basis Set: (AUG-CC-PVTZ AUX)
    Blend: AUG-CC-PVTZ-JKFIT

    Orbital Energies [Eh]
    ---------------------

    Doubly Occupied:

       1A    -91.996299     2A    -15.565026     3A    -11.315151
       4A    -11.271497     5A    -11.265735     6A    -11.245225
       7A    -11.224350     8A     -8.995901     9A     -6.676788
      10A     -6.676133    11A     -6.675541    12A     -1.272446
      13A     -1.072720    14A     -1.051057    15A     -0.976729
      16A     -0.870133    17A     -0.794060    18A     -0.724740
      19A     -0.679446    20A     -0.629437    21A     -0.600498
      22A     -0.573056    23A     -0.553664    24A     -0.516686
      25A     -0.511099    26A     -0.504680    27A     -0.491953
      28A     -0.425380    29A     -0.385498    30A     -0.330949

  @DF-RHF Final Energy:  -645.48372338497666

   => Energetics <=

    Nuclear Repulsion Energy =            349.5818696327064572
    One-Electron Energy =               -1578.3874377513502623
    Two-Electron Energy =                 583.3218447336671488
    Total Energy =                       -645.4837233849766562
  Basis Set: (AUG-CC-PVTZ AUX)
    Blend: AUG-CC-PVTZ-RI
    Molecular point group: c1

    Geometry (in Angstrom), charge = 0, multiplicity = 1:

       Center              X                  Y                   Z               Mass
    ------------   -----------------  -----------------  -----------------  -----------------
         S           -0.738678204351    -1.191006776828     0.033349432234    31.972071174400
         N           -0.117047304351     1.322959023172    -0.245579167766    14.003074004430
         C            1.822024695649    -0.188328976828    -0.565436167766    12.000000000000
         C            0.376083695649     0.101544023172    -0.304434167766    12.000000000000
         C            2.695167695649     0.207695023172     0.627841832234    12.000000000000
         C           -1.991626304351     0.043453023172     0.267512832234    12.000000000000
         C           -1.451292304351     1.292026023172     0.072319832234    12.000000000000
         H            1.952127695649    -1.250214976828    -0.800807167766     1.007825032230
         H            2.121931695649     0.379960023172    -1.452049167766     1.007825032230
         H            2.561781695649     1.268969023172     0.848498832234     1.007825032230
         H            3.752071695649     0.022723023172     0.414501832234     1.007825032230
         H            2.417491695649    -0.365994976828     1.516525832234     1.007825032230
         H           -3.012085304351    -0.217786976828     0.514075832234     1.007825032230
         H           -2.002478304351     2.223011023172     0.148907832234     1.007825032230

  Basis Set: AUG-CC-PVTZ
    Blend: AUG-CC-PVTZ
  Basis Set: (AUG-CC-PVTZ AUX)
    Blend: AUG-CC-PVTZ-JKFIT
	 Reference Energy          =    -645.4837233849766562 [Eh]
	 Singles Energy            =      -0.0000000000000000 [Eh]
	 Same-Spin Energy          =      -0.3316457853281813 [Eh]
	 Opposite-Spin Energy      =      -1.0401084981917399 [Eh]
	 Correlation Energy        =      -1.3717542835199212 [Eh]
	 Total Energy              =    -646.8554776684966328 [Eh]

	 ================> DF-SCS-MP2 Energies <==================
	-----------------------------------------------------------
	 SCS Same-Spin Scale       =       0.3333333333333333 [-]
	 SCS Opposite-Spin Scale   =       1.2000000000000000 [-]
	 SCS Same-Spin Energy      =      -0.1105485951093938 [Eh]
	 SCS Opposite-Spin Energy  =      -1.2481301978300878 [Eh]
	 SCS Correlation Energy    =      -1.3586787929394817 [Eh]
	 SCS Total Energy          =    -646.8424021779161421 [Eh]
	-----------------------------------------------------------

  Dipole Moment: [D]
     X:    -0.3133      Y:    -1.2168      Z:     0.2593     Total:     1.2830

*** Psi4 exiting successfully. Buy a developer a beer!
