                               Psi4 1.3.2 release

  ==> Input File <==

--------------------------------------------------------------------------
#psi4
#
memory 32 gb

molecule  {
0 1
  S       -0.8349460    -1.1774250     0.0297960
  N       -0.1696500     1.2952110    -0.2577190
  C        1.7694220    -0.2160770    -0.5775760
  C        0.3608813    -0.0188393    -0.3210377
  C        2.6425650     0.1799470     0.6157020
  C       -2.0442290     0.0157050     0.2553730
  C       -1.5038950     1.2642780     0.0601800
  H        1.8995250    -1.2779630    -0.8129470
  H        2.0693290     0.3522120    -1.4641890
  H        2.5091790     1.2412210     0.8363590
  H        3.6994690    -0.0050250     0.4023620
  H        2.3648890    -0.3937430     1.5043860
  H       -3.0646880    -0.2455350     0.5019360
  H       -2.0550810     2.1952630     0.1367680
units angstrom
no_reorient  #important for SAPT in psi4, default
symmetry c1  #important for SAPT in psi4, default
}

set PROPERTIES_ORIGIN ["COM"]
properties('MP2/aug-cc-pvtz', properties = ['dipole'])
--------------------------------------------------------------------------

    Molecular point group: c1
  Charge       = 0
  Multiplicity = 1
  Basis Set: AUG-CC-PVTZ
    Blend: AUG-CC-PVTZ
  Basis Set: (AUG-CC-PVTZ AUX)
    Blend: AUG-CC-PVTZ-JKFIT

    Orbital Energies [Eh]
    ---------------------

    Doubly Occupied:

       1A    -92.002557     2A    -15.567277     3A    -11.317554
       4A    -11.269300     5A    -11.258322     6A    -11.244405
       7A    -11.225542     8A     -9.003040     9A     -6.683962
      10A     -6.683519    11A     -6.682874    12A     -1.250383
      13A     -1.082567    14A     -1.057324    15A     -0.974755
      16A     -0.877772    17A     -0.780200    18A     -0.734247
      19A     -0.677536    20A     -0.632176    21A     -0.604308
      22A     -0.564788    23A     -0.555763    24A     -0.520676
      25A     -0.512874    26A     -0.503392    27A     -0.497439
      28A     -0.423000    29A     -0.380968    30A     -0.323173

  @DF-RHF Final Energy:  -645.46801350988619

   => Energetics <=

    Nuclear Repulsion Energy =            350.6577078796925662
    One-Electron Energy =               -1580.4680596338412215
    Two-Electron Energy =                 584.3423382442623506
    Total Energy =                       -645.4680135098861911
  Basis Set: (AUG-CC-PVTZ AUX)
    Blend: AUG-CC-PVTZ-RI
    Molecular point group: c1

    Geometry (in Angstrom), charge = 0, multiplicity = 1:

       Center              X                  Y                   Z               Mass
    ------------   -----------------  -----------------  -----------------  -----------------
         S           -0.773962690779    -1.151532907598     0.039980946384    31.972071174400
         N           -0.108666690779     1.321103092402    -0.247534053616    14.003074004430
         C            1.830405309221    -0.190184907598    -0.567391053616    12.000000000000
         C            0.421864609221     0.007052792402    -0.310852753616    12.000000000000
         C            2.703548309221     0.205839092402     0.625886946384    12.000000000000
         C           -1.983245690779     0.041597092402     0.265557946384    12.000000000000
         C           -1.442911690779     1.290170092402     0.070364946384    12.000000000000
         H            1.960508309221    -1.252070907598    -0.802762053616     1.007825032230
         H            2.130312309221     0.378104092402    -1.454004053616     1.007825032230
         H            2.570162309221     1.267113092402     0.846543946384     1.007825032230
         H            3.760452309221     0.020867092402     0.412546946384     1.007825032230
         H            2.425872309221    -0.367850907598     1.514570946384     1.007825032230
         H           -3.003704690779    -0.219642907598     0.512120946384     1.007825032230
         H           -1.994097690779     2.221155092402     0.146952946384     1.007825032230

  Basis Set: AUG-CC-PVTZ
    Blend: AUG-CC-PVTZ
  Basis Set: (AUG-CC-PVTZ AUX)
    Blend: AUG-CC-PVTZ-JKFIT
	 Reference Energy          =    -645.4680135098861911 [Eh]
	 Singles Energy            =      -0.0000000000000000 [Eh]
	 Same-Spin Energy          =      -0.3356114229766828 [Eh]
	 Opposite-Spin Energy      =      -1.0442411486232583 [Eh]
	 Correlation Energy        =      -1.3798525715999412 [Eh]
	 Total Energy              =    -646.8478660814861314 [Eh]

	 ================> DF-SCS-MP2 Energies <==================
	-----------------------------------------------------------
	 SCS Same-Spin Scale       =       0.3333333333333333 [-]
	 SCS Opposite-Spin Scale   =       1.2000000000000000 [-]
	 SCS Same-Spin Energy      =      -0.1118704743255609 [Eh]
	 SCS Opposite-Spin Energy  =      -1.2530893783479100 [Eh]
	 SCS Correlation Energy    =      -1.3649598526734710 [Eh]
	 SCS Total Energy          =    -646.8329733625596418 [Eh]
	-----------------------------------------------------------

  Dipole Moment: [D]
     X:    -0.4259      Y:    -1.4079      Z:     0.3031     Total:     1.5018

*** Psi4 exiting successfully. Buy a developer a beer!
