                               Psi4 1.4a3.dev225

  ==> Input File <==

--------------------------------------------------------------------------
#psi4
#
memory 32 gb

molecule  {
0 1
  S       -0.8349460    -1.1774250     0.0297960
  N       -0.1696500     1.2952110    -0.2577190
  C        1.7694220    -0.2160770    -0.5775760
  C        0.3717553     0.0641183    -0.3252878
  C        2.6425650     0.1799470     0.6157020
  C       -2.0442290     0.0157050     0.2553730
  C       -1.5038950     1.2642780     0.0601800
  H        1.8995250    -1.2779630    -0.8129470
  H        2.0693290     0.3522120    -1.4641890
  H        2.5091790     1.2412210     0.8363590
  H        3.6994690    -0.0050250     0.4023620
  H        2.3648890    -0.3937430     1.5043860
  H       -3.0646880    -0.2455350     0.5019360
  H       -2.0550810     2.1952630     0.1367680
units angstrom
no_reorient  #important for SAPT in psi4, default
symmetry c1  #important for SAPT in psi4, default
}

set PROPERTIES_ORIGIN ["COM"]
properties('MP2/aug-cc-pvtz', properties = ['dipole'])
--------------------------------------------------------------------------

    Molecular point group: c1
  Charge       = 0
  Multiplicity = 1
  Basis Set: AUG-CC-PVTZ
    Blend: AUG-CC-PVTZ
  Basis Set: (AUG-CC-PVTZ AUX)
    Blend: AUG-CC-PVTZ-JKFIT

    Orbital Energies [Eh]
    ---------------------

    Doubly Occupied:

       1A    -91.994046     2A    -15.566782     3A    -11.317168
       4A    -11.268969     5A    -11.261332     6A    -11.244955
       7A    -11.226279     8A     -8.994131     9A     -6.675001
      10A     -6.674549    11A     -6.673868    12A     -1.264409
      13A     -1.082698    14A     -1.055866    15A     -0.973365
      16A     -0.877505    17A     -0.788334    18A     -0.729831
      19A     -0.679825    20A     -0.633054    21A     -0.607036
      22A     -0.572865    23A     -0.554332    24A     -0.520613
      25A     -0.515625    26A     -0.501783    27A     -0.496824
      28A     -0.419214    29A     -0.384208    30A     -0.325012

  @DF-RHF Final Energy:  -645.47991863224161

   => Energetics <=

    Nuclear Repulsion Energy =            350.5117401746184100
    One-Electron Energy =               -1580.2243575322261222
    Two-Electron Energy =                 584.2326987253661628
    Total Energy =                       -645.4799186322416062
  Basis Set: (AUG-CC-PVTZ AUX)
    Blend: AUG-CC-PVTZ-RI
    Molecular point group: c1

    Geometry (in Angstrom), charge = 0, multiplicity = 1:

       Center              X                  Y                   Z               Mass
    ------------   -----------------  -----------------  -----------------  -----------------
         S           -0.775117146162    -1.160340232212     0.040432164963    31.972071174400
         N           -0.109821146162     1.312295767788    -0.247082835037    14.003074004430
         C            1.829250853838    -0.198992232212    -0.566939835037    12.000000000000
         C            0.431584153838     0.081203067788    -0.314651635037    12.000000000000
         C            2.702393853838     0.197031767788     0.626338164963    12.000000000000
         C           -1.984400146162     0.032789767788     0.266009164963    12.000000000000
         C           -1.444066146162     1.281362767788     0.070816164963    12.000000000000
         H            1.959353853838    -1.260878232212    -0.802310835037     1.007825032230
         H            2.129157853838     0.369296767788    -1.453552835037     1.007825032230
         H            2.569007853838     1.258305767788     0.846995164963     1.007825032230
         H            3.759297853838     0.012059767788     0.412998164963     1.007825032230
         H            2.424717853838    -0.376658232212     1.515022164963     1.007825032230
         H           -3.004859146162    -0.228450232212     0.512572164963     1.007825032230
         H           -1.995252146162     2.212347767788     0.147404164963     1.007825032230

  Basis Set: AUG-CC-PVTZ
    Blend: AUG-CC-PVTZ
  Basis Set: (AUG-CC-PVTZ AUX)
    Blend: AUG-CC-PVTZ-JKFIT
	 Reference Energy          =    -645.4799186322416062 [Eh]
	 Singles Energy            =      -0.0000000000000000 [Eh]
	 Same-Spin Energy          =      -0.3335494977251935 [Eh]
	 Opposite-Spin Energy      =      -1.0415220155563090 [Eh]
	 Correlation Energy        =      -1.3750715132815026 [Eh]
	 Total Energy              =    -646.8549901455230611 [Eh]

	 ================> DF-SCS-MP2 Energies <==================
	-----------------------------------------------------------
	 SCS Same-Spin Scale       =       0.3333333333333333 [-]
	 SCS Opposite-Spin Scale   =       1.2000000000000000 [-]
	 SCS Same-Spin Energy      =      -0.1111831659083978 [Eh]
	 SCS Opposite-Spin Energy  =      -1.2498264186675707 [Eh]
	 SCS Correlation Energy    =      -1.3610095845759687 [Eh]
	 SCS Total Energy          =    -646.8409282168175878 [Eh]
	-----------------------------------------------------------

  Dipole Moment: [D]
     X:    -0.2343      Y:    -1.2217      Z:     0.2540     Total:     1.2696

*** Psi4 exiting successfully. Buy a developer a beer!
