                               Psi4 1.4a3.dev225

  ==> Input File <==

--------------------------------------------------------------------------
#psi4
#
memory 32 gb

molecule  {
0 1
  S       -0.8349460    -1.1774250     0.0297960
  N       -0.1696500     1.2952110    -0.2577190
  C        1.7694220    -0.2160770    -0.5775760
  C        0.2752067     0.0834737    -0.3078602
  C        2.6425650     0.1799470     0.6157020
  C       -2.0442290     0.0157050     0.2553730
  C       -1.5038950     1.2642780     0.0601800
  H        1.8995250    -1.2779630    -0.8129470
  H        2.0693290     0.3522120    -1.4641890
  H        2.5091790     1.2412210     0.8363590
  H        3.6994690    -0.0050250     0.4023620
  H        2.3648890    -0.3937430     1.5043860
  H       -3.0646880    -0.2455350     0.5019360
  H       -2.0550810     2.1952630     0.1367680
units angstrom
no_reorient  #important for SAPT in psi4, default
symmetry c1  #important for SAPT in psi4, default
}

set PROPERTIES_ORIGIN ["COM"]
properties('MP2/aug-cc-pvtz', properties = ['dipole'])
--------------------------------------------------------------------------

    Molecular point group: c1
  Charge       = 0
  Multiplicity = 1
  Basis Set: AUG-CC-PVTZ
    Blend: AUG-CC-PVTZ
  Basis Set: (AUG-CC-PVTZ AUX)
    Blend: AUG-CC-PVTZ-JKFIT

    Orbital Energies [Eh]
    ---------------------

    Doubly Occupied:

       1A    -91.994443     2A    -15.563434     3A    -11.308487
       4A    -11.269401     5A    -11.261002     6A    -11.246087
       7A    -11.222302     8A     -8.995896     9A     -6.676838
      10A     -6.676246    11A     -6.675498    12A     -1.285841
      13A     -1.068600    14A     -1.062383    15A     -0.976673
      16A     -0.863014    17A     -0.795322    18A     -0.729030
      19A     -0.682095    20A     -0.625258    21A     -0.597978
      22A     -0.572734    23A     -0.558162    24A     -0.518158
      25A     -0.506462    26A     -0.505260    27A     -0.495056
      28A     -0.428718    29A     -0.390776    30A     -0.331585

  @DF-RHF Final Energy:  -645.48538229910582

   => Energetics <=

    Nuclear Repulsion Energy =            351.5407942733128834
    One-Electron Energy =               -1582.2868766217386565
    Two-Electron Energy =                 585.2607000493198939
    Total Energy =                       -645.4853822991058223
  Basis Set: (AUG-CC-PVTZ AUX)
    Blend: AUG-CC-PVTZ-RI
    Molecular point group: c1

    Geometry (in Angstrom), charge = 0, multiplicity = 1:

       Center              X                  Y                   Z               Mass
    ------------   -----------------  -----------------  -----------------  -----------------
         S           -0.764866911570    -1.162395128819     0.038581936287    31.972071174400
         N           -0.099570911570     1.310240871181    -0.248933063713    14.003074004430
         C            1.839501088430    -0.201047128819    -0.568790063713    12.000000000000
         C            0.345285788430     0.098503571181    -0.299074263713    12.000000000000
         C            2.712644088430     0.194976871181     0.624487936287    12.000000000000
         C           -1.974149911570     0.030734871181     0.264158936287    12.000000000000
         C           -1.433815911570     1.279307871181     0.068965936287    12.000000000000
         H            1.969604088430    -1.262933128819    -0.804161063713     1.007825032230
         H            2.139408088430     0.367241871181    -1.455403063713     1.007825032230
         H            2.579258088430     1.256250871181     0.845144936287     1.007825032230
         H            3.769548088430     0.010004871181     0.411147936287     1.007825032230
         H            2.434968088430    -0.378713128819     1.513171936287     1.007825032230
         H           -2.994608911570    -0.230505128819     0.510721936287     1.007825032230
         H           -1.985001911570     2.210292871181     0.145553936287     1.007825032230

  Basis Set: AUG-CC-PVTZ
    Blend: AUG-CC-PVTZ
  Basis Set: (AUG-CC-PVTZ AUX)
    Blend: AUG-CC-PVTZ-JKFIT
	 Reference Energy          =    -645.4853822991058223 [Eh]
	 Singles Energy            =      -0.0000000000000000 [Eh]
	 Same-Spin Energy          =      -0.3313967552314352 [Eh]
	 Opposite-Spin Energy      =      -1.0384111849779885 [Eh]
	 Correlation Energy        =      -1.3698079402094236 [Eh]
	 Total Energy              =    -646.8551902393152204 [Eh]

	 ================> DF-SCS-MP2 Energies <==================
	-----------------------------------------------------------
	 SCS Same-Spin Scale       =       0.3333333333333333 [-]
	 SCS Opposite-Spin Scale   =       1.2000000000000000 [-]
	 SCS Same-Spin Energy      =      -0.1104655850771451 [Eh]
	 SCS Opposite-Spin Energy  =      -1.2460934219735862 [Eh]
	 SCS Correlation Energy    =      -1.3565590070507312 [Eh]
	 SCS Total Energy          =    -646.8419413061565137 [Eh]
	-----------------------------------------------------------

  Dipole Moment: [D]
     X:    -0.4261      Y:    -1.2847      Z:     0.2787     Total:     1.3819

*** Psi4 exiting successfully. Buy a developer a beer!
