                               Psi4 1.3.2 release

  ==> Input File <==

--------------------------------------------------------------------------
#psi4
#
memory 32 gb

molecule  {
0 1
  S       -0.8349460    -1.1774250     0.0297960
  N       -0.1696500     1.2952110    -0.2577190
  C        1.7694220    -0.2160770    -0.5775760
  C        0.3440776     0.0825839    -0.3218766
  C        2.6425650     0.1799470     0.6157020
  C       -2.0442290     0.0157050     0.2553730
  C       -1.5038950     1.2642780     0.0601800
  H        1.8995250    -1.2779630    -0.8129470
  H        2.0693290     0.3522120    -1.4641890
  H        2.5091790     1.2412210     0.8363590
  H        3.6994690    -0.0050250     0.4023620
  H        2.3648890    -0.3937430     1.5043860
  H       -3.0646880    -0.2455350     0.5019360
  H       -2.0550810     2.1952630     0.1367680
units angstrom
no_reorient  #important for SAPT in psi4, default
symmetry c1  #important for SAPT in psi4, default
}

set PROPERTIES_ORIGIN ["COM"]
properties('MP2/aug-cc-pvtz', properties = ['dipole'])
--------------------------------------------------------------------------

    Molecular point group: c1
  Charge       = 0
  Multiplicity = 1
  Basis Set: AUG-CC-PVTZ
    Blend: AUG-CC-PVTZ
  Basis Set: (AUG-CC-PVTZ AUX)
    Blend: AUG-CC-PVTZ-JKFIT

    Orbital Energies [Eh]
    ---------------------

    Doubly Occupied:

       1A    -91.992805     2A    -15.565649     3A    -11.314291
       4A    -11.269069     5A    -11.261758     6A    -11.245606
       7A    -11.225111     8A     -8.993239     9A     -6.674126
      10A     -6.673627    11A     -6.672927    12A     -1.273335
      13A     -1.076278    14A     -1.059151    15A     -0.974165
      16A     -0.873054    17A     -0.791799    18A     -0.728702
      19A     -0.680891    20A     -0.630670    21A     -0.604629
      22A     -0.573589    23A     -0.555268    24A     -0.518951
      25A     -0.514826    26A     -0.502510    27A     -0.496482
      28A     -0.421504    29A     -0.387101    30A     -0.327234

  @DF-RHF Final Energy:  -645.48511497747734

   => Energetics <=

    Nuclear Repulsion Energy =            350.7838196962885036
    One-Electron Energy =               -1580.7811735934531043
    Two-Electron Energy =                 584.5122389196873200
    Total Energy =                       -645.4851149774773376
  Basis Set: (AUG-CC-PVTZ AUX)
    Blend: AUG-CC-PVTZ-RI
    Molecular point group: c1

    Geometry (in Angstrom), charge = 0, multiplicity = 1:

       Center              X                  Y                   Z               Mass
    ------------   -----------------  -----------------  -----------------  -----------------
         S           -0.772178699432    -1.162300661797     0.040070009528    31.972071174400
         N           -0.106882699432     1.310335338203    -0.247444990472    14.003074004430
         C            1.832189300568    -0.200952661797    -0.567301990472    12.000000000000
         C            0.406844900568     0.097708238203    -0.311602590472    12.000000000000
         C            2.705332300568     0.195071338203     0.625976009528    12.000000000000
         C           -1.981461699432     0.030829338203     0.265647009528    12.000000000000
         C           -1.441127699432     1.279402338203     0.070454009528    12.000000000000
         H            1.962292300568    -1.262838661797    -0.802672990472     1.007825032230
         H            2.132096300568     0.367336338203    -1.453914990472     1.007825032230
         H            2.571946300568     1.256345338203     0.846633009528     1.007825032230
         H            3.762236300568     0.010099338203     0.412636009528     1.007825032230
         H            2.427656300568    -0.378618661797     1.514660009528     1.007825032230
         H           -3.001920699432    -0.230410661797     0.512210009528     1.007825032230
         H           -1.992313699432     2.210387338203     0.147042009528     1.007825032230

  Basis Set: AUG-CC-PVTZ
    Blend: AUG-CC-PVTZ
  Basis Set: (AUG-CC-PVTZ AUX)
    Blend: AUG-CC-PVTZ-JKFIT
	 Reference Energy          =    -645.4851149774773376 [Eh]
	 Singles Energy            =      -0.0000000000000000 [Eh]
	 Same-Spin Energy          =      -0.3324805833920039 [Eh]
	 Opposite-Spin Energy      =      -1.0399952047064664 [Eh]
	 Correlation Energy        =      -1.3724757880984704 [Eh]
	 Total Energy              =    -646.8575907655757646 [Eh]

	 ================> DF-SCS-MP2 Energies <==================
	-----------------------------------------------------------
	 SCS Same-Spin Scale       =       0.3333333333333333 [-]
	 SCS Opposite-Spin Scale   =       1.2000000000000000 [-]
	 SCS Same-Spin Energy      =      -0.1108268611306680 [Eh]
	 SCS Opposite-Spin Energy  =      -1.2479942456477597 [Eh]
	 SCS Correlation Energy    =      -1.3588211067784277 [Eh]
	 SCS Total Energy          =    -646.8439360842558017 [Eh]
	-----------------------------------------------------------

  Dipole Moment: [D]
     X:    -0.2628      Y:    -1.2023      Z:     0.2538     Total:     1.2566

*** Psi4 exiting successfully. Buy a developer a beer!
