                               Psi4 1.3.2 release

  ==> Input File <==

--------------------------------------------------------------------------
#psi4
#
memory 32 gb

molecule  {
0 1
  S       -0.7954825    -1.1338445     0.0187769
  N       -0.1696500     1.2952110    -0.2577190
  C        1.7694220    -0.2160770    -0.5775760
  C        0.3234810     0.0737960    -0.3165740
  C        2.6425650     0.1799470     0.6157020
  C       -2.0442290     0.0157050     0.2553730
  C       -1.5038950     1.2642780     0.0601800
  H        1.8995250    -1.2779630    -0.8129470
  H        2.0693290     0.3522120    -1.4641890
  H        2.5091790     1.2412210     0.8363590
  H        3.6994690    -0.0050250     0.4023620
  H        2.3648890    -0.3937430     1.5043860
  H       -3.0646880    -0.2455350     0.5019360
  H       -2.0550810     2.1952630     0.1367680
units angstrom
no_reorient  #important for SAPT in psi4, default
symmetry c1  #important for SAPT in psi4, default
}

set PROPERTIES_ORIGIN ["COM"]
properties('MP2/aug-cc-pvtz', properties = ['dipole'])
--------------------------------------------------------------------------

    Molecular point group: c1
  Charge       = 0
  Multiplicity = 1
  Basis Set: AUG-CC-PVTZ
    Blend: AUG-CC-PVTZ
  Basis Set: (AUG-CC-PVTZ AUX)
    Blend: AUG-CC-PVTZ-JKFIT

    Orbital Energies [Eh]
    ---------------------

    Doubly Occupied:

       1A    -91.993114     2A    -15.561522     3A    -11.306237
       4A    -11.269210     5A    -11.260243     6A    -11.245239
       7A    -11.223802     8A     -8.995228     9A     -6.676203
      10A     -6.675677    11A     -6.674910    12A     -1.278649
      13A     -1.073136    14A     -1.064497    15A     -0.979967
      16A     -0.869832    17A     -0.793585    18A     -0.730650
      19A     -0.681378    20A     -0.629066    21A     -0.604259
      22A     -0.573815    23A     -0.561002    24A     -0.520006
      25A     -0.511497    26A     -0.503647    27A     -0.494356
      28A     -0.424117    29A     -0.384537    30A     -0.332533

  @DF-RHF Final Energy:  -645.48558725620785

   => Energetics <=

    Nuclear Repulsion Energy =            353.4333732645965824
    One-Electron Energy =               -1586.0540885660752792
    Two-Electron Energy =                 587.1351280452707897
    Total Energy =                       -645.4855872562078503
  Basis Set: (AUG-CC-PVTZ AUX)
    Blend: AUG-CC-PVTZ-RI
    Molecular point group: c1

    Geometry (in Angstrom), charge = 0, multiplicity = 1:

       Center              X                  Y                   Z               Mass
    ------------   -----------------  -----------------  -----------------  -----------------
         S           -0.741691323870    -1.130114525725     0.031604854965    31.972071174400
         N           -0.115858823870     1.298940974275    -0.244891045035    14.003074004430
         C            1.823213176130    -0.212347025725    -0.564748045035    12.000000000000
         C            0.377272176130     0.077525974275    -0.303746045035    12.000000000000
         C            2.696356176130     0.183676974275     0.628529954965    12.000000000000
         C           -1.990437823870     0.019434974275     0.268200954965    12.000000000000
         C           -1.450103823870     1.268007974275     0.073007954965    12.000000000000
         H            1.953316176130    -1.274233025725    -0.800119045035     1.007825032230
         H            2.123120176130     0.355941974275    -1.451361045035     1.007825032230
         H            2.562970176130     1.244950974275     0.849186954965     1.007825032230
         H            3.753260176130    -0.001295025725     0.415189954965     1.007825032230
         H            2.418680176130    -0.390013025725     1.517213954965     1.007825032230
         H           -3.010896823870    -0.241805025725     0.514763954965     1.007825032230
         H           -2.001289823870     2.198992974275     0.149595954965     1.007825032230

  Basis Set: AUG-CC-PVTZ
    Blend: AUG-CC-PVTZ
  Basis Set: (AUG-CC-PVTZ AUX)
    Blend: AUG-CC-PVTZ-JKFIT
	 Reference Energy          =    -645.4855872562078503 [Eh]
	 Singles Energy            =      -0.0000000000000000 [Eh]
	 Same-Spin Energy          =      -0.3326612895953739 [Eh]
	 Opposite-Spin Energy      =      -1.0389556877740374 [Eh]
	 Correlation Energy        =      -1.3716169773694111 [Eh]
	 Total Energy              =    -646.8572042335772494 [Eh]

	 ================> DF-SCS-MP2 Energies <==================
	-----------------------------------------------------------
	 SCS Same-Spin Scale       =       0.3333333333333333 [-]
	 SCS Opposite-Spin Scale   =       1.2000000000000000 [-]
	 SCS Same-Spin Energy      =      -0.1108870965317913 [Eh]
	 SCS Opposite-Spin Energy  =      -1.2467468253288447 [Eh]
	 SCS Correlation Energy    =      -1.3576339218606361 [Eh]
	 SCS Total Energy          =    -646.8432211780684611 [Eh]
	-----------------------------------------------------------

  Dipole Moment: [D]
     X:    -0.3833      Y:    -1.3112      Z:     0.2790     Total:     1.3943

*** Psi4 exiting successfully. Buy a developer a beer!
