                               Psi4 1.4a3.dev225

  ==> Input File <==

--------------------------------------------------------------------------
#psi4
#
memory 32 gb

molecule  {
0 1
  S       -0.8349460    -1.1774250     0.0297960
  N       -0.1696500     1.2952110    -0.2577190
  C        1.7694220    -0.2160770    -0.5775760
  C        0.2901922     0.0378407    -0.3066206
  C        2.6425650     0.1799470     0.6157020
  C       -2.0442290     0.0157050     0.2553730
  C       -1.5038950     1.2642780     0.0601800
  H        1.8995250    -1.2779630    -0.8129470
  H        2.0693290     0.3522120    -1.4641890
  H        2.5091790     1.2412210     0.8363590
  H        3.6994690    -0.0050250     0.4023620
  H        2.3648890    -0.3937430     1.5043860
  H       -3.0646880    -0.2455350     0.5019360
  H       -2.0550810     2.1952630     0.1367680
units angstrom
no_reorient  #important for SAPT in psi4, default
symmetry c1  #important for SAPT in psi4, default
}

set PROPERTIES_ORIGIN ["COM"]
properties('MP2/aug-cc-pvtz', properties = ['dipole'])
--------------------------------------------------------------------------

    Molecular point group: c1
  Charge       = 0
  Multiplicity = 1
  Basis Set: AUG-CC-PVTZ
    Blend: AUG-CC-PVTZ
  Basis Set: (AUG-CC-PVTZ AUX)
    Blend: AUG-CC-PVTZ-JKFIT

    Orbital Energies [Eh]
    ---------------------

    Doubly Occupied:

       1A    -91.998385     2A    -15.564960     3A    -11.310848
       4A    -11.269277     5A    -11.259376     6A    -11.245975
       7A    -11.222759     8A     -8.999889     9A     -6.680858
      10A     -6.680272    11A     -6.679560    12A     -1.272084
      13A     -1.067279    14A     -1.065648    15A     -0.976972
      16A     -0.865993    17A     -0.789714    18A     -0.731708
      19A     -0.680268    20A     -0.626373    21A     -0.597926
      22A     -0.568192    23A     -0.557509    24A     -0.518299
      25A     -0.506592    26A     -0.505168    27A     -0.496029
      28A     -0.431282    29A     -0.386540    30A     -0.330038

  @DF-RHF Final Energy:  -645.48272244676309

   => Energetics <=

    Nuclear Repulsion Energy =            351.3885675726000954
    One-Electron Energy =               -1581.9710292299898811
    Two-Electron Energy =                 585.0997392106266943
    Total Energy =                       -645.4827224467630913
  Basis Set: (AUG-CC-PVTZ AUX)
    Blend: AUG-CC-PVTZ-RI
    Molecular point group: c1

    Geometry (in Angstrom), charge = 0, multiplicity = 1:

       Center              X                  Y                   Z               Mass
    ------------   -----------------  -----------------  -----------------  -----------------
         S           -0.766457870843    -1.157550429309     0.038450332195    31.972071174400
         N           -0.101161870843     1.315085570691    -0.249064667805    14.003074004430
         C            1.837910129157    -0.196202429309    -0.568921667805    12.000000000000
         C            0.358680329157     0.057715270691    -0.297966267805    12.000000000000
         C            2.711053129157     0.199821570691     0.624356332195    12.000000000000
         C           -1.975740870843     0.035579570691     0.264027332195    12.000000000000
         C           -1.435406870843     1.284152570691     0.068834332195    12.000000000000
         H            1.968013129157    -1.258088429309    -0.804292667805     1.007825032230
         H            2.137817129157     0.372086570691    -1.455534667805     1.007825032230
         H            2.577667129157     1.261095570691     0.845013332195     1.007825032230
         H            3.767957129157     0.014849570691     0.411016332195     1.007825032230
         H            2.433377129157    -0.373868429309     1.513040332195     1.007825032230
         H           -2.996199870843    -0.225660429309     0.510590332195     1.007825032230
         H           -1.986592870843     2.215137570691     0.145422332195     1.007825032230

  Basis Set: AUG-CC-PVTZ
    Blend: AUG-CC-PVTZ
  Basis Set: (AUG-CC-PVTZ AUX)
    Blend: AUG-CC-PVTZ-JKFIT
	 Reference Energy          =    -645.4827224467630913 [Eh]
	 Singles Energy            =      -0.0000000000000000 [Eh]
	 Same-Spin Energy          =      -0.3328103357238085 [Eh]
	 Opposite-Spin Energy      =      -1.0401839085391440 [Eh]
	 Correlation Energy        =      -1.3729942442629526 [Eh]
	 Total Energy              =    -646.8557166910260321 [Eh]

	 ================> DF-SCS-MP2 Energies <==================
	-----------------------------------------------------------
	 SCS Same-Spin Scale       =       0.3333333333333333 [-]
	 SCS Opposite-Spin Scale   =       1.2000000000000000 [-]
	 SCS Same-Spin Energy      =      -0.1109367785746028 [Eh]
	 SCS Opposite-Spin Energy  =      -1.2482206902469728 [Eh]
	 SCS Correlation Energy    =      -1.3591574688215757 [Eh]
	 SCS Total Energy          =    -646.8418799155846273 [Eh]
	-----------------------------------------------------------

  Dipole Moment: [D]
     X:    -0.4716      Y:    -1.3832      Z:     0.2964     Total:     1.4911

*** Psi4 exiting successfully. Buy a developer a beer!
