                               Psi4 1.3.2 release

  ==> Input File <==

--------------------------------------------------------------------------
#psi4
#
memory 32 gb

molecule  {
0 1
  S       -0.8349460    -1.1774250     0.0297960
  N       -0.1696500     1.2952110    -0.2577190
  C        1.7694220    -0.2160770    -0.5775760
  C        0.3234810     0.0737960    -0.3165740
  C        2.6425650     0.1799470     0.6157020
  C       -2.0442290     0.0157050     0.2553730
  C       -1.3093905     1.2687874     0.0138371
  H        1.8995250    -1.2779630    -0.8129470
  H        2.0693290     0.3522120    -1.4641890
  H        2.5091790     1.2412210     0.8363590
  H        3.6994690    -0.0050250     0.4023620
  H        2.3648890    -0.3937430     1.5043860
  H       -3.0646880    -0.2455350     0.5019360
  H       -2.0550810     2.1952630     0.1367680
units angstrom
no_reorient  #important for SAPT in psi4, default
symmetry c1  #important for SAPT in psi4, default
}

set PROPERTIES_ORIGIN ["COM"]
properties('MP2/aug-cc-pvtz', properties = ['dipole'])
--------------------------------------------------------------------------

    Molecular point group: c1
  Charge       = 0
  Multiplicity = 1
  Basis Set: AUG-CC-PVTZ
    Blend: AUG-CC-PVTZ
  Basis Set: (AUG-CC-PVTZ AUX)
    Blend: AUG-CC-PVTZ-JKFIT

    Orbital Energies [Eh]
    ---------------------

    Doubly Occupied:

       1A    -92.003477     2A    -15.558079     3A    -11.314462
       4A    -11.273649     5A    -11.259579     6A    -11.245852
       7A    -11.224628     8A     -9.002818     9A     -6.683488
      10A     -6.683217    11A     -6.682744    12A     -1.341980
      13A     -1.089439    14A     -1.062323    15A     -0.962510
      16A     -0.861796    17A     -0.813795    18A     -0.728925
      19A     -0.679319    20A     -0.633767    21A     -0.606779
      22A     -0.589515    23A     -0.569096    24A     -0.524231
      25A     -0.513257    26A     -0.501468    27A     -0.471815
      28A     -0.421896    29A     -0.411697    30A     -0.300314

  @DF-RHF Final Energy:  -645.42239237219951

   => Energetics <=

    Nuclear Repulsion Energy =            354.0978270431880901
    One-Electron Energy =               -1587.0086079975396842
    Two-Electron Energy =                 587.4883885821520835
    Total Energy =                       -645.4223923721995106
  Basis Set: (AUG-CC-PVTZ AUX)
    Blend: AUG-CC-PVTZ-RI
    Molecular point group: c1

    Geometry (in Angstrom), charge = 0, multiplicity = 1:

       Center              X                  Y                   Z               Mass
    ------------   -----------------  -----------------  -----------------  -----------------
         S           -0.790641906276    -1.161846428088     0.044427117789    31.972071174400
         N           -0.125345906276     1.310789571912    -0.243087882211    14.003074004430
         C            1.813726093724    -0.200498428088    -0.562944882211    12.000000000000
         C            0.367785093724     0.089374571912    -0.301942882211    12.000000000000
         C            2.686869093724     0.195525571912     0.630333117789    12.000000000000
         C           -1.999924906276     0.031283571912     0.270004117789    12.000000000000
         C           -1.265086406276     1.284365971912     0.028468217789    12.000000000000
         H            1.943829093724    -1.262384428088    -0.798315882211     1.007825032230
         H            2.113633093724     0.367790571912    -1.449557882211     1.007825032230
         H            2.553483093724     1.256799571912     0.850990117789     1.007825032230
         H            3.743773093724     0.010553571912     0.416993117789     1.007825032230
         H            2.409193093724    -0.378164428088     1.519017117789     1.007825032230
         H           -3.020383906276    -0.229956428088     0.516567117789     1.007825032230
         H           -2.010776906276     2.210841571912     0.151399117789     1.007825032230

  Basis Set: AUG-CC-PVTZ
    Blend: AUG-CC-PVTZ
  Basis Set: (AUG-CC-PVTZ AUX)
    Blend: AUG-CC-PVTZ-JKFIT
	 Reference Energy          =    -645.4223923721995106 [Eh]
	 Singles Energy            =      -0.0000000000000000 [Eh]
	 Same-Spin Energy          =      -0.3375914165990561 [Eh]
	 Opposite-Spin Energy      =      -1.0442264664287766 [Eh]
	 Correlation Energy        =      -1.3818178830278327 [Eh]
	 Total Energy              =    -646.8042102552273036 [Eh]

	 ================> DF-SCS-MP2 Energies <==================
	-----------------------------------------------------------
	 SCS Same-Spin Scale       =       0.3333333333333333 [-]
	 SCS Opposite-Spin Scale   =       1.2000000000000000 [-]
	 SCS Same-Spin Energy      =      -0.1125304721996854 [Eh]
	 SCS Opposite-Spin Energy  =      -1.2530717597145318 [Eh]
	 SCS Correlation Energy    =      -1.3656022319142171 [Eh]
	 SCS Total Energy          =    -646.7879946041136918 [Eh]
	-----------------------------------------------------------

  Dipole Moment: [D]
     X:    -0.2490      Y:    -1.3182      Z:     0.2250     Total:     1.3603

*** Psi4 exiting successfully. Buy a developer a beer!
