                               Psi4 1.3.2 release

  ==> Input File <==

--------------------------------------------------------------------------
#psi4
#
memory 32 gb

molecule  {
0 1
  S       -0.8349460    -1.1774250     0.0297960
  N       -0.1720813     1.1518668    -0.2494363
  C        1.7694220    -0.2160770    -0.5775760
  C        0.3234810     0.0737960    -0.3165740
  C        2.6425650     0.1799470     0.6157020
  C       -2.0442290     0.0157050     0.2553730
  C       -1.5038950     1.2642780     0.0601800
  H        1.8995250    -1.2779630    -0.8129470
  H        2.0693290     0.3522120    -1.4641890
  H        2.5091790     1.2412210     0.8363590
  H        3.6994690    -0.0050250     0.4023620
  H        2.3648890    -0.3937430     1.5043860
  H       -3.0646880    -0.2455350     0.5019360
  H       -2.0550810     2.1952630     0.1367680
units angstrom
no_reorient  #important for SAPT in psi4, default
symmetry c1  #important for SAPT in psi4, default
}

set PROPERTIES_ORIGIN ["COM"]
properties('MP2/aug-cc-pvtz', properties = ['dipole'])
--------------------------------------------------------------------------

    Molecular point group: c1
  Charge       = 0
  Multiplicity = 1
  Basis Set: AUG-CC-PVTZ
    Blend: AUG-CC-PVTZ
  Basis Set: (AUG-CC-PVTZ AUX)
    Blend: AUG-CC-PVTZ-JKFIT

    Orbital Energies [Eh]
    ---------------------

    Doubly Occupied:

       1A    -91.979444     2A    -15.547201     3A    -11.291688
       4A    -11.270793     5A    -11.265459     6A    -11.241855
       7A    -11.222999     8A     -8.981579     9A     -6.662459
      10A     -6.662063    11A     -6.661159    12A     -1.316521
      13A     -1.077360    14A     -1.056266    15A     -0.983606
      16A     -0.870296    17A     -0.806595    18A     -0.723505
      19A     -0.687157    20A     -0.631070    21A     -0.614011
      22A     -0.588939    23A     -0.563336    24A     -0.524294
      25A     -0.513897    26A     -0.500233    27A     -0.494926
      28A     -0.395310    29A     -0.392642    30A     -0.335460

  @DF-RHF Final Energy:  -645.47318611676599

   => Energetics <=

    Nuclear Repulsion Energy =            354.9739669755354043
    One-Electron Energy =               -1589.1700584323991734
    Two-Electron Energy =                 588.7229053400977818
    Total Energy =                       -645.4731861167659872
  Basis Set: (AUG-CC-PVTZ AUX)
    Blend: AUG-CC-PVTZ-RI
    Molecular point group: c1

    Geometry (in Angstrom), charge = 0, multiplicity = 1:

       Center              X                  Y                   Z               Mass
    ------------   -----------------  -----------------  -----------------  -----------------
         S           -0.769690819472    -1.143609024811     0.038480921785    31.972071174400
         N           -0.106826119472     1.185682775189    -0.240751378215    14.003074004430
         C            1.834677180528    -0.182261024811    -0.568891078215    12.000000000000
         C            0.388736180528     0.107611975189    -0.307889078215    12.000000000000
         C            2.707820180528     0.213762975189     0.624386921785    12.000000000000
         C           -1.978973819472     0.049520975189     0.264057921785    12.000000000000
         C           -1.438639819472     1.298093975189     0.068864921785    12.000000000000
         H            1.964780180528    -1.244147024811    -0.804262078215     1.007825032230
         H            2.134584180528     0.386027975189    -1.455504078215     1.007825032230
         H            2.574434180528     1.275036975189     0.845043921785     1.007825032230
         H            3.764724180528     0.028790975189     0.411046921785     1.007825032230
         H            2.430144180528    -0.359927024811     1.513070921785     1.007825032230
         H           -2.999432819472    -0.211719024811     0.510620921785     1.007825032230
         H           -1.989825819472     2.229078975189     0.145452921785     1.007825032230

  Basis Set: AUG-CC-PVTZ
    Blend: AUG-CC-PVTZ
  Basis Set: (AUG-CC-PVTZ AUX)
    Blend: AUG-CC-PVTZ-JKFIT
	 Reference Energy          =    -645.4731861167659872 [Eh]
	 Singles Energy            =      -0.0000000000000000 [Eh]
	 Same-Spin Energy          =      -0.3299631562786257 [Eh]
	 Opposite-Spin Energy      =      -1.0349870018721119 [Eh]
	 Correlation Energy        =      -1.3649501581507377 [Eh]
	 Total Energy              =    -646.8381362749166783 [Eh]

	 ================> DF-SCS-MP2 Energies <==================
	-----------------------------------------------------------
	 SCS Same-Spin Scale       =       0.3333333333333333 [-]
	 SCS Opposite-Spin Scale   =       1.2000000000000000 [-]
	 SCS Same-Spin Energy      =      -0.1099877187595419 [Eh]
	 SCS Opposite-Spin Energy  =      -1.2419844022465343 [Eh]
	 SCS Correlation Energy    =      -1.3519721210060762 [Eh]
	 SCS Total Energy          =    -646.8251582377720297 [Eh]
	-----------------------------------------------------------

  Dipole Moment: [D]
     X:    -0.2267      Y:    -0.6360      Z:     0.2056     Total:     0.7058

*** Psi4 exiting successfully. Buy a developer a beer!
