                               Psi4 1.3.2 release

  ==> Input File <==

--------------------------------------------------------------------------
#psi4
#
memory 32 gb

molecule  {
0 1
  S       -0.8349460    -1.1774250     0.0297960
  N       -0.1696500     1.2952110    -0.2577190
  C        1.7694220    -0.2160770    -0.5775760
  C        0.3234810     0.0737960    -0.3165740
  C        2.6425650     0.1799470     0.6157020
  C       -2.0442290     0.0157050     0.2553730
  C       -1.5038950     1.2642780     0.0601800
  H        1.8995250    -1.2779630    -0.8129470
  H        2.0693290     0.3522120    -1.4641890
  H        2.5091790     1.2412210     0.8363590
  H        3.6994690    -0.0050250     0.4023620
  H        2.3648890    -0.3937430     1.5043860
  H       -3.0646880    -0.2455350     0.5019360
  H       -1.9534445     2.0235930     0.1226455
units angstrom
no_reorient  #important for SAPT in psi4, default
symmetry c1  #important for SAPT in psi4, default
}

set PROPERTIES_ORIGIN ["COM"]
properties('MP2/aug-cc-pvtz', properties = ['dipole'])
--------------------------------------------------------------------------

    Molecular point group: c1
  Charge       = 0
  Multiplicity = 1
  Basis Set: AUG-CC-PVTZ
    Blend: AUG-CC-PVTZ
  Basis Set: (AUG-CC-PVTZ AUX)
    Blend: AUG-CC-PVTZ-JKFIT

    Orbital Energies [Eh]
    ---------------------

    Doubly Occupied:

       1A    -91.993690     2A    -15.563838     3A    -11.311574
       4A    -11.261011     5A    -11.246082     6A    -11.245181
       7A    -11.223870     8A     -8.994464     9A     -6.675368
      10A     -6.674858    11A     -6.674154    12A     -1.274545
      13A     -1.074339    14A     -1.060923    15A     -0.986662
      16A     -0.874723    17A     -0.808119    18A     -0.736739
      19A     -0.699497    20A     -0.632380    21A     -0.605203
      22A     -0.577347    23A     -0.555643    24A     -0.518606
      25A     -0.511847    26A     -0.508120    27A     -0.497564
      28A     -0.424282    29A     -0.386816    30A     -0.328456

  @DF-RHF Final Energy:  -645.45050469009914

   => Energetics <=

    Nuclear Repulsion Energy =            352.2026526771834938
    One-Electron Energy =               -1583.4545123599996259
    Two-Electron Energy =                 585.8013549927169379
    Total Energy =                       -645.4505046900991374
  Basis Set: (AUG-CC-PVTZ AUX)
    Blend: AUG-CC-PVTZ-RI
    Molecular point group: c1

    Geometry (in Angstrom), charge = 0, multiplicity = 1:

       Center              X                  Y                   Z               Mass
    ------------   -----------------  -----------------  -----------------  -----------------
         S           -0.770898265095    -1.159836994457     0.039632973115    31.972071174400
         N           -0.105602265095     1.312799005543    -0.247882026885    14.003074004430
         C            1.833469734905    -0.198488994457    -0.567739026885    12.000000000000
         C            0.387528734905     0.091384005543    -0.306737026885    12.000000000000
         C            2.706612734905     0.197535005543     0.625538973115    12.000000000000
         C           -1.980181265095     0.033293005543     0.265209973115    12.000000000000
         C           -1.439847265095     1.281866005543     0.070016973115    12.000000000000
         H            1.963572734905    -1.260374994457    -0.803110026885     1.007825032230
         H            2.133376734905     0.369800005543    -1.454352026885     1.007825032230
         H            2.573226734905     1.258809005543     0.846195973115     1.007825032230
         H            3.763516734905     0.012563005543     0.412198973115     1.007825032230
         H            2.428936734905    -0.376154994457     1.514222973115     1.007825032230
         H           -3.000640265095    -0.227946994457     0.511772973115     1.007825032230
         H           -1.889396765095     2.041181005543     0.132482473115     1.007825032230

  Basis Set: AUG-CC-PVTZ
    Blend: AUG-CC-PVTZ
  Basis Set: (AUG-CC-PVTZ AUX)
    Blend: AUG-CC-PVTZ-JKFIT
	 Reference Energy          =    -645.4505046900991374 [Eh]
	 Singles Energy            =      -0.0000000000000000 [Eh]
	 Same-Spin Energy          =      -0.3320972305373281 [Eh]
	 Opposite-Spin Energy      =      -1.0393831435034615 [Eh]
	 Correlation Energy        =      -1.3714803740407895 [Eh]
	 Total Energy              =    -646.8219850641398807 [Eh]

	 ================> DF-SCS-MP2 Energies <==================
	-----------------------------------------------------------
	 SCS Same-Spin Scale       =       0.3333333333333333 [-]
	 SCS Opposite-Spin Scale   =       1.2000000000000000 [-]
	 SCS Same-Spin Energy      =      -0.1106990768457760 [Eh]
	 SCS Opposite-Spin Energy  =      -1.2472597722041538 [Eh]
	 SCS Correlation Energy    =      -1.3579588490499299 [Eh]
	 SCS Total Energy          =    -646.8084635391491020 [Eh]
	-----------------------------------------------------------

  Dipole Moment: [D]
     X:    -0.3618      Y:    -1.2630      Z:     0.2724     Total:     1.3418

*** Psi4 exiting successfully. Buy a developer a beer!
