                               Psi4 1.3.2 release

  ==> Input File <==

--------------------------------------------------------------------------
#psi4
#
memory 32 gb

molecule  {
0 1
  S       -0.8349460    -1.1774250     0.0297960
  N       -0.1696500     1.2952110    -0.2577190
  C        1.7694220    -0.2160770    -0.5775760
  C        0.2818436     0.0573389    -0.3059166
  C        2.6425650     0.1799470     0.6157020
  C       -2.0442290     0.0157050     0.2553730
  C       -1.5038950     1.2642780     0.0601800
  H        1.8995250    -1.2779630    -0.8129470
  H        2.0693290     0.3522120    -1.4641890
  H        2.5091790     1.2412210     0.8363590
  H        3.6994690    -0.0050250     0.4023620
  H        2.3648890    -0.3937430     1.5043860
  H       -3.0646880    -0.2455350     0.5019360
  H       -2.0550810     2.1952630     0.1367680
units angstrom
no_reorient  #important for SAPT in psi4, default
symmetry c1  #important for SAPT in psi4, default
}

set PROPERTIES_ORIGIN ["COM"]
properties('MP2/aug-cc-pvtz', properties = ['dipole'])
--------------------------------------------------------------------------

    Molecular point group: c1
  Charge       = 0
  Multiplicity = 1
  Basis Set: AUG-CC-PVTZ
    Blend: AUG-CC-PVTZ
  Basis Set: (AUG-CC-PVTZ AUX)
    Blend: AUG-CC-PVTZ-JKFIT

    Orbital Energies [Eh]
    ---------------------

    Doubly Occupied:

       1A    -91.996759     2A    -15.564303     3A    -11.309725
       4A    -11.269311     5A    -11.260026     6A    -11.246050
       7A    -11.222477     8A     -8.998277     9A     -6.679236
      10A     -6.678646    11A     -6.677916    12A     -1.278035
      13A     -1.067350    14A     -1.064607    15A     -0.976965
      16A     -0.864397    17A     -0.792200    18A     -0.730633
      19A     -0.681063    20A     -0.625743    21A     -0.597634
      22A     -0.570124    23A     -0.557804    24A     -0.518154
      25A     -0.506430    26A     -0.504928    27A     -0.495648
      28A     -0.430773    29A     -0.388270    30A     -0.330939

  @DF-RHF Final Energy:  -645.48440179143938

   => Energetics <=

    Nuclear Repulsion Energy =            351.4761881709100066
    One-Electron Energy =               -1582.1523324212832904
    Two-Electron Energy =                 585.1917424589338452
    Total Energy =                       -645.4844017914393817
  Basis Set: (AUG-CC-PVTZ AUX)
    Blend: AUG-CC-PVTZ-RI
    Molecular point group: c1

    Geometry (in Angstrom), charge = 0, multiplicity = 1:

       Center              X                  Y                   Z               Mass
    ------------   -----------------  -----------------  -----------------  -----------------
         S           -0.765571528540    -1.159620486504     0.038375590923    31.972071174400
         N           -0.100275528540     1.313015513496    -0.249139409077    14.003074004430
         C            1.838796471460    -0.198272486504    -0.568996409077    12.000000000000
         C            0.351218071460     0.075143413496    -0.297337009077    12.000000000000
         C            2.711939471460     0.197751513496     0.624281590923    12.000000000000
         C           -1.974854528540     0.033509513496     0.263952590923    12.000000000000
         C           -1.434520528540     1.282082513496     0.068759590923    12.000000000000
         H            1.968899471460    -1.260158486504    -0.804367409077     1.007825032230
         H            2.138703471460     0.370016513496    -1.455609409077     1.007825032230
         H            2.578553471460     1.259025513496     0.844938590923     1.007825032230
         H            3.768843471460     0.012779513496     0.410941590923     1.007825032230
         H            2.434263471460    -0.375938486504     1.512965590923     1.007825032230
         H           -2.995313528540    -0.227730486504     0.510515590923     1.007825032230
         H           -1.985706528540     2.213067513496     0.145347590923     1.007825032230

  Basis Set: AUG-CC-PVTZ
    Blend: AUG-CC-PVTZ
  Basis Set: (AUG-CC-PVTZ AUX)
    Blend: AUG-CC-PVTZ-JKFIT
	 Reference Energy          =    -645.4844017914393817 [Eh]
	 Singles Energy            =      -0.0000000000000000 [Eh]
	 Same-Spin Energy          =      -0.3321698931190469 [Eh]
	 Opposite-Spin Energy      =      -1.0393620953957741 [Eh]
	 Correlation Energy        =      -1.3715319885148209 [Eh]
	 Total Energy              =    -646.8559337799541709 [Eh]

	 ================> DF-SCS-MP2 Energies <==================
	-----------------------------------------------------------
	 SCS Same-Spin Scale       =       0.3333333333333333 [-]
	 SCS Opposite-Spin Scale   =       1.2000000000000000 [-]
	 SCS Same-Spin Energy      =      -0.1107232977063489 [Eh]
	 SCS Opposite-Spin Energy  =      -1.2472345144749288 [Eh]
	 SCS Correlation Energy    =      -1.3579578121812779 [Eh]
	 SCS Total Energy          =    -646.8423596036207073 [Eh]
	-----------------------------------------------------------

  Dipole Moment: [D]
     X:    -0.4569      Y:    -1.3474      Z:     0.2894     Total:     1.4519

*** Psi4 exiting successfully. Buy a developer a beer!
