                               Psi4 1.3.2 release

  ==> Input File <==

--------------------------------------------------------------------------
#psi4
#
memory 32 gb

molecule  {
0 1
  S       -0.8779843    -1.1348242     0.0344212
  N       -0.1696500     1.2952110    -0.2577190
  C        1.7694220    -0.2160770    -0.5775760
  C        0.3234810     0.0737960    -0.3165740
  C        2.6425650     0.1799470     0.6157020
  C       -2.0442290     0.0157050     0.2553730
  C       -1.5038950     1.2642780     0.0601800
  H        1.8995250    -1.2779630    -0.8129470
  H        2.0693290     0.3522120    -1.4641890
  H        2.5091790     1.2412210     0.8363590
  H        3.6994690    -0.0050250     0.4023620
  H        2.3648890    -0.3937430     1.5043860
  H       -3.0646880    -0.2455350     0.5019360
  H       -2.0550810     2.1952630     0.1367680
units angstrom
no_reorient  #important for SAPT in psi4, default
symmetry c1  #important for SAPT in psi4, default
}

set PROPERTIES_ORIGIN ["COM"]
properties('MP2/aug-cc-pvtz', properties = ['dipole'])
--------------------------------------------------------------------------

    Molecular point group: c1
  Charge       = 0
  Multiplicity = 1
  Basis Set: AUG-CC-PVTZ
    Blend: AUG-CC-PVTZ
  Basis Set: (AUG-CC-PVTZ AUX)
    Blend: AUG-CC-PVTZ-JKFIT

    Orbital Energies [Eh]
    ---------------------

    Doubly Occupied:

       1A    -91.991782     2A    -15.565347     3A    -11.310022
       4A    -11.266903     5A    -11.256632     6A    -11.246123
       7A    -11.223915     8A     -8.994000     9A     -6.674998
      10A     -6.674466    11A     -6.673668    12A     -1.277824
      13A     -1.078232    14A     -1.067169    15A     -0.973523
      16A     -0.869993    17A     -0.789967    18A     -0.734191
      19A     -0.682772    20A     -0.628531    21A     -0.603981
      22A     -0.571695    23A     -0.559432    24A     -0.521073
      25A     -0.513192    26A     -0.501794    27A     -0.498839
      28A     -0.424050    29A     -0.390291    30A     -0.325569

  @DF-RHF Final Energy:  -645.48371234855369

   => Energetics <=

    Nuclear Repulsion Energy =            352.5498757320335130
    One-Electron Energy =               -1584.2872252241675142
    Two-Electron Energy =                 586.2536371435802494
    Total Energy =                       -645.4837123485536949
  Basis Set: (AUG-CC-PVTZ AUX)
    Blend: AUG-CC-PVTZ-RI
    Molecular point group: c1

    Geometry (in Angstrom), charge = 0, multiplicity = 1:

       Center              X                  Y                   Z               Mass
    ------------   -----------------  -----------------  -----------------  -----------------
         S           -0.800856352401    -1.130817104074     0.042823949043    31.972071174400
         N           -0.092522052401     1.299218095926    -0.249316250957    14.003074004430
         C            1.846549947599    -0.212069904074    -0.569173250957    12.000000000000
         C            0.400608947599     0.077803095926    -0.308171250957    12.000000000000
         C            2.719692947599     0.183954095926     0.624104749043    12.000000000000
         C           -1.967101052401     0.019712095926     0.263775749043    12.000000000000
         C           -1.426767052401     1.268285095926     0.068582749043    12.000000000000
         H            1.976652947599    -1.273955904074    -0.804544250957     1.007825032230
         H            2.146456947599     0.356219095926    -1.455786250957     1.007825032230
         H            2.586306947599     1.245228095926     0.844761749043     1.007825032230
         H            3.776596947599    -0.001017904074     0.410764749043     1.007825032230
         H            2.442016947599    -0.389735904074     1.512788749043     1.007825032230
         H           -2.987560052401    -0.241527904074     0.510338749043     1.007825032230
         H           -1.977953052401     2.199270095926     0.145170749043     1.007825032230

  Basis Set: AUG-CC-PVTZ
    Blend: AUG-CC-PVTZ
  Basis Set: (AUG-CC-PVTZ AUX)
    Blend: AUG-CC-PVTZ-JKFIT
	 Reference Energy          =    -645.4837123485536949 [Eh]
	 Singles Energy            =      -0.0000000000000000 [Eh]
	 Same-Spin Energy          =      -0.3331571823016863 [Eh]
	 Opposite-Spin Energy      =      -1.0395144643448817 [Eh]
	 Correlation Energy        =      -1.3726716466465680 [Eh]
	 Total Energy              =    -646.8563839952003036 [Eh]

	 ================> DF-SCS-MP2 Energies <==================
	-----------------------------------------------------------
	 SCS Same-Spin Scale       =       0.3333333333333333 [-]
	 SCS Opposite-Spin Scale   =       1.2000000000000000 [-]
	 SCS Same-Spin Energy      =      -0.1110523941005621 [Eh]
	 SCS Opposite-Spin Energy  =      -1.2474173572138580 [Eh]
	 SCS Correlation Energy    =      -1.3584697513144202 [Eh]
	 SCS Total Energy          =    -646.8421820998680687 [Eh]
	-----------------------------------------------------------

  Dipole Moment: [D]
     X:    -0.3632      Y:    -1.2825      Z:     0.2735     Total:     1.3607

*** Psi4 exiting successfully. Buy a developer a beer!
