                               Psi4 1.4a3.dev225

  ==> Input File <==

--------------------------------------------------------------------------
#psi4
#
memory 32 gb

molecule  {
0 1
  S       -0.8349460    -1.1774250     0.0297960
  N       -0.1696500     1.2952110    -0.2577190
  C        1.7694220    -0.2160770    -0.5775760
  C        0.3234810     0.0737960    -0.3165740
  C        2.6425650     0.1799470     0.6157020
  C       -2.0442290     0.0157050     0.2553730
  C       -1.4960322     1.2824469     0.0573396
  H        1.8995250    -1.2779630    -0.8129470
  H        2.0693290     0.3522120    -1.4641890
  H        2.5091790     1.2412210     0.8363590
  H        3.6994690    -0.0050250     0.4023620
  H        2.3648890    -0.3937430     1.5043860
  H       -3.0646880    -0.2455350     0.5019360
  H       -2.0550810     2.1952630     0.1367680
units angstrom
no_reorient  #important for SAPT in psi4, default
symmetry c1  #important for SAPT in psi4, default
}

set PROPERTIES_ORIGIN ["COM"]
properties('MP2/aug-cc-pvtz', properties = ['dipole'])
--------------------------------------------------------------------------

    Molecular point group: c1
  Charge       = 0
  Multiplicity = 1
  Basis Set: AUG-CC-PVTZ
    Blend: AUG-CC-PVTZ
  Basis Set: (AUG-CC-PVTZ AUX)
    Blend: AUG-CC-PVTZ-JKFIT

    Orbital Energies [Eh]
    ---------------------

    Doubly Occupied:

       1A    -91.995265     2A    -15.565125     3A    -11.312432
       4A    -11.270475     5A    -11.263125     6A    -11.245622
       7A    -11.223998     8A     -8.995869     9A     -6.676762
      10A     -6.676254    11A     -6.675569    12A     -1.275464
      13A     -1.071630    14A     -1.061164    15A     -0.973832
      16A     -0.869457    17A     -0.793552    18A     -0.729399
      19A     -0.680724    20A     -0.629817    21A     -0.602417
      22A     -0.574554    23A     -0.555839    24A     -0.517752
      25A     -0.512113    26A     -0.502471    27A     -0.496963
      28A     -0.424177    29A     -0.388609    30A     -0.324818

  @DF-RHF Final Energy:  -645.48443974273391

   => Energetics <=

    Nuclear Repulsion Energy =            350.7989910214707834
    One-Electron Energy =               -1580.7963610623921795
    Two-Electron Energy =                 584.5129302981874844
    Total Energy =                       -645.4844397427339118
  Basis Set: (AUG-CC-PVTZ AUX)
    Blend: AUG-CC-PVTZ-RI
    Molecular point group: c1

    Geometry (in Angstrom), charge = 0, multiplicity = 1:

       Center              X                  Y                   Z               Mass
    ------------   -----------------  -----------------  -----------------  -----------------
         S           -0.770826795445    -1.163296610477     0.039808606176    31.972071174400
         N           -0.105530795445     1.309339389523    -0.247706393824    14.003074004430
         C            1.833541204555    -0.201948610477    -0.567563393824    12.000000000000
         C            0.387600204555     0.087924389523    -0.306561393824    12.000000000000
         C            2.706684204555     0.194075389523     0.625714606176    12.000000000000
         C           -1.980109795445     0.029833389523     0.265385606176    12.000000000000
         C           -1.431912995445     1.296575289523     0.067352206176    12.000000000000
         H            1.963644204555    -1.263834610477    -0.802934393824     1.007825032230
         H            2.133448204555     0.366340389523    -1.454176393824     1.007825032230
         H            2.573298204555     1.255349389523     0.846371606176     1.007825032230
         H            3.763588204555     0.009103389523     0.412374606176     1.007825032230
         H            2.429008204555    -0.379614610477     1.514398606176     1.007825032230
         H           -3.000568795445    -0.231406610477     0.511948606176     1.007825032230
         H           -1.990961795445     2.209391389523     0.146780606176     1.007825032230

  Basis Set: AUG-CC-PVTZ
    Blend: AUG-CC-PVTZ
  Basis Set: (AUG-CC-PVTZ AUX)
    Blend: AUG-CC-PVTZ-JKFIT
	 Reference Energy          =    -645.4844397427339118 [Eh]
	 Singles Energy            =      -0.0000000000000000 [Eh]
	 Same-Spin Energy          =      -0.3328508253276755 [Eh]
	 Opposite-Spin Energy      =      -1.0403240427850360 [Eh]
	 Correlation Energy        =      -1.3731748681127116 [Eh]
	 Total Energy              =    -646.8576146108466673 [Eh]

	 ================> DF-SCS-MP2 Energies <==================
	-----------------------------------------------------------
	 SCS Same-Spin Scale       =       0.3333333333333333 [-]
	 SCS Opposite-Spin Scale   =       1.2000000000000000 [-]
	 SCS Same-Spin Energy      =      -0.1109502751092252 [Eh]
	 SCS Opposite-Spin Energy  =      -1.2483888513420431 [Eh]
	 SCS Correlation Energy    =      -1.3593391264512682 [Eh]
	 SCS Total Energy          =    -646.8437788691851438 [Eh]
	-----------------------------------------------------------

  Dipole Moment: [D]
     X:    -0.3363      Y:    -1.2466      Z:     0.2648     Total:     1.3181

*** Psi4 exiting successfully. Buy a developer a beer!
