                               Psi4 1.4a3.dev225

  ==> Input File <==

--------------------------------------------------------------------------
#psi4
#
memory 32 gb

molecule  {
0 1
  S       -0.8349460    -1.1774250     0.0297960
  N       -0.1696500     1.2952110    -0.2577190
  C        1.7694220    -0.2160770    -0.5775760
  C        0.3234810     0.0737960    -0.3165740
  C        2.6425650     0.1799470     0.6157020
  C       -2.0442290     0.0157050     0.2553730
  C       -1.5525211     1.2631507     0.0717657
  H        1.8995250    -1.2779630    -0.8129470
  H        2.0693290     0.3522120    -1.4641890
  H        2.5091790     1.2412210     0.8363590
  H        3.6994690    -0.0050250     0.4023620
  H        2.3648890    -0.3937430     1.5043860
  H       -3.0646880    -0.2455350     0.5019360
  H       -2.0550810     2.1952630     0.1367680
units angstrom
no_reorient  #important for SAPT in psi4, default
symmetry c1  #important for SAPT in psi4, default
}

set PROPERTIES_ORIGIN ["COM"]
properties('MP2/aug-cc-pvtz', properties = ['dipole'])
--------------------------------------------------------------------------

    Molecular point group: c1
  Charge       = 0
  Multiplicity = 1
  Basis Set: AUG-CC-PVTZ
    Blend: AUG-CC-PVTZ
  Basis Set: (AUG-CC-PVTZ AUX)
    Blend: AUG-CC-PVTZ-JKFIT

    Orbital Energies [Eh]
    ---------------------

    Doubly Occupied:

       1A    -91.992923     2A    -15.566202     3A    -11.312087
       4A    -11.268027     5A    -11.261463     6A    -11.245718
       7A    -11.224059     8A     -8.993902     9A     -6.674852
      10A     -6.674277    11A     -6.673524    12A     -1.263703
      13A     -1.073212    14A     -1.057443    15A     -0.978610
      16A     -0.871523    17A     -0.789431    18A     -0.727750
      19A     -0.683453    20A     -0.627670    21A     -0.601807
      22A     -0.567802    23A     -0.553147    24A     -0.518148
      25A     -0.512043    26A     -0.510046    27A     -0.496691
      28A     -0.420675    29A     -0.382841    30A     -0.335538

  @DF-RHF Final Energy:  -645.48436654347597

   => Energetics <=

    Nuclear Repulsion Energy =            350.3389347906957596
    One-Electron Energy =               -1579.9294706024975312
    Two-Electron Energy =                 584.1061692683258570
    Total Energy =                       -645.4843665434759714
  Basis Set: (AUG-CC-PVTZ AUX)
    Blend: AUG-CC-PVTZ-RI
    Molecular point group: c1

    Geometry (in Angstrom), charge = 0, multiplicity = 1:

       Center              X                  Y                   Z               Mass
    ------------   -----------------  -----------------  -----------------  -----------------
         S           -0.764829562167    -1.161247998931     0.038277036488    31.972071174400
         N           -0.099533562167     1.311388001069    -0.249237963512    14.003074004430
         C            1.839538437833    -0.199899998931    -0.569094963512    12.000000000000
         C            0.393597437833     0.089973001069    -0.308092963512    12.000000000000
         C            2.712681437833     0.196124001069     0.624183036488    12.000000000000
         C           -1.974112562167     0.031882001069     0.263854036488    12.000000000000
         C           -1.482404662167     1.279327701069     0.080246736488    12.000000000000
         H            1.969641437833    -1.261785998931    -0.804465963512     1.007825032230
         H            2.139445437833     0.368389001069    -1.455707963512     1.007825032230
         H            2.579295437833     1.257398001069     0.844840036488     1.007825032230
         H            3.769585437833     0.011152001069     0.410843036488     1.007825032230
         H            2.435005437833    -0.377565998931     1.512867036488     1.007825032230
         H           -2.994571562167    -0.229357998931     0.510417036488     1.007825032230
         H           -1.984964562167     2.211440001069     0.145249036488     1.007825032230

  Basis Set: AUG-CC-PVTZ
    Blend: AUG-CC-PVTZ
  Basis Set: (AUG-CC-PVTZ AUX)
    Blend: AUG-CC-PVTZ-JKFIT
	 Reference Energy          =    -645.4843665434759714 [Eh]
	 Singles Energy            =      -0.0000000000000000 [Eh]
	 Same-Spin Energy          =      -0.3312937191099616 [Eh]
	 Opposite-Spin Energy      =      -1.0394577164869143 [Eh]
	 Correlation Energy        =      -1.3707514355968760 [Eh]
	 Total Energy              =    -646.8551179790728156 [Eh]

	 ================> DF-SCS-MP2 Energies <==================
	-----------------------------------------------------------
	 SCS Same-Spin Scale       =       0.3333333333333333 [-]
	 SCS Opposite-Spin Scale   =       1.2000000000000000 [-]
	 SCS Same-Spin Energy      =      -0.1104312397033205 [Eh]
	 SCS Opposite-Spin Energy  =      -1.2473492597842972 [Eh]
	 SCS Correlation Energy    =      -1.3577804994876177 [Eh]
	 SCS Total Energy          =    -646.8421470429635747 [Eh]
	-----------------------------------------------------------

  Dipole Moment: [D]
     X:    -0.3392      Y:    -1.2255      Z:     0.2716     Total:     1.3002

*** Psi4 exiting successfully. Buy a developer a beer!
