                               Psi4 1.3.2 release

  ==> Input File <==

--------------------------------------------------------------------------
#psi4
#
memory 32 gb

molecule  {
0 1
  S       -0.9596189    -1.0452587     0.0423835
  N       -0.1696500     1.2952110    -0.2577190
  C        1.7694220    -0.2160770    -0.5775760
  C        0.3234810     0.0737960    -0.3165740
  C        2.6425650     0.1799470     0.6157020
  C       -2.0442290     0.0157050     0.2553730
  C       -1.5038950     1.2642780     0.0601800
  H        1.8995250    -1.2779630    -0.8129470
  H        2.0693290     0.3522120    -1.4641890
  H        2.5091790     1.2412210     0.8363590
  H        3.6994690    -0.0050250     0.4023620
  H        2.3648890    -0.3937430     1.5043860
  H       -3.0646880    -0.2455350     0.5019360
  H       -2.0550810     2.1952630     0.1367680
units angstrom
no_reorient  #important for SAPT in psi4, default
symmetry c1  #important for SAPT in psi4, default
}

set PROPERTIES_ORIGIN ["COM"]
properties('MP2/aug-cc-pvtz', properties = ['dipole'])
--------------------------------------------------------------------------

    Molecular point group: c1
  Charge       = 0
  Multiplicity = 1
  Basis Set: AUG-CC-PVTZ
    Blend: AUG-CC-PVTZ
  Basis Set: (AUG-CC-PVTZ AUX)
    Blend: AUG-CC-PVTZ-JKFIT

    Orbital Energies [Eh]
    ---------------------

    Doubly Occupied:

       1A    -91.985367     2A    -15.565832     3A    -11.303728
       4A    -11.262684     5A    -11.247320     6A    -11.246541
       7A    -11.223073     8A     -8.991754     9A     -6.673356
      10A     -6.671901    11A     -6.671179    12A     -1.286603
      13A     -1.106929    14A     -1.065423    15A     -0.969909
      16A     -0.869254    17A     -0.787463    18A     -0.743603
      19A     -0.687649    20A     -0.627664    21A     -0.609437
      22A     -0.573011    23A     -0.567040    24A     -0.527581
      25A     -0.514312    26A     -0.500400    27A     -0.495064
      28A     -0.421258    29A     -0.398363    30A     -0.318068

  @DF-RHF Final Energy:  -645.45979248561059

   => Energetics <=

    Nuclear Repulsion Energy =            356.0669693986085349
    One-Electron Energy =               -1591.2299863539230955
    Two-Electron Energy =                 589.7032244697039687
    Total Energy =                       -645.4597924856105919
  Basis Set: (AUG-CC-PVTZ AUX)
    Blend: AUG-CC-PVTZ-RI
    Molecular point group: c1

    Geometry (in Angstrom), charge = 0, multiplicity = 1:

       Center              X                  Y                   Z               Mass
    ------------   -----------------  -----------------  -----------------  -----------------
         S           -0.859399480407    -1.066586440465     0.048534002723    31.972071174400
         N           -0.069430580407     1.273883259535    -0.251568497277    14.003074004430
         C            1.869641419593    -0.237404740465    -0.571425497277    12.000000000000
         C            0.423700419593     0.052468259535    -0.310423497277    12.000000000000
         C            2.742784419593     0.158619259535     0.621852502723    12.000000000000
         C           -1.944009580407    -0.005622740465     0.261523502723    12.000000000000
         C           -1.403675580407     1.242950259535     0.066330502723    12.000000000000
         H            1.999744419593    -1.299290740465    -0.806796497277     1.007825032230
         H            2.169548419593     0.330884259535    -1.458038497277     1.007825032230
         H            2.609398419593     1.219893259535     0.842509502723     1.007825032230
         H            3.799688419593    -0.026352740465     0.408512502723     1.007825032230
         H            2.465108419593    -0.415070740465     1.510536502723     1.007825032230
         H           -2.964468580407    -0.266862740465     0.508086502723     1.007825032230
         H           -1.954861580407     2.173935259535     0.142918502723     1.007825032230

  Basis Set: AUG-CC-PVTZ
    Blend: AUG-CC-PVTZ
  Basis Set: (AUG-CC-PVTZ AUX)
    Blend: AUG-CC-PVTZ-JKFIT
	 Reference Energy          =    -645.4597924856105919 [Eh]
	 Singles Energy            =      -0.0000000000000000 [Eh]
	 Same-Spin Energy          =      -0.3352520954573140 [Eh]
	 Opposite-Spin Energy      =      -1.0399021808357387 [Eh]
	 Correlation Energy        =      -1.3751542762930526 [Eh]
	 Total Energy              =    -646.8349467619036659 [Eh]

	 ================> DF-SCS-MP2 Energies <==================
	-----------------------------------------------------------
	 SCS Same-Spin Scale       =       0.3333333333333333 [-]
	 SCS Opposite-Spin Scale   =       1.2000000000000000 [-]
	 SCS Same-Spin Energy      =      -0.1117506984857713 [Eh]
	 SCS Opposite-Spin Energy  =      -1.2478826170028865 [Eh]
	 SCS Correlation Energy    =      -1.3596333154886580 [Eh]
	 SCS Total Energy          =    -646.8194258010992144 [Eh]
	-----------------------------------------------------------

  Dipole Moment: [D]
     X:    -0.4626      Y:    -1.3196      Z:     0.2945     Total:     1.4290

*** Psi4 exiting successfully. Buy a developer a beer!
