                               Psi4 1.3.2 release

  ==> Input File <==

--------------------------------------------------------------------------
#psi4
#
memory 32 gb

molecule  {
0 1
  S       -0.6999310    -1.2966415     0.0028131
  N       -0.1696500     1.2952110    -0.2577190
  C        1.7694220    -0.2160770    -0.5775760
  C        0.3234810     0.0737960    -0.3165740
  C        2.6425650     0.1799470     0.6157020
  C       -2.0442290     0.0157050     0.2553730
  C       -1.5038950     1.2642780     0.0601800
  H        1.8995250    -1.2779630    -0.8129470
  H        2.0693290     0.3522120    -1.4641890
  H        2.5091790     1.2412210     0.8363590
  H        3.6994690    -0.0050250     0.4023620
  H        2.3648890    -0.3937430     1.5043860
  H       -3.0646880    -0.2455350     0.5019360
  H       -2.0550810     2.1952630     0.1367680
units angstrom
no_reorient  #important for SAPT in psi4, default
symmetry c1  #important for SAPT in psi4, default
}

set PROPERTIES_ORIGIN ["COM"]
properties('MP2/aug-cc-pvtz', properties = ['dipole'])
--------------------------------------------------------------------------

    Molecular point group: c1
  Charge       = 0
  Multiplicity = 1
  Basis Set: AUG-CC-PVTZ
    Blend: AUG-CC-PVTZ
  Basis Set: (AUG-CC-PVTZ AUX)
    Blend: AUG-CC-PVTZ-JKFIT

    Orbital Energies [Eh]
    ---------------------

    Doubly Occupied:

       1A    -91.999111     2A    -15.564881     3A    -11.319375
       4A    -11.276514     5A    -11.274371     6A    -11.243994
       7A    -11.224448     8A     -8.997140     9A     -6.677996
      10A     -6.677049    11A     -6.676622    12A     -1.269165
      13A     -1.075456    14A     -1.032628    15A     -0.979550
      16A     -0.869682    17A     -0.798704    18A     -0.716749
      19A     -0.677352    20A     -0.630376    21A     -0.598511
      22A     -0.575171    23A     -0.550992    24A     -0.515505
      25A     -0.510040    26A     -0.504431    27A     -0.477166
      28A     -0.425833    29A     -0.383901    30A     -0.334113

  @DF-RHF Final Energy:  -645.46961501965905

   => Energetics <=

    Nuclear Repulsion Energy =            347.0988547909747126
    One-Electron Energy =               -1573.4232855688346717
    Two-Electron Energy =                 580.8548157582009708
    Total Energy =                       -645.4696150196590452
  Basis Set: (AUG-CC-PVTZ AUX)
    Blend: AUG-CC-PVTZ-RI
    Molecular point group: c1

    Geometry (in Angstrom), charge = 0, multiplicity = 1:

       Center              X                  Y                   Z               Mass
    ------------   -----------------  -----------------  -----------------  -----------------
         S           -0.673167882882    -1.246862150016     0.020156635866    31.972071174400
         N           -0.142886882882     1.344990349984    -0.240375464134    14.003074004430
         C            1.796185117118    -0.166297650016    -0.560232464134    12.000000000000
         C            0.350244117118     0.123575349984    -0.299230464134    12.000000000000
         C            2.669328117118     0.229726349984     0.633045535866    12.000000000000
         C           -2.017465882882     0.065484349984     0.272716535866    12.000000000000
         C           -1.477131882882     1.314057349984     0.077523535866    12.000000000000
         H            1.926288117118    -1.228183650016    -0.795603464134     1.007825032230
         H            2.096092117118     0.401991349984    -1.446845464134     1.007825032230
         H            2.535942117118     1.291000349984     0.853702535866     1.007825032230
         H            3.726232117118     0.044754349984     0.419705535866     1.007825032230
         H            2.391652117118    -0.343963650016     1.521729535866     1.007825032230
         H           -3.037924882882    -0.195755650016     0.519279535866     1.007825032230
         H           -2.028317882882     2.245042349984     0.154111535866     1.007825032230

  Basis Set: AUG-CC-PVTZ
    Blend: AUG-CC-PVTZ
  Basis Set: (AUG-CC-PVTZ AUX)
    Blend: AUG-CC-PVTZ-JKFIT
	 Reference Energy          =    -645.4696150196590452 [Eh]
	 Singles Energy            =      -0.0000000000000000 [Eh]
	 Same-Spin Energy          =      -0.3307388911928736 [Eh]
	 Opposite-Spin Energy      =      -1.0415367413630083 [Eh]
	 Correlation Energy        =      -1.3722756325558820 [Eh]
	 Total Energy              =    -646.8418906522149427 [Eh]

	 ================> DF-SCS-MP2 Energies <==================
	-----------------------------------------------------------
	 SCS Same-Spin Scale       =       0.3333333333333333 [-]
	 SCS Opposite-Spin Scale   =       1.2000000000000000 [-]
	 SCS Same-Spin Energy      =      -0.1102462970642912 [Eh]
	 SCS Opposite-Spin Energy  =      -1.2498440896356100 [Eh]
	 SCS Correlation Energy    =      -1.3600903866999012 [Eh]
	 SCS Total Energy          =    -646.8297054063589258 [Eh]
	-----------------------------------------------------------

  Dipole Moment: [D]
     X:    -0.2994      Y:    -1.1341      Z:     0.2498     Total:     1.1992

*** Psi4 exiting successfully. Buy a developer a beer!
