                               Psi4 1.3.2 release

  ==> Input File <==

--------------------------------------------------------------------------
#psi4
#
memory 32 gb

molecule  {
0 1
  S       -0.8562526    -1.1561852     0.0339316
  N       -0.1696500     1.2952110    -0.2577190
  C        1.7694220    -0.2160770    -0.5775760
  C        0.3234810     0.0737960    -0.3165740
  C        2.6425650     0.1799470     0.6157020
  C       -2.0442290     0.0157050     0.2553730
  C       -1.5038950     1.2642780     0.0601800
  H        1.8995250    -1.2779630    -0.8129470
  H        2.0693290     0.3522120    -1.4641890
  H        2.5091790     1.2412210     0.8363590
  H        3.6994690    -0.0050250     0.4023620
  H        2.3648890    -0.3937430     1.5043860
  H       -3.0646880    -0.2455350     0.5019360
  H       -2.0550810     2.1952630     0.1367680
units angstrom
no_reorient  #important for SAPT in psi4, default
symmetry c1  #important for SAPT in psi4, default
}

set PROPERTIES_ORIGIN ["COM"]
properties('MP2/aug-cc-pvtz', properties = ['dipole'])
--------------------------------------------------------------------------

    Molecular point group: c1
  Charge       = 0
  Multiplicity = 1
  Basis Set: AUG-CC-PVTZ
    Blend: AUG-CC-PVTZ
  Basis Set: (AUG-CC-PVTZ AUX)
    Blend: AUG-CC-PVTZ-JKFIT

    Orbital Energies [Eh]
    ---------------------

    Doubly Occupied:

       1A    -91.993074     2A    -15.565255     3A    -11.311399
       4A    -11.268016     5A    -11.258936     6A    -11.245936
       7A    -11.224060     8A     -8.994519     9A     -6.675453
      10A     -6.674966    11A     -6.674198    12A     -1.276230
      13A     -1.073745    14A     -1.065708    15A     -0.974357
      16A     -0.870088    17A     -0.790896    18A     -0.731762
      19A     -0.681815    20A     -0.628750    21A     -0.602924
      22A     -0.571951    23A     -0.557663    24A     -0.519633
      25A     -0.512695    26A     -0.502880    27A     -0.497839
      28A     -0.424486    29A     -0.388774    30A     -0.327130

  @DF-RHF Final Energy:  -645.48548555219770

   => Energetics <=

    Nuclear Repulsion Energy =            351.7654947616501886
    One-Electron Energy =               -1582.7316800825042264
    Two-Electron Energy =                 585.4806997686563363
    Total Energy =                       -645.4854855521977015
  Basis Set: (AUG-CC-PVTZ AUX)
    Blend: AUG-CC-PVTZ-RI
    Molecular point group: c1

    Geometry (in Angstrom), charge = 0, multiplicity = 1:

       Center              X                  Y                   Z               Mass
    ------------   -----------------  -----------------  -----------------  -----------------
         S           -0.785271763331    -1.146135850749     0.042472839153    31.972071174400
         N           -0.098669163331     1.305260349251    -0.249177760847    14.003074004430
         C            1.840402836669    -0.206027650749    -0.569034760847    12.000000000000
         C            0.394461836669     0.083845349251    -0.308032760847    12.000000000000
         C            2.713545836669     0.189996349251     0.624243239153    12.000000000000
         C           -1.973248163331     0.025754349251     0.263914239153    12.000000000000
         C           -1.432914163331     1.274327349251     0.068721239153    12.000000000000
         H            1.970505836669    -1.267913650749    -0.804405760847     1.007825032230
         H            2.140309836669     0.362261349251    -1.455647760847     1.007825032230
         H            2.580159836669     1.251270349251     0.844900239153     1.007825032230
         H            3.770449836669     0.005024349251     0.410903239153     1.007825032230
         H            2.435869836669    -0.383693650749     1.512927239153     1.007825032230
         H           -2.993707163331    -0.235485650749     0.510477239153     1.007825032230
         H           -1.984100163331     2.205312349251     0.145309239153     1.007825032230

  Basis Set: AUG-CC-PVTZ
    Blend: AUG-CC-PVTZ
  Basis Set: (AUG-CC-PVTZ AUX)
    Blend: AUG-CC-PVTZ-JKFIT
	 Reference Energy          =    -645.4854855521977015 [Eh]
	 Singles Energy            =      -0.0000000000000000 [Eh]
	 Same-Spin Energy          =      -0.3327235603136016 [Eh]
	 Opposite-Spin Energy      =      -1.0395770210994133 [Eh]
	 Correlation Energy        =      -1.3723005814130149 [Eh]
	 Total Energy              =    -646.8577861336107162 [Eh]

	 ================> DF-SCS-MP2 Energies <==================
	-----------------------------------------------------------
	 SCS Same-Spin Scale       =       0.3333333333333333 [-]
	 SCS Opposite-Spin Scale   =       1.2000000000000000 [-]
	 SCS Same-Spin Energy      =      -0.1109078534378672 [Eh]
	 SCS Opposite-Spin Energy  =      -1.2474924253192958 [Eh]
	 SCS Correlation Energy    =      -1.3584002787571630 [Eh]
	 SCS Total Energy          =    -646.8438858309548323 [Eh]
	-----------------------------------------------------------

  Dipole Moment: [D]
     X:    -0.3461      Y:    -1.2682      Z:     0.2709     Total:     1.3422

*** Psi4 exiting successfully. Buy a developer a beer!
