                               Psi4 1.3.2 release

  ==> Input File <==

--------------------------------------------------------------------------
#psi4
#
memory 32 gb

molecule  {
0 1
  N        1.7773000    -0.9706020    -0.3863220
  C        1.0080060     0.0962300     0.0271750
  C       -0.4301129     0.0560160     0.0150075
  C        1.8938950     1.0905280     0.4329840
  C       -1.1961700     1.1987140    -0.2700270
  C       -1.1363230    -1.1523850     0.2941990
  C        3.1117900    -0.6733570    -0.2771830
  C        3.2093430     0.6071710     0.2411150
  C       -2.5895110     1.1608830    -0.2689850
  C       -2.5303830    -1.1922690     0.2696200
  C       -3.2626170    -0.0361670    -0.0095020
  H        1.3994420    -1.7974010    -0.8317830
  H        1.6076040     2.0422160     0.8629880
  H       -0.6712930     2.1216380    -0.5070250
  H       -0.5746270    -2.0444360     0.5668450
  H        3.8716190    -1.3816710    -0.5776140
  H        4.1315670     1.1252340     0.4699550
  H       -3.1528190     2.0640850    -0.4925600
  H       -3.0466780    -2.1247140     0.4868240
  H       -4.3493910    -0.0663800    -0.0199320
units angstrom
no_reorient  #important for SAPT in psi4, default
symmetry c1  #important for SAPT in psi4, default
}

set PROPERTIES_ORIGIN ["COM"]
properties('MP2/aug-cc-pvtz', properties = ['dipole'])
--------------------------------------------------------------------------

    Molecular point group: c1
  Charge       = 0
  Multiplicity = 1
  Basis Set: AUG-CC-PVTZ
    Blend: AUG-CC-PVTZ
  Basis Set: (AUG-CC-PVTZ AUX)
    Blend: AUG-CC-PVTZ-JKFIT

    Orbital Energies [Eh]
    ---------------------

    Doubly Occupied:

       1A    -15.608909     2A    -11.261217     3A    -11.257573
       4A    -11.253718     5A    -11.242912     6A    -11.241187
       7A    -11.240520     8A    -11.237780     9A    -11.237505
      10A    -11.214535    11A    -11.213449    12A     -1.295104
      13A     -1.154068    14A     -1.051054    15A     -1.043445
      16A     -1.015446    17A     -0.959075    18A     -0.840023
      19A     -0.830691    20A     -0.789157    21A     -0.765409
      22A     -0.735943    23A     -0.680259    24A     -0.633501
      25A     -0.628569    26A     -0.593838    27A     -0.587324
      28A     -0.584603    29A     -0.570403    30A     -0.549902
      31A     -0.537546    32A     -0.506013    33A     -0.500942
      34A     -0.490714    35A     -0.364150    36A     -0.350728
      37A     -0.340757    38A     -0.272019

  @DF-RHF Final Energy:  -438.50743635664639

   => Energetics <=

    Nuclear Repulsion Energy =            536.8216199962721475
    One-Electron Energy =               -1657.2981412455303598
    Two-Electron Energy =                 681.9690848926118178
    Total Energy =                       -438.5074363566463944
  Basis Set: (AUG-CC-PVTZ AUX)
    Blend: AUG-CC-PVTZ-RI
    Molecular point group: c1

    Geometry (in Angstrom), charge = 0, multiplicity = 1:

       Center              X                  Y                   Z               Mass
    ------------   -----------------  -----------------  -----------------  -----------------
         N            1.770087250604    -0.972077092748    -0.386325588575    14.003074004430
         C            1.000793250604     0.094754907252     0.027171411425    12.000000000000
         C           -0.437325649396     0.054540907252     0.015003911425    12.000000000000
         C            1.886682250604     1.089052907252     0.432980411425    12.000000000000
         C           -1.203382749396     1.197238907252    -0.270030588575    12.000000000000
         C           -1.143535749396    -1.153860092748     0.294195411425    12.000000000000
         C            3.104577250604    -0.674832092748    -0.277186588575    12.000000000000
         C            3.202130250604     0.605695907252     0.241111411425    12.000000000000
         C           -2.596723749396     1.159407907252    -0.268988588575    12.000000000000
         C           -2.537595749396    -1.193744092748     0.269616411425    12.000000000000
         C           -3.269829749396    -0.037642092748    -0.009505588575    12.000000000000
         H            1.392229250604    -1.798876092748    -0.831786588575     1.007825032230
         H            1.600391250604     2.040740907252     0.862984411425     1.007825032230
         H           -0.678505749396     2.120162907252    -0.507028588575     1.007825032230
         H           -0.581839749396    -2.045911092748     0.566841411425     1.007825032230
         H            3.864406250604    -1.383146092748    -0.577617588575     1.007825032230
         H            4.124354250604     1.123758907252     0.469951411425     1.007825032230
         H           -3.160031749396     2.062609907252    -0.492563588575     1.007825032230
         H           -3.053890749396    -2.126189092748     0.486820411425     1.007825032230
         H           -4.356603749396    -0.067855092748    -0.019935588575     1.007825032230

  Basis Set: AUG-CC-PVTZ
    Blend: AUG-CC-PVTZ
  Basis Set: (AUG-CC-PVTZ AUX)
    Blend: AUG-CC-PVTZ-JKFIT
	 Reference Energy          =    -438.5074363566463944 [Eh]
	 Singles Energy            =      -0.0000000000000000 [Eh]
	 Same-Spin Energy          =      -0.4955873523534985 [Eh]
	 Opposite-Spin Energy      =      -1.5258485141729445 [Eh]
	 Correlation Energy        =      -2.0214358665264429 [Eh]
	 Total Energy              =    -440.5288722231728116 [Eh]

	 ================> DF-SCS-MP2 Energies <==================
	-----------------------------------------------------------
	 SCS Same-Spin Scale       =       0.3333333333333333 [-]
	 SCS Opposite-Spin Scale   =       1.2000000000000000 [-]
	 SCS Same-Spin Energy      =      -0.1651957841178328 [Eh]
	 SCS Opposite-Spin Energy  =      -1.8310182170075333 [Eh]
	 SCS Correlation Energy    =      -1.9962140011253662 [Eh]
	 SCS Total Energy          =    -440.5036503577717326 [Eh]
	-----------------------------------------------------------

  Dipole Moment: [D]
     X:    -0.3773      Y:    -1.3176      Z:    -0.6474     Total:     1.5157

*** Psi4 exiting successfully. Buy a developer a beer!
