                               Psi4 1.4a3.dev225

  ==> Input File <==

--------------------------------------------------------------------------
#psi4
#
memory 32 gb

molecule  {
0 1
  N        1.7773000    -0.9706020    -0.3863220
  C        1.0080060     0.0962300     0.0271750
  C       -0.5007492     0.0414446     0.0180612
  C        1.8938950     1.0905280     0.4329840
  C       -1.1961700     1.1987140    -0.2700270
  C       -1.1363230    -1.1523850     0.2941990
  C        3.1117900    -0.6733570    -0.2771830
  C        3.2093430     0.6071710     0.2411150
  C       -2.5895110     1.1608830    -0.2689850
  C       -2.5303830    -1.1922690     0.2696200
  C       -3.2626170    -0.0361670    -0.0095020
  H        1.3994420    -1.7974010    -0.8317830
  H        1.6076040     2.0422160     0.8629880
  H       -0.6712930     2.1216380    -0.5070250
  H       -0.5746270    -2.0444360     0.5668450
  H        3.8716190    -1.3816710    -0.5776140
  H        4.1315670     1.1252340     0.4699550
  H       -3.1528190     2.0640850    -0.4925600
  H       -3.0466780    -2.1247140     0.4868240
  H       -4.3493910    -0.0663800    -0.0199320
units angstrom
no_reorient  #important for SAPT in psi4, default
symmetry c1  #important for SAPT in psi4, default
}

set PROPERTIES_ORIGIN ["COM"]
properties('MP2/aug-cc-pvtz', properties = ['dipole'])
--------------------------------------------------------------------------

    Molecular point group: c1
  Charge       = 0
  Multiplicity = 1
  Basis Set: AUG-CC-PVTZ
    Blend: AUG-CC-PVTZ
  Basis Set: (AUG-CC-PVTZ AUX)
    Blend: AUG-CC-PVTZ-JKFIT

    Orbital Energies [Eh]
    ---------------------

    Doubly Occupied:

       1A    -15.607211     2A    -11.263599     3A    -11.254607
       4A    -11.252106     5A    -11.242509     6A    -11.241325
       7A    -11.238642     8A    -11.237940     9A    -11.235837
      10A    -11.212345    11A    -11.210966    12A     -1.291992
      13A     -1.161575    14A     -1.045491    15A     -1.040908
      16A     -1.020194    17A     -0.959146    18A     -0.835751
      19A     -0.833375    20A     -0.787614    21A     -0.763397
      22A     -0.734144    23A     -0.678889    24A     -0.633828
      25A     -0.631682    26A     -0.594958    27A     -0.590016
      28A     -0.579920    29A     -0.567188    30A     -0.548195
      31A     -0.535612    32A     -0.507821    33A     -0.501837
      34A     -0.492608    35A     -0.362323    36A     -0.348982
      37A     -0.342749    38A     -0.276032

  @DF-RHF Final Energy:  -438.50733646200251

   => Energetics <=

    Nuclear Repulsion Energy =            536.8677380011939704
    One-Electron Energy =               -1657.4235209913601921
    Two-Electron Energy =                 682.0484465281638222
    Total Energy =                       -438.5073364620025131
  Basis Set: (AUG-CC-PVTZ AUX)
    Blend: AUG-CC-PVTZ-RI
    Molecular point group: c1

    Geometry (in Angstrom), charge = 0, multiplicity = 1:

       Center              X                  Y                   Z               Mass
    ------------   -----------------  -----------------  -----------------  -----------------
         N            1.776011727214    -0.970854946083    -0.386581711478    14.003074004430
         C            1.006717727214     0.095977053917     0.026915288522    12.000000000000
         C           -0.502037472786     0.041191653917     0.017801488522    12.000000000000
         C            1.892606727214     1.090275053917     0.432724288522    12.000000000000
         C           -1.197458272786     1.198461053917    -0.270286711478    12.000000000000
         C           -1.137611272786    -1.152637946083     0.293939288522    12.000000000000
         C            3.110501727214    -0.673609946083    -0.277442711478    12.000000000000
         C            3.208054727214     0.606918053917     0.240855288522    12.000000000000
         C           -2.590799272786     1.160630053917    -0.269244711478    12.000000000000
         C           -2.531671272786    -1.192521946083     0.269360288522    12.000000000000
         C           -3.263905272786    -0.036419946083    -0.009761711478    12.000000000000
         H            1.398153727214    -1.797653946083    -0.832042711478     1.007825032230
         H            1.606315727214     2.041963053917     0.862728288522     1.007825032230
         H           -0.672581272786     2.121385053917    -0.507284711478     1.007825032230
         H           -0.575915272786    -2.044688946083     0.566585288522     1.007825032230
         H            3.870330727214    -1.381923946083    -0.577873711478     1.007825032230
         H            4.130278727214     1.124981053917     0.469695288522     1.007825032230
         H           -3.154107272786     2.063832053917    -0.492819711478     1.007825032230
         H           -3.047966272786    -2.124966946083     0.486564288522     1.007825032230
         H           -4.350679272786    -0.066632946083    -0.020191711478     1.007825032230

  Basis Set: AUG-CC-PVTZ
    Blend: AUG-CC-PVTZ
  Basis Set: (AUG-CC-PVTZ AUX)
    Blend: AUG-CC-PVTZ-JKFIT
	 Reference Energy          =    -438.5073364620025131 [Eh]
	 Singles Energy            =      -0.0000000000000000 [Eh]
	 Same-Spin Energy          =      -0.4946642535331373 [Eh]
	 Opposite-Spin Energy      =      -1.5244743968599217 [Eh]
	 Correlation Energy        =      -2.0191386503930588 [Eh]
	 Total Energy              =    -440.5264751123955875 [Eh]

	 ================> DF-SCS-MP2 Energies <==================
	-----------------------------------------------------------
	 SCS Same-Spin Scale       =       0.3333333333333333 [-]
	 SCS Opposite-Spin Scale   =       1.2000000000000000 [-]
	 SCS Same-Spin Energy      =      -0.1648880845110458 [Eh]
	 SCS Opposite-Spin Energy  =      -1.8293692762319060 [Eh]
	 SCS Correlation Energy    =      -1.9942573607429517 [Eh]
	 SCS Total Energy          =    -440.5015938227454626 [Eh]
	-----------------------------------------------------------

  Dipole Moment: [D]
     X:    -0.6199      Y:    -1.3268      Z:    -0.6512     Total:     1.6027

*** Psi4 exiting successfully. Buy a developer a beer!
