                               Psi4 1.3.2 release

  ==> Input File <==

--------------------------------------------------------------------------
#psi4
#
memory 32 gb

molecule  {
0 1
  N        1.7773000    -0.9706020    -0.3863220
  C        1.0080060     0.0962300     0.0271750
  C       -0.4507830     0.0432590     0.0183630
  C        1.8938950     1.0905280     0.4329840
  C       -1.1961700     1.1987140    -0.2700270
  C       -1.1363230    -1.1523850     0.2941990
  C        3.1117900    -0.6733570    -0.2771830
  C        3.2093430     0.6071710     0.2411150
  C       -2.5895110     1.1608830    -0.2689850
  C       -2.5303830    -1.1922690     0.2696200
  C       -3.2626170    -0.0361670    -0.0095020
  H        1.3994420    -1.7974010    -0.8317830
  H        1.6076040     2.0422160     0.8629880
  H       -0.6712930     2.1216380    -0.5070250
  H       -0.5746270    -2.0444360     0.5668450
  H        3.8716190    -1.3816710    -0.5776140
  H        4.0463530     1.0773647     0.4488101
  H       -3.1528190     2.0640850    -0.4925600
  H       -3.0466780    -2.1247140     0.4868240
  H       -4.3493910    -0.0663800    -0.0199320
units angstrom
no_reorient  #important for SAPT in psi4, default
symmetry c1  #important for SAPT in psi4, default
}

set PROPERTIES_ORIGIN ["COM"]
properties('MP2/aug-cc-pvtz', properties = ['dipole'])
--------------------------------------------------------------------------

    Molecular point group: c1
  Charge       = 0
  Multiplicity = 1
  Basis Set: AUG-CC-PVTZ
    Blend: AUG-CC-PVTZ
  Basis Set: (AUG-CC-PVTZ AUX)
    Blend: AUG-CC-PVTZ-JKFIT

    Orbital Energies [Eh]
    ---------------------

    Doubly Occupied:

       1A    -15.607850     2A    -11.261553     3A    -11.256078
       4A    -11.252943     5A    -11.241820     6A    -11.240536
       7A    -11.240255     8A    -11.237725     9A    -11.237457
      10A    -11.212518    11A    -11.201596    12A     -1.293634
      13A     -1.155938    14A     -1.048866    15A     -1.045000
      16A     -1.016696    17A     -0.959880    18A     -0.837739
      19A     -0.832915    20A     -0.798002    21A     -0.768480
      22A     -0.735626    23A     -0.680148    24A     -0.633091
      25A     -0.629647    26A     -0.601812    27A     -0.589791
      28A     -0.582613    29A     -0.568934    30A     -0.557463
      31A     -0.536399    32A     -0.504360    33A     -0.501068
      34A     -0.494395    35A     -0.363156    36A     -0.349849
      37A     -0.341153    38A     -0.273034

  @DF-RHF Final Energy:  -438.50270081620920

   => Energetics <=

    Nuclear Repulsion Energy =            537.3749749295271840
    One-Electron Energy =               -1658.3753155931744914
    Two-Electron Energy =                 682.4976398474382222
    Total Energy =                       -438.5027008162091988
  Basis Set: (AUG-CC-PVTZ AUX)
    Blend: AUG-CC-PVTZ-RI
    Molecular point group: c1

    Geometry (in Angstrom), charge = 0, multiplicity = 1:

       Center              X                  Y                   Z               Mass
    ------------   -----------------  -----------------  -----------------  -----------------
         N            1.772421169911    -0.970669928739    -0.386458077404    14.003074004430
         C            1.003127169911     0.096162071261     0.027038922596    12.000000000000
         C           -0.455661830089     0.043191071261     0.018226922596    12.000000000000
         C            1.889016169911     1.090460071261     0.432847922596    12.000000000000
         C           -1.201048830089     1.198646071261    -0.270163077404    12.000000000000
         C           -1.141201830089    -1.152452928739     0.294062922596    12.000000000000
         C            3.106911169911    -0.673424928739    -0.277319077404    12.000000000000
         C            3.204464169911     0.607103071261     0.240978922596    12.000000000000
         C           -2.594389830089     1.160815071261    -0.269121077404    12.000000000000
         C           -2.535261830089    -1.192336928739     0.269483922596    12.000000000000
         C           -3.267495830089    -0.036234928739    -0.009638077404    12.000000000000
         H            1.394563169911    -1.797468928739    -0.831919077404     1.007825032230
         H            1.602725169911     2.042148071261     0.862851922596     1.007825032230
         H           -0.676171830089     2.121570071261    -0.507161077404     1.007825032230
         H           -0.579505830089    -2.044503928739     0.566708922596     1.007825032230
         H            3.866740169911    -1.381738928739    -0.577750077404     1.007825032230
         H            4.041474169911     1.077296771261     0.448674022596     1.007825032230
         H           -3.157697830089     2.064017071261    -0.492696077404     1.007825032230
         H           -3.051556830089    -2.124781928739     0.486687922596     1.007825032230
         H           -4.354269830089    -0.066447928739    -0.020068077404     1.007825032230

  Basis Set: AUG-CC-PVTZ
    Blend: AUG-CC-PVTZ
  Basis Set: (AUG-CC-PVTZ AUX)
    Blend: AUG-CC-PVTZ-JKFIT
	 Reference Energy          =    -438.5027008162091988 [Eh]
	 Singles Energy            =      -0.0000000000000000 [Eh]
	 Same-Spin Energy          =      -0.4951472412285560 [Eh]
	 Opposite-Spin Energy      =      -1.5248896200456175 [Eh]
	 Correlation Energy        =      -2.0200368612741735 [Eh]
	 Total Energy              =    -440.5227376774833488 [Eh]

	 ================> DF-SCS-MP2 Energies <==================
	-----------------------------------------------------------
	 SCS Same-Spin Scale       =       0.3333333333333333 [-]
	 SCS Opposite-Spin Scale   =       1.2000000000000000 [-]
	 SCS Same-Spin Energy      =      -0.1650490804095187 [Eh]
	 SCS Opposite-Spin Energy  =      -1.8298675440547409 [Eh]
	 SCS Correlation Energy    =      -1.9949166244642595 [Eh]
	 SCS Total Energy          =    -440.4976174406734799 [Eh]
	-----------------------------------------------------------

  Dipole Moment: [D]
     X:    -0.4274      Y:    -1.3171      Z:    -0.6468     Total:     1.5284

*** Psi4 exiting successfully. Buy a developer a beer!
