                               Psi4 1.3.2 release

  ==> Input File <==

--------------------------------------------------------------------------
#psi4
#
memory 32 gb

molecule  {
0 1
  N        1.7773000    -0.9706020    -0.3863220
  C        1.0080060     0.0962300     0.0271750
  C       -0.4480695    -0.0037067    -0.0012097
  C        1.8938950     1.0905280     0.4329840
  C       -1.1961700     1.1987140    -0.2700270
  C       -1.1363230    -1.1523850     0.2941990
  C        3.1117900    -0.6733570    -0.2771830
  C        3.2093430     0.6071710     0.2411150
  C       -2.5895110     1.1608830    -0.2689850
  C       -2.5303830    -1.1922690     0.2696200
  C       -3.2626170    -0.0361670    -0.0095020
  H        1.3994420    -1.7974010    -0.8317830
  H        1.6076040     2.0422160     0.8629880
  H       -0.6712930     2.1216380    -0.5070250
  H       -0.5746270    -2.0444360     0.5668450
  H        3.8716190    -1.3816710    -0.5776140
  H        4.1315670     1.1252340     0.4699550
  H       -3.1528190     2.0640850    -0.4925600
  H       -3.0466780    -2.1247140     0.4868240
  H       -4.3493910    -0.0663800    -0.0199320
units angstrom
no_reorient  #important for SAPT in psi4, default
symmetry c1  #important for SAPT in psi4, default
}

set PROPERTIES_ORIGIN ["COM"]
properties('MP2/aug-cc-pvtz', properties = ['dipole'])
--------------------------------------------------------------------------

    Molecular point group: c1
  Charge       = 0
  Multiplicity = 1
  Basis Set: AUG-CC-PVTZ
    Blend: AUG-CC-PVTZ
  Basis Set: (AUG-CC-PVTZ AUX)
    Blend: AUG-CC-PVTZ-JKFIT

    Orbital Energies [Eh]
    ---------------------

    Doubly Occupied:

       1A    -15.607315     2A    -11.262447     3A    -11.256344
       4A    -11.253049     5A    -11.241848     6A    -11.241771
       7A    -11.239969     8A    -11.238010     9A    -11.237424
      10A    -11.214576    11A    -11.213369    12A     -1.294199
      13A     -1.156251    14A     -1.048160    15A     -1.044261
      16A     -1.016442    17A     -0.959282    18A     -0.838637
      19A     -0.831463    20A     -0.788149    21A     -0.765774
      22A     -0.734858    23A     -0.680178    24A     -0.632632
      25A     -0.630387    26A     -0.593408    27A     -0.590696
      28A     -0.579761    29A     -0.569198    30A     -0.549951
      31A     -0.537215    32A     -0.504641    33A     -0.502545
      34A     -0.492225    35A     -0.364281    36A     -0.350610
      37A     -0.340359    38A     -0.273579

  @DF-RHF Final Energy:  -438.50637052790739

   => Energetics <=

    Nuclear Repulsion Energy =            536.8614557967530345
    One-Electron Energy =               -1657.3851284622173807
    Two-Electron Energy =                 682.0173021375569533
    Total Energy =                       -438.5063705279073929
  Basis Set: (AUG-CC-PVTZ AUX)
    Blend: AUG-CC-PVTZ-RI
    Molecular point group: c1

    Geometry (in Angstrom), charge = 0, multiplicity = 1:

       Center              X                  Y                   Z               Mass
    ------------   -----------------  -----------------  -----------------  -----------------
         N            1.771593324063    -0.967067972236    -0.384965403768    14.003074004430
         C            1.002299324063     0.099764027764     0.028531596232    12.000000000000
         C           -0.453776175937    -0.000172672236     0.000146896232    12.000000000000
         C            1.888188324063     1.094062027764     0.434340596232    12.000000000000
         C           -1.201876675937     1.202248027764    -0.268670403768    12.000000000000
         C           -1.142029675937    -1.148850972236     0.295555596232    12.000000000000
         C            3.106083324063    -0.669822972236    -0.275826403768    12.000000000000
         C            3.203636324063     0.610705027764     0.242471596232    12.000000000000
         C           -2.595217675937     1.164417027764    -0.267628403768    12.000000000000
         C           -2.536089675937    -1.188734972236     0.270976596232    12.000000000000
         C           -3.268323675937    -0.032632972236    -0.008145403768    12.000000000000
         H            1.393735324063    -1.793866972236    -0.830426403768     1.007825032230
         H            1.601897324063     2.045750027764     0.864344596232     1.007825032230
         H           -0.676999675937     2.125172027764    -0.505668403768     1.007825032230
         H           -0.580333675937    -2.040901972236     0.568201596232     1.007825032230
         H            3.865912324063    -1.378136972236    -0.576257403768     1.007825032230
         H            4.125860324063     1.128768027764     0.471311596232     1.007825032230
         H           -3.158525675937     2.067619027764    -0.491203403768     1.007825032230
         H           -3.052384675937    -2.121179972236     0.488180596232     1.007825032230
         H           -4.355097675937    -0.062845972236    -0.018575403768     1.007825032230

  Basis Set: AUG-CC-PVTZ
    Blend: AUG-CC-PVTZ
  Basis Set: (AUG-CC-PVTZ AUX)
    Blend: AUG-CC-PVTZ-JKFIT
	 Reference Energy          =    -438.5063705279073929 [Eh]
	 Singles Energy            =      -0.0000000000000000 [Eh]
	 Same-Spin Energy          =      -0.4952480241200556 [Eh]
	 Opposite-Spin Energy      =      -1.5254997668798267 [Eh]
	 Correlation Energy        =      -2.0207477909998826 [Eh]
	 Total Energy              =    -440.5271183189072985 [Eh]

	 ================> DF-SCS-MP2 Energies <==================
	-----------------------------------------------------------
	 SCS Same-Spin Scale       =       0.3333333333333333 [-]
	 SCS Opposite-Spin Scale   =       1.2000000000000000 [-]
	 SCS Same-Spin Energy      =      -0.1650826747066852 [Eh]
	 SCS Opposite-Spin Energy  =      -1.8305997202557920 [Eh]
	 SCS Correlation Energy    =      -1.9956823949624771 [Eh]
	 SCS Total Energy          =    -440.5020529228698933 [Eh]
	-----------------------------------------------------------

  Dipole Moment: [D]
     X:    -0.4494      Y:    -1.3091      Z:    -0.6401     Total:     1.5250

*** Psi4 exiting successfully. Buy a developer a beer!
