                               Psi4 1.3.2 release

  ==> Input File <==

--------------------------------------------------------------------------
#psi4
#
memory 32 gb

molecule  {
0 1
  N        1.7719816    -0.9490505    -0.3773633
  C        1.0080060     0.0962300     0.0271750
  C       -0.4507830     0.0432590     0.0183630
  C        1.8938950     1.0905280     0.4329840
  C       -1.1961700     1.1987140    -0.2700270
  C       -1.1363230    -1.1523850     0.2941990
  C        3.1117900    -0.6733570    -0.2771830
  C        3.2093430     0.6071710     0.2411150
  C       -2.5895110     1.1608830    -0.2689850
  C       -2.5303830    -1.1922690     0.2696200
  C       -3.2626170    -0.0361670    -0.0095020
  H        1.3994420    -1.7974010    -0.8317830
  H        1.6076040     2.0422160     0.8629880
  H       -0.6712930     2.1216380    -0.5070250
  H       -0.5746270    -2.0444360     0.5668450
  H        3.8716190    -1.3816710    -0.5776140
  H        4.1315670     1.1252340     0.4699550
  H       -3.1528190     2.0640850    -0.4925600
  H       -3.0466780    -2.1247140     0.4868240
  H       -4.3493910    -0.0663800    -0.0199320
units angstrom
no_reorient  #important for SAPT in psi4, default
symmetry c1  #important for SAPT in psi4, default
}

set PROPERTIES_ORIGIN ["COM"]
properties('MP2/aug-cc-pvtz', properties = ['dipole'])
--------------------------------------------------------------------------

    Molecular point group: c1
  Charge       = 0
  Multiplicity = 1
  Basis Set: AUG-CC-PVTZ
    Blend: AUG-CC-PVTZ
  Basis Set: (AUG-CC-PVTZ AUX)
    Blend: AUG-CC-PVTZ-JKFIT

    Orbital Energies [Eh]
    ---------------------

    Doubly Occupied:

       1A    -15.610035     2A    -11.260513     3A    -11.254742
       4A    -11.253478     5A    -11.242312     6A    -11.240984
       7A    -11.240829     8A    -11.238265     9A    -11.237984
      10A    -11.213224    11A    -11.210852    12A     -1.299413
      13A     -1.156433    14A     -1.048301    15A     -1.041486
      16A     -1.016931    17A     -0.961423    18A     -0.837729
      19A     -0.832534    20A     -0.784330    21A     -0.766846
      22A     -0.736016    23A     -0.680452    24A     -0.634525
      25A     -0.629716    26A     -0.592187    27A     -0.587100
      28A     -0.585879    29A     -0.570914    30A     -0.548997
      31A     -0.536092    32A     -0.505182    33A     -0.501013
      34A     -0.494533    35A     -0.362834    36A     -0.349310
      37A     -0.341573    38A     -0.273805

  @DF-RHF Final Energy:  -438.50784258749633

   => Energetics <=

    Nuclear Repulsion Energy =            537.3317361603066047
    One-Electron Energy =               -1658.3216119804339996
    Two-Electron Energy =                 682.4820332326311245
    Total Energy =                       -438.5078425874963841
  Basis Set: (AUG-CC-PVTZ AUX)
    Blend: AUG-CC-PVTZ-RI
    Molecular point group: c1

    Geometry (in Angstrom), charge = 0, multiplicity = 1:

       Center              X                  Y                   Z               Mass
    ------------   -----------------  -----------------  -----------------  -----------------
         N            1.767023042683    -0.951564941405    -0.378525141780    14.003074004430
         C            1.003047442683     0.093715558595     0.026013158220    12.000000000000
         C           -0.455741557317     0.040744558595     0.017201158220    12.000000000000
         C            1.888936442683     1.088013558595     0.431822158220    12.000000000000
         C           -1.201128557317     1.196199558595    -0.271188841780    12.000000000000
         C           -1.141281557317    -1.154899441405     0.293037158220    12.000000000000
         C            3.106831442683    -0.675871441405    -0.278344841780    12.000000000000
         C            3.204384442683     0.604656558595     0.239953158220    12.000000000000
         C           -2.594469557317     1.158368558595    -0.270146841780    12.000000000000
         C           -2.535341557317    -1.194783441405     0.268458158220    12.000000000000
         C           -3.267575557317    -0.038681441405    -0.010663841780    12.000000000000
         H            1.394483442683    -1.799915441405    -0.832944841780     1.007825032230
         H            1.602645442683     2.039701558595     0.861826158220     1.007825032230
         H           -0.676251557317     2.119123558595    -0.508186841780     1.007825032230
         H           -0.579585557317    -2.046950441405     0.565683158220     1.007825032230
         H            3.866660442683    -1.384185441405    -0.578775841780     1.007825032230
         H            4.126608442683     1.122719558595     0.468793158220     1.007825032230
         H           -3.157777557317     2.061570558595    -0.493721841780     1.007825032230
         H           -3.051636557317    -2.127228441405     0.485662158220     1.007825032230
         H           -4.354349557317    -0.068894441405    -0.021093841780     1.007825032230

  Basis Set: AUG-CC-PVTZ
    Blend: AUG-CC-PVTZ
  Basis Set: (AUG-CC-PVTZ AUX)
    Blend: AUG-CC-PVTZ-JKFIT
	 Reference Energy          =    -438.5078425874963273 [Eh]
	 Singles Energy            =      -0.0000000000000000 [Eh]
	 Same-Spin Energy          =      -0.4955150638152221 [Eh]
	 Opposite-Spin Energy      =      -1.5254156459532044 [Eh]
	 Correlation Energy        =      -2.0209307097684266 [Eh]
	 Total Energy              =    -440.5287732972647632 [Eh]

	 ================> DF-SCS-MP2 Energies <==================
	-----------------------------------------------------------
	 SCS Same-Spin Scale       =       0.3333333333333333 [-]
	 SCS Opposite-Spin Scale   =       1.2000000000000000 [-]
	 SCS Same-Spin Energy      =      -0.1651716879384074 [Eh]
	 SCS Opposite-Spin Energy  =      -1.8304987751438453 [Eh]
	 SCS Correlation Energy    =      -1.9956704630822526 [Eh]
	 SCS Total Energy          =    -440.5035130505785901 [Eh]
	-----------------------------------------------------------

  Dipole Moment: [D]
     X:    -0.4731      Y:    -1.3712      Z:    -0.6674     Total:     1.5967

*** Psi4 exiting successfully. Buy a developer a beer!
