                               Psi4 1.3.2 release

  ==> Input File <==

--------------------------------------------------------------------------
#psi4
#
memory 32 gb

molecule  {
0 1
  N        1.8926787    -0.8893235    -0.3561811
  C        1.0080060     0.0962300     0.0271750
  C       -0.4507830     0.0432590     0.0183630
  C        1.8938950     1.0905280     0.4329840
  C       -1.1961700     1.1987140    -0.2700270
  C       -1.1363230    -1.1523850     0.2941990
  C        3.1117900    -0.6733570    -0.2771830
  C        3.2093430     0.6071710     0.2411150
  C       -2.5895110     1.1608830    -0.2689850
  C       -2.5303830    -1.1922690     0.2696200
  C       -3.2626170    -0.0361670    -0.0095020
  H        1.3994420    -1.7974010    -0.8317830
  H        1.6076040     2.0422160     0.8629880
  H       -0.6712930     2.1216380    -0.5070250
  H       -0.5746270    -2.0444360     0.5668450
  H        3.8716190    -1.3816710    -0.5776140
  H        4.1315670     1.1252340     0.4699550
  H       -3.1528190     2.0640850    -0.4925600
  H       -3.0466780    -2.1247140     0.4868240
  H       -4.3493910    -0.0663800    -0.0199320
units angstrom
no_reorient  #important for SAPT in psi4, default
symmetry c1  #important for SAPT in psi4, default
}

set PROPERTIES_ORIGIN ["COM"]
properties('MP2/aug-cc-pvtz', properties = ['dipole'])
--------------------------------------------------------------------------

    Molecular point group: c1
  Charge       = 0
  Multiplicity = 1
  Basis Set: AUG-CC-PVTZ
    Blend: AUG-CC-PVTZ
  Basis Set: (AUG-CC-PVTZ AUX)
    Blend: AUG-CC-PVTZ-JKFIT

    Orbital Energies [Eh]
    ---------------------

    Doubly Occupied:

       1A    -15.620909     2A    -11.256517     3A    -11.252320
       4A    -11.248465     5A    -11.242091     6A    -11.240940
       7A    -11.240303     8A    -11.237697     9A    -11.237100
      10A    -11.212208    11A    -11.200724    12A     -1.332647
      13A     -1.157582    14A     -1.056949    15A     -1.028270
      16A     -1.016058    17A     -0.972257    18A     -0.838082
      19A     -0.832720    20A     -0.777277    21A     -0.760958
      22A     -0.740596    23A     -0.686789    24A     -0.643420
      25A     -0.630191    26A     -0.600435    27A     -0.593203
      28A     -0.588190    29A     -0.554916    30A     -0.544872
      31A     -0.531196    32A     -0.507345    33A     -0.501063
      34A     -0.492515    35A     -0.370260    36A     -0.341775
      37A     -0.340098    38A     -0.271135

  @DF-RHF Final Energy:  -438.47236936565889

   => Energetics <=

    Nuclear Repulsion Energy =            538.4397691581361869
    One-Electron Energy =               -1660.4241320370683752
    Two-Electron Energy =                 683.5119935132732962
    Total Energy =                       -438.4723693656588921
  Basis Set: (AUG-CC-PVTZ AUX)
    Blend: AUG-CC-PVTZ-RI
    Molecular point group: c1

    Geometry (in Angstrom), charge = 0, multiplicity = 1:

       Center              X                  Y                   Z               Mass
    ------------   -----------------  -----------------  -----------------  -----------------
         N            1.875907120483    -0.897683619363    -0.359416113371    14.003074004430
         C            0.991234420483     0.087869880637     0.023939986629    12.000000000000
         C           -0.467554579517     0.034898880637     0.015127986629    12.000000000000
         C            1.877123420483     1.082167880637     0.429748986629    12.000000000000
         C           -1.212941579517     1.190353880637    -0.273262013371    12.000000000000
         C           -1.153094579517    -1.160745119363     0.290963986629    12.000000000000
         C            3.095018420483    -0.681717119363    -0.280418013371    12.000000000000
         C            3.192571420483     0.598810880637     0.237879986629    12.000000000000
         C           -2.606282579517     1.152522880637    -0.272220013371    12.000000000000
         C           -2.547154579517    -1.200629119363     0.266384986629    12.000000000000
         C           -3.279388579517    -0.044527119363    -0.012737013371    12.000000000000
         H            1.382670420483    -1.805761119363    -0.835018013371     1.007825032230
         H            1.590832420483     2.033855880637     0.859752986629     1.007825032230
         H           -0.688064579517     2.113277880637    -0.510260013371     1.007825032230
         H           -0.591398579517    -2.052796119363     0.563609986629     1.007825032230
         H            3.854847420483    -1.390031119363    -0.580849013371     1.007825032230
         H            4.114795420483     1.116873880637     0.466719986629     1.007825032230
         H           -3.169590579517     2.055724880637    -0.495795013371     1.007825032230
         H           -3.063449579517    -2.133074119363     0.483588986629     1.007825032230
         H           -4.366162579517    -0.074740119363    -0.023167013371     1.007825032230

  Basis Set: AUG-CC-PVTZ
    Blend: AUG-CC-PVTZ
  Basis Set: (AUG-CC-PVTZ AUX)
    Blend: AUG-CC-PVTZ-JKFIT
	 Reference Energy          =    -438.4723693656588921 [Eh]
	 Singles Energy            =      -0.0000000000000000 [Eh]
	 Same-Spin Energy          =      -0.4973765044582276 [Eh]
	 Opposite-Spin Energy      =      -1.5269725450972229 [Eh]
	 Correlation Energy        =      -2.0243490495554504 [Eh]
	 Total Energy              =    -440.4967184152143318 [Eh]

	 ================> DF-SCS-MP2 Energies <==================
	-----------------------------------------------------------
	 SCS Same-Spin Scale       =       0.3333333333333333 [-]
	 SCS Opposite-Spin Scale   =       1.2000000000000000 [-]
	 SCS Same-Spin Energy      =      -0.1657921681527425 [Eh]
	 SCS Opposite-Spin Energy  =      -1.8323670541166674 [Eh]
	 SCS Correlation Energy    =      -1.9981592222694100 [Eh]
	 SCS Total Energy          =    -440.4705285879282997 [Eh]
	-----------------------------------------------------------

  Dipole Moment: [D]
     X:    -0.5763      Y:    -1.6379      Z:    -0.7629     Total:     1.8965

*** Psi4 exiting successfully. Buy a developer a beer!
