                               Psi4 1.3.2 release

  ==> Input File <==

--------------------------------------------------------------------------
#psi4
#
memory 32 gb

molecule  {
0 1
  N        1.7773000    -0.9706020    -0.3863220
  C        1.0080060     0.0962300     0.0271750
  C       -0.4507830     0.0432590     0.0183630
  C        1.8608237     1.0043213     0.3980176
  C       -1.1961700     1.1987140    -0.2700270
  C       -1.1363230    -1.1523850     0.2941990
  C        3.1117900    -0.6733570    -0.2771830
  C        3.2093430     0.6071710     0.2411150
  C       -2.5895110     1.1608830    -0.2689850
  C       -2.5303830    -1.1922690     0.2696200
  C       -3.2626170    -0.0361670    -0.0095020
  H        1.3994420    -1.7974010    -0.8317830
  H        1.6076040     2.0422160     0.8629880
  H       -0.6712930     2.1216380    -0.5070250
  H       -0.5746270    -2.0444360     0.5668450
  H        3.8716190    -1.3816710    -0.5776140
  H        4.1315670     1.1252340     0.4699550
  H       -3.1528190     2.0640850    -0.4925600
  H       -3.0466780    -2.1247140     0.4868240
  H       -4.3493910    -0.0663800    -0.0199320
units angstrom
no_reorient  #important for SAPT in psi4, default
symmetry c1  #important for SAPT in psi4, default
}

set PROPERTIES_ORIGIN ["COM"]
properties('MP2/aug-cc-pvtz', properties = ['dipole'])
--------------------------------------------------------------------------

    Molecular point group: c1
  Charge       = 0
  Multiplicity = 1
  Basis Set: AUG-CC-PVTZ
    Blend: AUG-CC-PVTZ
  Basis Set: (AUG-CC-PVTZ AUX)
    Blend: AUG-CC-PVTZ-JKFIT

    Orbital Energies [Eh]
    ---------------------

    Doubly Occupied:

       1A    -15.601175     2A    -11.258682     3A    -11.253371
       4A    -11.249082     5A    -11.242016     6A    -11.240722
       7A    -11.240558     8A    -11.238109     9A    -11.237800
      10A    -11.211058    11A    -11.208596    12A     -1.299282
      13A     -1.156247    14A     -1.054399    15A     -1.043306
      16A     -1.016805    17A     -0.967218    18A     -0.837211
      19A     -0.832633    20A     -0.788613    21A     -0.755914
      22A     -0.736919    23A     -0.681485    24A     -0.634583
      25A     -0.629798    26A     -0.591317    27A     -0.589664
      28A     -0.579649    29A     -0.574639    30A     -0.561022
      31A     -0.513525    32A     -0.504335    33A     -0.500756
      34A     -0.494797    35A     -0.367805    36A     -0.348608
      37A     -0.341189    38A     -0.282440

  @DF-RHF Final Energy:  -438.49762515917075

   => Energetics <=

    Nuclear Repulsion Energy =            538.8240543462399046
    One-Electron Energy =               -1661.3127041861880571
    Two-Electron Energy =                 683.9910246807775138
    Total Energy =                       -438.4976251591707523
  Basis Set: (AUG-CC-PVTZ AUX)
    Blend: AUG-CC-PVTZ-RI
    Molecular point group: c1

    Geometry (in Angstrom), charge = 0, multiplicity = 1:

       Center              X                  Y                   Z               Mass
    ------------   -----------------  -----------------  -----------------  -----------------
         N            1.774594701692    -0.963776712832    -0.383674288356    14.003074004430
         C            1.005300701692     0.103055287168     0.029822711644    12.000000000000
         C           -0.453488298308     0.050084287168     0.021010711644    12.000000000000
         C            1.858118401692     1.011146587168     0.400665311644    12.000000000000
         C           -1.198875298308     1.205539287168    -0.267379288356    12.000000000000
         C           -1.139028298308    -1.145559712832     0.296846711644    12.000000000000
         C            3.109084701692    -0.666531712832    -0.274535288356    12.000000000000
         C            3.206637701692     0.613996287168     0.243762711644    12.000000000000
         C           -2.592216298308     1.167708287168    -0.266337288356    12.000000000000
         C           -2.533088298308    -1.185443712832     0.272267711644    12.000000000000
         C           -3.265322298308    -0.029341712832    -0.006854288356    12.000000000000
         H            1.396736701692    -1.790575712832    -0.829135288356     1.007825032230
         H            1.604898701692     2.049041287168     0.865635711644     1.007825032230
         H           -0.673998298308     2.128463287168    -0.504377288356     1.007825032230
         H           -0.577332298308    -2.037610712832     0.569492711644     1.007825032230
         H            3.868913701692    -1.374845712832    -0.574966288356     1.007825032230
         H            4.128861701692     1.132059287168     0.472602711644     1.007825032230
         H           -3.155524298308     2.070910287168    -0.489912288356     1.007825032230
         H           -3.049383298308    -2.117888712832     0.489471711644     1.007825032230
         H           -4.352096298308    -0.059554712832    -0.017284288356     1.007825032230

  Basis Set: AUG-CC-PVTZ
    Blend: AUG-CC-PVTZ
  Basis Set: (AUG-CC-PVTZ AUX)
    Blend: AUG-CC-PVTZ-JKFIT
	 Reference Energy          =    -438.4976251591707523 [Eh]
	 Singles Energy            =      -0.0000000000000000 [Eh]
	 Same-Spin Energy          =      -0.4943668326196161 [Eh]
	 Opposite-Spin Energy      =      -1.5240651328149561 [Eh]
	 Correlation Energy        =      -2.0184319654345724 [Eh]
	 Total Energy              =    -440.5160571246053109 [Eh]

	 ================> DF-SCS-MP2 Energies <==================
	-----------------------------------------------------------
	 SCS Same-Spin Scale       =       0.3333333333333333 [-]
	 SCS Opposite-Spin Scale   =       1.2000000000000000 [-]
	 SCS Same-Spin Energy      =      -0.1647889442065387 [Eh]
	 SCS Opposite-Spin Energy  =      -1.8288781593779473 [Eh]
	 SCS Correlation Energy    =      -1.9936671035844860 [Eh]
	 SCS Total Energy          =    -440.4912922627552234 [Eh]
	-----------------------------------------------------------

  Dipole Moment: [D]
     X:    -0.5008      Y:    -1.2833      Z:    -0.6398     Total:     1.5189

*** Psi4 exiting successfully. Buy a developer a beer!
