                               Psi4 1.3.2 release

  ==> Input File <==

--------------------------------------------------------------------------
#psi4
#
memory 32 gb

molecule  {
0 1
  N        1.7773000    -0.9706020    -0.3863220
  C        1.0459896     0.0690360     0.0137951
  C       -0.4507830     0.0432590     0.0183630
  C        1.8938950     1.0905280     0.4329840
  C       -1.1961700     1.1987140    -0.2700270
  C       -1.1363230    -1.1523850     0.2941990
  C        3.1117900    -0.6733570    -0.2771830
  C        3.2093430     0.6071710     0.2411150
  C       -2.5895110     1.1608830    -0.2689850
  C       -2.5303830    -1.1922690     0.2696200
  C       -3.2626170    -0.0361670    -0.0095020
  H        1.3994420    -1.7974010    -0.8317830
  H        1.6076040     2.0422160     0.8629880
  H       -0.6712930     2.1216380    -0.5070250
  H       -0.5746270    -2.0444360     0.5668450
  H        3.8716190    -1.3816710    -0.5776140
  H        4.1315670     1.1252340     0.4699550
  H       -3.1528190     2.0640850    -0.4925600
  H       -3.0466780    -2.1247140     0.4868240
  H       -4.3493910    -0.0663800    -0.0199320
units angstrom
no_reorient  #important for SAPT in psi4, default
symmetry c1  #important for SAPT in psi4, default
}

set PROPERTIES_ORIGIN ["COM"]
properties('MP2/aug-cc-pvtz', properties = ['dipole'])
--------------------------------------------------------------------------

    Molecular point group: c1
  Charge       = 0
  Multiplicity = 1
  Basis Set: AUG-CC-PVTZ
    Blend: AUG-CC-PVTZ
  Basis Set: (AUG-CC-PVTZ AUX)
    Blend: AUG-CC-PVTZ-JKFIT

    Orbital Energies [Eh]
    ---------------------

    Doubly Occupied:

       1A    -15.610663     2A    -11.261912     3A    -11.255331
       4A    -11.252590     5A    -11.241954     6A    -11.240922
       7A    -11.240357     8A    -11.238235     9A    -11.237849
      10A    -11.213902    11A    -11.209499    12A     -1.308601
      13A     -1.155063    14A     -1.047637    15A     -1.042524
      16A     -1.016852    17A     -0.960513    18A     -0.833568
      19A     -0.831728    20A     -0.793661    21A     -0.770279
      22A     -0.733563    23A     -0.679588    24A     -0.632385
      25A     -0.628951    26A     -0.599440    27A     -0.590362
      28A     -0.584286    29A     -0.572561    30A     -0.550574
      31A     -0.534440    32A     -0.504940    33A     -0.497754
      34A     -0.492438    35A     -0.359784    36A     -0.351993
      37A     -0.341322    38A     -0.274811

  @DF-RHF Final Energy:  -438.50779099185729

   => Energetics <=

    Nuclear Repulsion Energy =            537.0216405884201549
    One-Electron Energy =               -1657.6732000620579583
    Two-Electron Energy =                 682.1437684817806257
    Total Energy =                       -438.5077909918572914
  Basis Set: (AUG-CC-PVTZ AUX)
    Blend: AUG-CC-PVTZ-RI
    Molecular point group: c1

    Geometry (in Angstrom), charge = 0, multiplicity = 1:

       Center              X                  Y                   Z               Mass
    ------------   -----------------  -----------------  -----------------  -----------------
         N            1.768635115855    -0.968726283532    -0.385484812326    14.003074004430
         C            1.037324715855     0.070911716468     0.014632287674    12.000000000000
         C           -0.459447884145     0.045134716468     0.019200187674    12.000000000000
         C            1.885230115855     1.092403716468     0.433821187674    12.000000000000
         C           -1.204834884145     1.200589716468    -0.269189812326    12.000000000000
         C           -1.144987884145    -1.150509283532     0.295036187674    12.000000000000
         C            3.103125115855    -0.671481283532    -0.276345812326    12.000000000000
         C            3.200678115855     0.609046716468     0.241952187674    12.000000000000
         C           -2.598175884145     1.162758716468    -0.268147812326    12.000000000000
         C           -2.539047884145    -1.190393283532     0.270457187674    12.000000000000
         C           -3.271281884145    -0.034291283532    -0.008664812326    12.000000000000
         H            1.390777115855    -1.795525283532    -0.830945812326     1.007825032230
         H            1.598939115855     2.044091716468     0.863825187674     1.007825032230
         H           -0.679957884145     2.123513716468    -0.506187812326     1.007825032230
         H           -0.583291884145    -2.042560283532     0.567682187674     1.007825032230
         H            3.862954115855    -1.379795283532    -0.576776812326     1.007825032230
         H            4.122902115855     1.127109716468     0.470792187674     1.007825032230
         H           -3.161483884145     2.065960716468    -0.491722812326     1.007825032230
         H           -3.055342884145    -2.122838283532     0.487661187674     1.007825032230
         H           -4.358055884145    -0.064504283532    -0.019094812326     1.007825032230

  Basis Set: AUG-CC-PVTZ
    Blend: AUG-CC-PVTZ
  Basis Set: (AUG-CC-PVTZ AUX)
    Blend: AUG-CC-PVTZ-JKFIT
	 Reference Energy          =    -438.5077909918572914 [Eh]
	 Singles Energy            =      -0.0000000000000000 [Eh]
	 Same-Spin Energy          =      -0.4947821917769245 [Eh]
	 Opposite-Spin Energy      =      -1.5241855634623480 [Eh]
	 Correlation Energy        =      -2.0189677552392724 [Eh]
	 Total Energy              =    -440.5267587470965509 [Eh]

	 ================> DF-SCS-MP2 Energies <==================
	-----------------------------------------------------------
	 SCS Same-Spin Scale       =       0.3333333333333333 [-]
	 SCS Opposite-Spin Scale   =       1.2000000000000000 [-]
	 SCS Same-Spin Energy      =      -0.1649273972589748 [Eh]
	 SCS Opposite-Spin Energy  =      -1.8290226761548176 [Eh]
	 SCS Correlation Energy    =      -1.9939500734137925 [Eh]
	 SCS Total Energy          =    -440.5017410652710623 [Eh]
	-----------------------------------------------------------

  Dipole Moment: [D]
     X:    -0.4802      Y:    -1.3608      Z:    -0.6698     Total:     1.5909

*** Psi4 exiting successfully. Buy a developer a beer!
