                               Psi4 1.3.2 release

  ==> Input File <==

--------------------------------------------------------------------------
#psi4
#
memory 32 gb

molecule  {
0 1
  N        1.7891573    -1.0135506    -0.4038344
  C        1.0080060     0.0962300     0.0271750
  C       -0.4507830     0.0432590     0.0183630
  C        1.8938950     1.0905280     0.4329840
  C       -1.1961700     1.1987140    -0.2700270
  C       -1.1363230    -1.1523850     0.2941990
  C        3.1117900    -0.6733570    -0.2771830
  C        3.2093430     0.6071710     0.2411150
  C       -2.5895110     1.1608830    -0.2689850
  C       -2.5303830    -1.1922690     0.2696200
  C       -3.2626170    -0.0361670    -0.0095020
  H        1.3994420    -1.7974010    -0.8317830
  H        1.6076040     2.0422160     0.8629880
  H       -0.6712930     2.1216380    -0.5070250
  H       -0.5746270    -2.0444360     0.5668450
  H        3.8716190    -1.3816710    -0.5776140
  H        4.1315670     1.1252340     0.4699550
  H       -3.1528190     2.0640850    -0.4925600
  H       -3.0466780    -2.1247140     0.4868240
  H       -4.3493910    -0.0663800    -0.0199320
units angstrom
no_reorient  #important for SAPT in psi4, default
symmetry c1  #important for SAPT in psi4, default
}

set PROPERTIES_ORIGIN ["COM"]
properties('MP2/aug-cc-pvtz', properties = ['dipole'])
--------------------------------------------------------------------------

    Molecular point group: c1
  Charge       = 0
  Multiplicity = 1
  Basis Set: AUG-CC-PVTZ
    Blend: AUG-CC-PVTZ
  Basis Set: (AUG-CC-PVTZ AUX)
    Blend: AUG-CC-PVTZ-JKFIT

    Orbital Energies [Eh]
    ---------------------

    Doubly Occupied:

       1A    -15.604727     2A    -11.265252     3A    -11.260519
       4A    -11.252844     5A    -11.241493     6A    -11.240324
       7A    -11.239775     8A    -11.237382     9A    -11.237102
      10A    -11.217889    11A    -11.214212    12A     -1.284906
      13A     -1.155696    14A     -1.053283    15A     -1.043158
      16A     -1.016484    17A     -0.955422    18A     -0.839027
      19A     -0.831661    20A     -0.796663    21A     -0.761117
      22A     -0.733977    23A     -0.679014    24A     -0.631433
      25A     -0.630081    26A     -0.600326    27A     -0.589077
      28A     -0.575890    29A     -0.565099    30A     -0.550536
      31A     -0.538138    32A     -0.503345    33A     -0.500385
      34A     -0.494007    35A     -0.365482    36A     -0.351515
      37A     -0.340927    38A     -0.272492

  @DF-RHF Final Energy:  -438.50571455965439

   => Energetics <=

    Nuclear Repulsion Energy =            535.8486976203872700
    One-Electron Energy =               -1655.3675071711072633
    Two-Electron Energy =                 681.0130949910657137
    Total Energy =                       -438.5057145596543933
  Basis Set: (AUG-CC-PVTZ AUX)
    Blend: AUG-CC-PVTZ-RI
    Molecular point group: c1

    Geometry (in Angstrom), charge = 0, multiplicity = 1:

       Center              X                  Y                   Z               Mass
    ------------   -----------------  -----------------  -----------------  -----------------
         N            1.782517700426    -1.009752204451    -0.402405428148    14.003074004430
         C            1.001366400426     0.100028395549     0.028603971852    12.000000000000
         C           -0.457422599574     0.047057395549     0.019791971852    12.000000000000
         C            1.887255400426     1.094326395549     0.434412971852    12.000000000000
         C           -1.202809599574     1.202512395549    -0.268598028148    12.000000000000
         C           -1.142962599574    -1.148586604451     0.295627971852    12.000000000000
         C            3.105150400426    -0.669558604451    -0.275754028148    12.000000000000
         C            3.202703400426     0.610969395549     0.242543971852    12.000000000000
         C           -2.596150599574     1.164681395549    -0.267556028148    12.000000000000
         C           -2.537022599574    -1.188470604451     0.271048971852    12.000000000000
         C           -3.269256599574    -0.032368604451    -0.008073028148    12.000000000000
         H            1.392802400426    -1.793602604451    -0.830354028148     1.007825032230
         H            1.600964400426     2.046014395549     0.864416971852     1.007825032230
         H           -0.677932599574     2.125436395549    -0.505596028148     1.007825032230
         H           -0.581266599574    -2.040637604451     0.568273971852     1.007825032230
         H            3.864979400426    -1.377872604451    -0.576185028148     1.007825032230
         H            4.124927400426     1.129032395549     0.471383971852     1.007825032230
         H           -3.159458599574     2.067883395549    -0.491131028148     1.007825032230
         H           -3.053317599574    -2.120915604451     0.488252971852     1.007825032230
         H           -4.356030599574    -0.062581604451    -0.018503028148     1.007825032230

  Basis Set: AUG-CC-PVTZ
    Blend: AUG-CC-PVTZ
  Basis Set: (AUG-CC-PVTZ AUX)
    Blend: AUG-CC-PVTZ-JKFIT
	 Reference Energy          =    -438.5057145596543933 [Eh]
	 Singles Energy            =      -0.0000000000000000 [Eh]
	 Same-Spin Energy          =      -0.4948185800597957 [Eh]
	 Opposite-Spin Energy      =      -1.5254203194266691 [Eh]
	 Correlation Energy        =      -2.0202388994864648 [Eh]
	 Total Energy              =    -440.5259534591408510 [Eh]

	 ================> DF-SCS-MP2 Energies <==================
	-----------------------------------------------------------
	 SCS Same-Spin Scale       =       0.3333333333333333 [-]
	 SCS Opposite-Spin Scale   =       1.2000000000000000 [-]
	 SCS Same-Spin Energy      =      -0.1649395266865986 [Eh]
	 SCS Opposite-Spin Energy  =      -1.8305043833120029 [Eh]
	 SCS Correlation Energy    =      -1.9954439099986014 [Eh]
	 SCS Total Energy          =    -440.5011584696529781 [Eh]
	-----------------------------------------------------------

  Dipole Moment: [D]
     X:    -0.4174      Y:    -1.2093      Z:    -0.6055     Total:     1.4154

*** Psi4 exiting successfully. Buy a developer a beer!
