                               Psi4 1.3.2 release

  ==> Input File <==

--------------------------------------------------------------------------
#psi4
#
memory 32 gb

molecule  {
0 1
  N        1.7773000    -0.9706020    -0.3863220
  C        1.0080060     0.0962300     0.0271750
  C       -0.4435820    -0.0505507    -0.0207478
  C        1.8938950     1.0905280     0.4329840
  C       -1.1961700     1.1987140    -0.2700270
  C       -1.1363230    -1.1523850     0.2941990
  C        3.1117900    -0.6733570    -0.2771830
  C        3.2093430     0.6071710     0.2411150
  C       -2.5895110     1.1608830    -0.2689850
  C       -2.5303830    -1.1922690     0.2696200
  C       -3.2626170    -0.0361670    -0.0095020
  H        1.3994420    -1.7974010    -0.8317830
  H        1.6076040     2.0422160     0.8629880
  H       -0.6712930     2.1216380    -0.5070250
  H       -0.5746270    -2.0444360     0.5668450
  H        3.8716190    -1.3816710    -0.5776140
  H        4.1315670     1.1252340     0.4699550
  H       -3.1528190     2.0640850    -0.4925600
  H       -3.0466780    -2.1247140     0.4868240
  H       -4.3493910    -0.0663800    -0.0199320
units angstrom
no_reorient  #important for SAPT in psi4, default
symmetry c1  #important for SAPT in psi4, default
}

set PROPERTIES_ORIGIN ["COM"]
properties('MP2/aug-cc-pvtz', properties = ['dipole'])
--------------------------------------------------------------------------

    Molecular point group: c1
  Charge       = 0
  Multiplicity = 1
  Basis Set: AUG-CC-PVTZ
    Blend: AUG-CC-PVTZ
  Basis Set: (AUG-CC-PVTZ AUX)
    Blend: AUG-CC-PVTZ-JKFIT

    Orbital Energies [Eh]
    ---------------------

    Doubly Occupied:

       1A    -15.606396     2A    -11.262978     3A    -11.256043
       4A    -11.252734     5A    -11.244954     6A    -11.241805
       7A    -11.239767     8A    -11.238332     9A    -11.234213
      10A    -11.215413    11A    -11.213739    12A     -1.294310
      13A     -1.156629    14A     -1.049123    15A     -1.044750
      16A     -1.015632    17A     -0.959409    18A     -0.840429
      19A     -0.829532    20A     -0.787653    21A     -0.766771
      22A     -0.734236    23A     -0.680990    24A     -0.631951
      25A     -0.630633    26A     -0.593301    27A     -0.592675
      28A     -0.576729    29A     -0.568816    30A     -0.550428
      31A     -0.537455    32A     -0.508205    33A     -0.503491
      34A     -0.485324    35A     -0.366836    36A     -0.350952
      37A     -0.338247    38A     -0.273870

  @DF-RHF Final Energy:  -438.49904002601147

   => Energetics <=

    Nuclear Repulsion Energy =            536.8835270610047701
    One-Electron Energy =               -1657.4156289342938635
    Two-Electron Energy =                 682.0330618472776223
    Total Energy =                       -438.4990400260114711
  Basis Set: (AUG-CC-PVTZ AUX)
    Blend: AUG-CC-PVTZ-RI
    Molecular point group: c1

    Geometry (in Angstrom), charge = 0, multiplicity = 1:

       Center              X                  Y                   Z               Mass
    ------------   -----------------  -----------------  -----------------  -----------------
         N            1.771216944089    -0.963139026605    -0.383326685199    14.003074004430
         C            1.001922944089     0.103692973395     0.030170314801    12.000000000000
         C           -0.449665055911    -0.043087726605    -0.017752485199    12.000000000000
         C            1.887811944089     1.097990973395     0.435979314801    12.000000000000
         C           -1.202253055911     1.206176973395    -0.267031685199    12.000000000000
         C           -1.142406055911    -1.144922026605     0.297194314801    12.000000000000
         C            3.105706944089    -0.665894026605    -0.274187685199    12.000000000000
         C            3.203259944089     0.614633973395     0.244110314801    12.000000000000
         C           -2.595594055911     1.168345973395    -0.265989685199    12.000000000000
         C           -2.536466055911    -1.184806026605     0.272615314801    12.000000000000
         C           -3.268700055911    -0.028704026605    -0.006506685199    12.000000000000
         H            1.393358944089    -1.789938026605    -0.828787685199     1.007825032230
         H            1.601520944089     2.049678973395     0.865983314801     1.007825032230
         H           -0.677376055911     2.129100973395    -0.504029685199     1.007825032230
         H           -0.580710055911    -2.036973026605     0.569840314801     1.007825032230
         H            3.865535944089    -1.374208026605    -0.574618685199     1.007825032230
         H            4.125483944089     1.132696973395     0.472950314801     1.007825032230
         H           -3.158902055911     2.071547973395    -0.489564685199     1.007825032230
         H           -3.052761055911    -2.117251026605     0.489819314801     1.007825032230
         H           -4.355474055911    -0.058917026605    -0.016936685199     1.007825032230

  Basis Set: AUG-CC-PVTZ
    Blend: AUG-CC-PVTZ
  Basis Set: (AUG-CC-PVTZ AUX)
    Blend: AUG-CC-PVTZ-JKFIT
	 Reference Energy          =    -438.4990400260114711 [Eh]
	 Singles Energy            =      -0.0000000000000000 [Eh]
	 Same-Spin Energy          =      -0.4951993612097538 [Eh]
	 Opposite-Spin Energy      =      -1.5258966377781538 [Eh]
	 Correlation Energy        =      -2.0210959989879074 [Eh]
	 Total Energy              =    -440.5201360249993741 [Eh]

	 ================> DF-SCS-MP2 Energies <==================
	-----------------------------------------------------------
	 SCS Same-Spin Scale       =       0.3333333333333333 [-]
	 SCS Opposite-Spin Scale   =       1.2000000000000000 [-]
	 SCS Same-Spin Energy      =      -0.1650664537365846 [Eh]
	 SCS Opposite-Spin Energy  =      -1.8310759653337845 [Eh]
	 SCS Correlation Energy    =      -1.9961424190703689 [Eh]
	 SCS Total Energy          =    -440.4951824450818663 [Eh]
	-----------------------------------------------------------

  Dipole Moment: [D]
     X:    -0.4494      Y:    -1.3003      Z:    -0.6326     Total:     1.5143

*** Psi4 exiting successfully. Buy a developer a beer!
