                               Psi4 1.4a3.dev225

  ==> Input File <==

--------------------------------------------------------------------------
#psi4
#
memory 32 gb

molecule  {
0 1
  N        1.7773000    -0.9706020    -0.3863220
  C        1.0080060     0.0962300     0.0271750
  C       -0.4507830     0.0432590     0.0183630
  C        1.8938950     1.0905280     0.4329840
  C       -1.1961700     1.1987140    -0.2700270
  C       -1.1363230    -1.1523850     0.2941990
  C        3.1117900    -0.6733570    -0.2771830
  C        3.2279423     0.6003368     0.2384021
  C       -2.5895110     1.1608830    -0.2689850
  C       -2.5303830    -1.1922690     0.2696200
  C       -3.2626170    -0.0361670    -0.0095020
  H        1.3994420    -1.7974010    -0.8317830
  H        1.6076040     2.0422160     0.8629880
  H       -0.6712930     2.1216380    -0.5070250
  H       -0.5746270    -2.0444360     0.5668450
  H        3.8716190    -1.3816710    -0.5776140
  H        4.1315670     1.1252340     0.4699550
  H       -3.1528190     2.0640850    -0.4925600
  H       -3.0466780    -2.1247140     0.4868240
  H       -4.3493910    -0.0663800    -0.0199320
units angstrom
no_reorient  #important for SAPT in psi4, default
symmetry c1  #important for SAPT in psi4, default
}

set PROPERTIES_ORIGIN ["COM"]
properties('MP2/aug-cc-pvtz', properties = ['dipole'])
--------------------------------------------------------------------------

    Molecular point group: c1
  Charge       = 0
  Multiplicity = 1
  Basis Set: AUG-CC-PVTZ
    Blend: AUG-CC-PVTZ
  Basis Set: (AUG-CC-PVTZ AUX)
    Blend: AUG-CC-PVTZ-JKFIT

    Orbital Energies [Eh]
    ---------------------

    Doubly Occupied:

       1A    -15.607288     2A    -11.262556     3A    -11.256834
       4A    -11.253339     5A    -11.242138     6A    -11.240829
       7A    -11.240646     8A    -11.238117     9A    -11.237838
      10A    -11.214823    11A    -11.213376    12A     -1.293354
      13A     -1.156288    14A     -1.048469    15A     -1.040910
      16A     -1.016803    17A     -0.960010    18A     -0.837756
      19A     -0.832379    20A     -0.788071    21A     -0.765731
      22A     -0.735246    23A     -0.679934    24A     -0.633312
      25A     -0.629695    26A     -0.594516    27A     -0.589348
      28A     -0.582760    29A     -0.568949    30A     -0.553320
      31A     -0.532455    32A     -0.504690    33A     -0.500583
      34A     -0.494402    35A     -0.363687    36A     -0.347988
      37A     -0.341425    38A     -0.274957

  @DF-RHF Final Energy:  -438.50900061088436

   => Energetics <=

    Nuclear Repulsion Energy =            536.5501571541747126
    One-Electron Energy =               -1656.7686717778517504
    Two-Electron Energy =                 681.7095140127927380
    Total Energy =                       -438.5090006108842999
  Basis Set: (AUG-CC-PVTZ AUX)
    Blend: AUG-CC-PVTZ-RI
    Molecular point group: c1

    Geometry (in Angstrom), charge = 0, multiplicity = 1:

       Center              X                  Y                   Z               Mass
    ------------   -----------------  -----------------  -----------------  -----------------
         N            1.770260934760    -0.970433920524    -0.386379485348    14.003074004430
         C            1.000966934760     0.096398079476     0.027117514652    12.000000000000
         C           -0.457822065240     0.043427079476     0.018305514652    12.000000000000
         C            1.886855934760     1.090696079476     0.432926514652    12.000000000000
         C           -1.203209065240     1.198882079476    -0.270084485348    12.000000000000
         C           -1.143362065240    -1.152216920524     0.294141514652    12.000000000000
         C            3.104750934760    -0.673188920524    -0.277240485348    12.000000000000
         C            3.220903234760     0.600504879476     0.238344614652    12.000000000000
         C           -2.596550065240     1.161051079476    -0.269042485348    12.000000000000
         C           -2.537422065240    -1.192100920524     0.269562514652    12.000000000000
         C           -3.269656065240    -0.035998920524    -0.009559485348    12.000000000000
         H            1.392402934760    -1.797232920524    -0.831840485348     1.007825032230
         H            1.600564934760     2.042384079476     0.862930514652     1.007825032230
         H           -0.678332065240     2.121806079476    -0.507082485348     1.007825032230
         H           -0.581666065240    -2.044267920524     0.566787514652     1.007825032230
         H            3.864579934760    -1.381502920524    -0.577671485348     1.007825032230
         H            4.124527934760     1.125402079476     0.469897514652     1.007825032230
         H           -3.159858065240     2.064253079476    -0.492617485348     1.007825032230
         H           -3.053717065240    -2.124545920524     0.486766514652     1.007825032230
         H           -4.356430065240    -0.066211920524    -0.019989485348     1.007825032230

  Basis Set: AUG-CC-PVTZ
    Blend: AUG-CC-PVTZ
  Basis Set: (AUG-CC-PVTZ AUX)
    Blend: AUG-CC-PVTZ-JKFIT
	 Reference Energy          =    -438.5090006108843568 [Eh]
	 Singles Energy            =      -0.0000000000000000 [Eh]
	 Same-Spin Energy          =      -0.4949138922319622 [Eh]
	 Opposite-Spin Energy      =      -1.5250571870981156 [Eh]
	 Correlation Energy        =      -2.0199710793300776 [Eh]
	 Total Energy              =    -440.5289716902144619 [Eh]

	 ================> DF-SCS-MP2 Energies <==================
	-----------------------------------------------------------
	 SCS Same-Spin Scale       =       0.3333333333333333 [-]
	 SCS Opposite-Spin Scale   =       1.2000000000000000 [-]
	 SCS Same-Spin Energy      =      -0.1649712974106541 [Eh]
	 SCS Opposite-Spin Energy  =      -1.8300686245177387 [Eh]
	 SCS Correlation Energy    =      -1.9950399219283927 [Eh]
	 SCS Total Energy          =    -440.5040405328127235 [Eh]
	-----------------------------------------------------------

  Dipole Moment: [D]
     X:    -0.4661      Y:    -1.3170      Z:    -0.6462     Total:     1.5392

*** Psi4 exiting successfully. Buy a developer a beer!
