                               Psi4 1.3.2 release

  ==> Input File <==

--------------------------------------------------------------------------
#psi4
#
memory 32 gb

molecule  {
0 1
  N        1.7773000    -0.9706020    -0.3863220
  C        1.0080060     0.0962300     0.0271750
  C       -0.4507830     0.0432590     0.0183630
  C        1.8938950     1.0905280     0.4329840
  C       -1.3165501     1.1161687    -0.2521162
  C       -1.1363230    -1.1523850     0.2941990
  C        3.1117900    -0.6733570    -0.2771830
  C        3.2093430     0.6071710     0.2411150
  C       -2.5895110     1.1608830    -0.2689850
  C       -2.5303830    -1.1922690     0.2696200
  C       -3.2626170    -0.0361670    -0.0095020
  H        1.3994420    -1.7974010    -0.8317830
  H        1.6076040     2.0422160     0.8629880
  H       -0.6712930     2.1216380    -0.5070250
  H       -0.5746270    -2.0444360     0.5668450
  H        3.8716190    -1.3816710    -0.5776140
  H        4.1315670     1.1252340     0.4699550
  H       -3.1528190     2.0640850    -0.4925600
  H       -3.0466780    -2.1247140     0.4868240
  H       -4.3493910    -0.0663800    -0.0199320
units angstrom
no_reorient  #important for SAPT in psi4, default
symmetry c1  #important for SAPT in psi4, default
}

set PROPERTIES_ORIGIN ["COM"]
properties('MP2/aug-cc-pvtz', properties = ['dipole'])
--------------------------------------------------------------------------

    Molecular point group: c1
  Charge       = 0
  Multiplicity = 1
  Basis Set: AUG-CC-PVTZ
    Blend: AUG-CC-PVTZ
  Basis Set: (AUG-CC-PVTZ AUX)
    Blend: AUG-CC-PVTZ-JKFIT

    Orbital Energies [Eh]
    ---------------------

    Doubly Occupied:

       1A    -15.610124     2A    -11.265291     3A    -11.258438
       4A    -11.253357     5A    -11.240737     6A    -11.238885
       7A    -11.237702     8A    -11.235256     9A    -11.224787
      10A    -11.215262    11A    -11.214114    12A     -1.295678
      13A     -1.170146    14A     -1.051142    15A     -1.045769
      16A     -1.025729    17A     -0.960776    18A     -0.845736
      19A     -0.821771    20A     -0.790757    21A     -0.765948
      22A     -0.740131    23A     -0.678560    24A     -0.640077
      25A     -0.624618    26A     -0.593271    27A     -0.591329
      28A     -0.574625    29A     -0.572939    30A     -0.549375
      31A     -0.537006    32A     -0.516251    33A     -0.511136
      34A     -0.459614    35A     -0.364290    36A     -0.354050
      37A     -0.350519    38A     -0.273204

  @DF-RHF Final Energy:  -438.48028753065904

   => Energetics <=

    Nuclear Repulsion Energy =            538.3088796684334056
    One-Electron Energy =               -1660.1815374860861994
    Two-Electron Energy =                 683.3923702869938097
    Total Energy =                       -438.4802875306590977
  Basis Set: (AUG-CC-PVTZ AUX)
    Blend: AUG-CC-PVTZ-RI
    Molecular point group: c1

    Geometry (in Angstrom), charge = 0, multiplicity = 1:

       Center              X                  Y                   Z               Mass
    ------------   -----------------  -----------------  -----------------  -----------------
         N            1.781917550474    -0.964083805342    -0.388109256419    14.003074004430
         C            1.012623550474     0.102748194658     0.025387743581    12.000000000000
         C           -0.446165449526     0.049777194658     0.016575743581    12.000000000000
         C            1.898512550474     1.097046194658     0.431196743581    12.000000000000
         C           -1.311932549526     1.122686894658    -0.253903456419    12.000000000000
         C           -1.131705449526    -1.145866805342     0.292411743581    12.000000000000
         C            3.116407550474    -0.666838805342    -0.278970256419    12.000000000000
         C            3.213960550474     0.613689194658     0.239327743581    12.000000000000
         C           -2.584893449526     1.167401194658    -0.270772256419    12.000000000000
         C           -2.525765449526    -1.185750805342     0.267832743581    12.000000000000
         C           -3.257999449526    -0.029648805342    -0.011289256419    12.000000000000
         H            1.404059550474    -1.790882805342    -0.833570256419     1.007825032230
         H            1.612221550474     2.048734194658     0.861200743581     1.007825032230
         H           -0.666675449526     2.128156194658    -0.508812256419     1.007825032230
         H           -0.570009449526    -2.037917805342     0.565057743581     1.007825032230
         H            3.876236550474    -1.375152805342    -0.579401256419     1.007825032230
         H            4.136184550474     1.131752194658     0.468167743581     1.007825032230
         H           -3.148201449526     2.070603194658    -0.494347256419     1.007825032230
         H           -3.042060449526    -2.118195805342     0.485036743581     1.007825032230
         H           -4.344773449526    -0.059861805342    -0.021719256419     1.007825032230

  Basis Set: AUG-CC-PVTZ
    Blend: AUG-CC-PVTZ
  Basis Set: (AUG-CC-PVTZ AUX)
    Blend: AUG-CC-PVTZ-JKFIT
	 Reference Energy          =    -438.4802875306590408 [Eh]
	 Singles Energy            =      -0.0000000000000000 [Eh]
	 Same-Spin Energy          =      -0.4957726059898456 [Eh]
	 Opposite-Spin Energy      =      -1.5262617487164623 [Eh]
	 Correlation Energy        =      -2.0220343547063080 [Eh]
	 Total Energy              =    -440.5023218853653475 [Eh]

	 ================> DF-SCS-MP2 Energies <==================
	-----------------------------------------------------------
	 SCS Same-Spin Scale       =       0.3333333333333333 [-]
	 SCS Opposite-Spin Scale   =       1.2000000000000000 [-]
	 SCS Same-Spin Energy      =      -0.1652575353299485 [Eh]
	 SCS Opposite-Spin Energy  =      -1.8315140984597547 [Eh]
	 SCS Correlation Energy    =      -1.9967716337897032 [Eh]
	 SCS Total Energy          =    -440.4770591644487467 [Eh]
	-----------------------------------------------------------

  Dipole Moment: [D]
     X:    -0.3760      Y:    -1.3855      Z:    -0.6216     Total:     1.5644

*** Psi4 exiting successfully. Buy a developer a beer!
