                               Psi4 1.3.2 release

  ==> Input File <==

--------------------------------------------------------------------------
#psi4
#
memory 32 gb

molecule  {
0 1
  N        1.7773000    -0.9706020    -0.3863220
  C        1.0051831    -0.0523302     0.0627981
  C       -0.4507830     0.0432590     0.0183630
  C        1.8938950     1.0905280     0.4329840
  C       -1.1961700     1.1987140    -0.2700270
  C       -1.1363230    -1.1523850     0.2941990
  C        3.1117900    -0.6733570    -0.2771830
  C        3.2093430     0.6071710     0.2411150
  C       -2.5895110     1.1608830    -0.2689850
  C       -2.5303830    -1.1922690     0.2696200
  C       -3.2626170    -0.0361670    -0.0095020
  H        1.3994420    -1.7974010    -0.8317830
  H        1.6076040     2.0422160     0.8629880
  H       -0.6712930     2.1216380    -0.5070250
  H       -0.5746270    -2.0444360     0.5668450
  H        3.8716190    -1.3816710    -0.5776140
  H        4.1315670     1.1252340     0.4699550
  H       -3.1528190     2.0640850    -0.4925600
  H       -3.0466780    -2.1247140     0.4868240
  H       -4.3493910    -0.0663800    -0.0199320
units angstrom
no_reorient  #important for SAPT in psi4, default
symmetry c1  #important for SAPT in psi4, default
}

set PROPERTIES_ORIGIN ["COM"]
properties('MP2/aug-cc-pvtz', properties = ['dipole'])
--------------------------------------------------------------------------

    Molecular point group: c1
  Charge       = 0
  Multiplicity = 1
  Basis Set: AUG-CC-PVTZ
    Blend: AUG-CC-PVTZ
  Basis Set: (AUG-CC-PVTZ AUX)
    Blend: AUG-CC-PVTZ-JKFIT

    Orbital Energies [Eh]
    ---------------------

    Doubly Occupied:

       1A    -15.620370     2A    -11.266705     3A    -11.255274
       4A    -11.248034     5A    -11.242883     6A    -11.242148
       7A    -11.241197     8A    -11.240110     9A    -11.239053
      10A    -11.216702    11A    -11.213345    12A     -1.324517
      13A     -1.157703    14A     -1.050657    15A     -1.040369
      16A     -1.018073    17A     -0.957911    18A     -0.839081
      19A     -0.833247    20A     -0.797801    21A     -0.770841
      22A     -0.736938    23A     -0.680097    24A     -0.638027
      25A     -0.631332    26A     -0.602388    27A     -0.593466
      28A     -0.588956    29A     -0.576663    30A     -0.541202
      31A     -0.530686    32A     -0.507658    33A     -0.501420
      34A     -0.482473    35A     -0.362867    36A     -0.349435
      37A     -0.342518    38A     -0.263652

  @DF-RHF Final Energy:  -438.48654085105773

   => Energetics <=

    Nuclear Repulsion Energy =            537.2000225019120307
    One-Electron Energy =               -1657.8815274852679522
    Two-Electron Energy =                 682.1949641322980824
    Total Energy =                       -438.4865408510577254
  Basis Set: (AUG-CC-PVTZ AUX)
    Blend: AUG-CC-PVTZ-RI
    Molecular point group: c1

    Geometry (in Angstrom), charge = 0, multiplicity = 1:

       Center              X                  Y                   Z               Mass
    ------------   -----------------  -----------------  -----------------  -----------------
         N            1.772057678401    -0.958546939299    -0.389594839710    14.003074004430
         C            0.999940778401    -0.040275139299     0.059525260290    12.000000000000
         C           -0.456025321599     0.055314060701     0.015090160290    12.000000000000
         C            1.888652678401     1.102583060701     0.429711160290    12.000000000000
         C           -1.201412321599     1.210769060701    -0.273299839710    12.000000000000
         C           -1.141565321599    -1.140329939299     0.290926160290    12.000000000000
         C            3.106547678401    -0.661301939299    -0.280455839710    12.000000000000
         C            3.204100678401     0.619226060701     0.237842160290    12.000000000000
         C           -2.594753321599     1.172938060701    -0.272257839710    12.000000000000
         C           -2.535625321599    -1.180213939299     0.266347160290    12.000000000000
         C           -3.267859321599    -0.024111939299    -0.012774839710    12.000000000000
         H            1.394199678401    -1.785345939299    -0.835055839710     1.007825032230
         H            1.602361678401     2.054271060701     0.859715160290     1.007825032230
         H           -0.676535321599     2.133693060701    -0.510297839710     1.007825032230
         H           -0.579869321599    -2.032380939299     0.563572160290     1.007825032230
         H            3.866376678401    -1.369615939299    -0.580886839710     1.007825032230
         H            4.126324678401     1.137289060701     0.466682160290     1.007825032230
         H           -3.158061321599     2.076140060701    -0.495832839710     1.007825032230
         H           -3.051920321599    -2.112658939299     0.483551160290     1.007825032230
         H           -4.354633321599    -0.054324939299    -0.023204839710     1.007825032230

  Basis Set: AUG-CC-PVTZ
    Blend: AUG-CC-PVTZ
  Basis Set: (AUG-CC-PVTZ AUX)
    Blend: AUG-CC-PVTZ-JKFIT
	 Reference Energy          =    -438.4865408510577254 [Eh]
	 Singles Energy            =      -0.0000000000000000 [Eh]
	 Same-Spin Energy          =      -0.4968436953353457 [Eh]
	 Opposite-Spin Energy      =      -1.5269249988355857 [Eh]
	 Correlation Energy        =      -2.0237686941709314 [Eh]
	 Total Energy              =    -440.5103095452286652 [Eh]

	 ================> DF-SCS-MP2 Energies <==================
	-----------------------------------------------------------
	 SCS Same-Spin Scale       =       0.3333333333333333 [-]
	 SCS Opposite-Spin Scale   =       1.2000000000000000 [-]
	 SCS Same-Spin Energy      =      -0.1656145651117819 [Eh]
	 SCS Opposite-Spin Energy  =      -1.8323099986027027 [Eh]
	 SCS Correlation Energy    =      -1.9979245637144847 [Eh]
	 SCS Total Energy          =    -440.4844654147722167 [Eh]
	-----------------------------------------------------------

  Dipole Moment: [D]
     X:    -0.4421      Y:    -1.4583      Z:    -0.7467     Total:     1.6969

*** Psi4 exiting successfully. Buy a developer a beer!
