                               Psi4 1.4a3.dev225

  ==> Input File <==

--------------------------------------------------------------------------
#psi4
#
memory 32 gb

molecule  {
0 1
  N        1.7773000    -0.9706020    -0.3863220
  C        1.0080060     0.0962300     0.0271750
  C       -0.4507830     0.0432590     0.0183630
  C        1.8938950     1.0905280     0.4329840
  C       -1.1961700     1.1987140    -0.2700270
  C       -1.1363230    -1.1523850     0.2941990
  C        3.1117900    -0.6733570    -0.2771830
  C        3.2093430     0.6071710     0.2411150
  C       -2.5895110     1.1608830    -0.2689850
  C       -2.5303830    -1.1922690     0.2696200
  C       -3.2626170    -0.0361670    -0.0095020
  H        1.3994420    -1.7974010    -0.8317830
  H        1.6128917     2.0246386     0.8550460
  H       -0.6712930     2.1216380    -0.5070250
  H       -0.5746270    -2.0444360     0.5668450
  H        3.8716190    -1.3816710    -0.5776140
  H        4.1315670     1.1252340     0.4699550
  H       -3.1528190     2.0640850    -0.4925600
  H       -3.0466780    -2.1247140     0.4868240
  H       -4.3493910    -0.0663800    -0.0199320
units angstrom
no_reorient  #important for SAPT in psi4, default
symmetry c1  #important for SAPT in psi4, default
}

set PROPERTIES_ORIGIN ["COM"]
properties('MP2/aug-cc-pvtz', properties = ['dipole'])
--------------------------------------------------------------------------

    Molecular point group: c1
  Charge       = 0
  Multiplicity = 1
  Basis Set: AUG-CC-PVTZ
    Blend: AUG-CC-PVTZ
  Basis Set: (AUG-CC-PVTZ AUX)
    Blend: AUG-CC-PVTZ-JKFIT

    Orbital Energies [Eh]
    ---------------------

    Doubly Occupied:

       1A    -15.608156     2A    -11.261947     3A    -11.256489
       4A    -11.253229     5A    -11.242024     6A    -11.240741
       7A    -11.240480     8A    -11.237954     9A    -11.237681
      10A    -11.213399    11A    -11.210812    12A     -1.294024
      13A     -1.156165    14A     -1.049132    15A     -1.043015
      16A     -1.016803    17A     -0.959350    18A     -0.838124
      19A     -0.832240    20A     -0.789107    21A     -0.766742
      22A     -0.735351    23A     -0.679892    24A     -0.633294
      25A     -0.629880    26A     -0.594368    27A     -0.588995
      28A     -0.583083    29A     -0.569326    30A     -0.550581
      31A     -0.537957    32A     -0.504582    33A     -0.500774
      34A     -0.494396    35A     -0.363415    36A     -0.350114
      37A     -0.341359    38A     -0.273304

  @DF-RHF Final Energy:  -438.50900369874756

   => Energetics <=

    Nuclear Repulsion Energy =            536.9299006380409764
    One-Electron Energy =               -1657.5212383303453407
    Two-Electron Energy =                 682.0823339935568583
    Total Energy =                       -438.5090036987476196
  Basis Set: (AUG-CC-PVTZ AUX)
    Blend: AUG-CC-PVTZ-RI
    Molecular point group: c1

    Geometry (in Angstrom), charge = 0, multiplicity = 1:

       Center              X                  Y                   Z               Mass
    ------------   -----------------  -----------------  -----------------  -----------------
         N            1.771783666256    -0.970883308123    -0.386551080044    14.003074004430
         C            1.002489666256     0.095948691877     0.026945919956    12.000000000000
         C           -0.456299333744     0.042977691877     0.018133919956    12.000000000000
         C            1.888378666256     1.090246691877     0.432754919956    12.000000000000
         C           -1.201686333744     1.198432691877    -0.270256080044    12.000000000000
         C           -1.141839333744    -1.152666308123     0.293969919956    12.000000000000
         C            3.106273666256    -0.673638308123    -0.277412080044    12.000000000000
         C            3.203826666256     0.606889691877     0.240885919956    12.000000000000
         C           -2.595027333744     1.160601691877    -0.269214080044    12.000000000000
         C           -2.535899333744    -1.192550308123     0.269390919956    12.000000000000
         C           -3.268133333744    -0.036448308123    -0.009731080044    12.000000000000
         H            1.393925666256    -1.797682308123    -0.832012080044     1.007825032230
         H            1.607375366256     2.024357291877     0.854816919956     1.007825032230
         H           -0.676809333744     2.121356691877    -0.507254080044     1.007825032230
         H           -0.580143333744    -2.044717308123     0.566615919956     1.007825032230
         H            3.866102666256    -1.381952308123    -0.577843080044     1.007825032230
         H            4.126050666256     1.124952691877     0.469725919956     1.007825032230
         H           -3.158335333744     2.063803691877    -0.492789080044     1.007825032230
         H           -3.052194333744    -2.124995308123     0.486594919956     1.007825032230
         H           -4.354907333744    -0.066661308123    -0.020161080044     1.007825032230

  Basis Set: AUG-CC-PVTZ
    Blend: AUG-CC-PVTZ
  Basis Set: (AUG-CC-PVTZ AUX)
    Blend: AUG-CC-PVTZ-JKFIT
	 Reference Energy          =    -438.5090036987475628 [Eh]
	 Singles Energy            =      -0.0000000000000000 [Eh]
	 Same-Spin Energy          =      -0.4952190433591930 [Eh]
	 Opposite-Spin Energy      =      -1.5251926945599372 [Eh]
	 Correlation Energy        =      -2.0204117379191304 [Eh]
	 Total Energy              =    -440.5294154366666817 [Eh]

	 ================> DF-SCS-MP2 Energies <==================
	-----------------------------------------------------------
	 SCS Same-Spin Scale       =       0.3333333333333333 [-]
	 SCS Opposite-Spin Scale   =       1.2000000000000000 [-]
	 SCS Same-Spin Energy      =      -0.1650730144530643 [Eh]
	 SCS Opposite-Spin Energy  =      -1.8302312334719246 [Eh]
	 SCS Correlation Energy    =      -1.9953042479249889 [Eh]
	 SCS Total Energy          =    -440.5043079466725544 [Eh]
	-----------------------------------------------------------

  Dipole Moment: [D]
     X:    -0.4540      Y:    -1.3170      Z:    -0.6467     Total:     1.5359

*** Psi4 exiting successfully. Buy a developer a beer!
