                               Psi4 1.4a3.dev225

  ==> Input File <==

--------------------------------------------------------------------------
#psi4
#
memory 32 gb

molecule  {
0 1
  N        1.7773000    -0.9706020    -0.3863220
  C        1.0080060     0.0962300     0.0271750
  C       -0.4507830     0.0432590     0.0183630
  C        1.8938950     1.0905280     0.4329840
  C       -1.1961700     1.1987140    -0.2700270
  C       -1.1363230    -1.1523850     0.2941990
  C        3.1117900    -0.6733570    -0.2771830
  C        3.2093430     0.6071710     0.2411150
  C       -2.5895110     1.1608830    -0.2689850
  C       -2.5303830    -1.1922690     0.2696200
  C       -3.2626170    -0.0361670    -0.0095020
  H        1.3994420    -1.7974010    -0.8317830
  H        1.6076040     2.0422160     0.8629880
  H       -0.6712930     2.1216380    -0.5070250
  H       -0.5746270    -2.0444360     0.5668450
  H        3.8856724    -1.3947716    -0.5831706
  H        4.1315670     1.1252340     0.4699550
  H       -3.1528190     2.0640850    -0.4925600
  H       -3.0466780    -2.1247140     0.4868240
  H       -4.3493910    -0.0663800    -0.0199320
units angstrom
no_reorient  #important for SAPT in psi4, default
symmetry c1  #important for SAPT in psi4, default
}

set PROPERTIES_ORIGIN ["COM"]
properties('MP2/aug-cc-pvtz', properties = ['dipole'])
--------------------------------------------------------------------------

    Molecular point group: c1
  Charge       = 0
  Multiplicity = 1
  Basis Set: AUG-CC-PVTZ
    Blend: AUG-CC-PVTZ
  Basis Set: (AUG-CC-PVTZ AUX)
    Blend: AUG-CC-PVTZ-JKFIT

    Orbital Energies [Eh]
    ---------------------

    Doubly Occupied:

       1A    -15.608432     2A    -11.262168     3A    -11.258877
       4A    -11.253264     5A    -11.242032     6A    -11.240740
       7A    -11.240496     8A    -11.237956     9A    -11.237684
      10A    -11.214047    11A    -11.212940    12A     -1.294240
      13A     -1.156170    14A     -1.048893    15A     -1.042948
      16A     -1.016805    17A     -0.958525    18A     -0.837391
      19A     -0.832217    20A     -0.788596    21A     -0.764377
      22A     -0.734101    23A     -0.679106    24A     -0.632424
      25A     -0.629720    26A     -0.593647    27A     -0.588892
      28A     -0.581783    29A     -0.569379    30A     -0.549567
      31A     -0.535989    32A     -0.504569    33A     -0.500826
      34A     -0.494377    35A     -0.363481    36A     -0.350332
      37A     -0.341358    38A     -0.273417

  @DF-RHF Final Energy:  -438.50822060149267

   => Energetics <=

    Nuclear Repulsion Energy =            536.7275764550997792
    One-Electron Energy =               -1657.1280632460473043
    Two-Electron Energy =                 681.8922661894548582
    Total Energy =                       -438.5082206014926669
  Basis Set: (AUG-CC-PVTZ AUX)
    Blend: AUG-CC-PVTZ-RI
    Molecular point group: c1

    Geometry (in Angstrom), charge = 0, multiplicity = 1:

       Center              X                  Y                   Z               Mass
    ------------   -----------------  -----------------  -----------------  -----------------
         N            1.771721919728    -0.970914843181    -0.386567883057    14.003074004430
         C            1.002427919728     0.095917156819     0.026929116943    12.000000000000
         C           -0.456361080272     0.042946156819     0.018117116943    12.000000000000
         C            1.888316919728     1.090215156819     0.432738116943    12.000000000000
         C           -1.201748080272     1.198401156819    -0.270272883057    12.000000000000
         C           -1.141901080272    -1.152697843181     0.293953116943    12.000000000000
         C            3.106211919728    -0.673669843181    -0.277428883057    12.000000000000
         C            3.203764919728     0.606858156819     0.240869116943    12.000000000000
         C           -2.595089080272     1.160570156819    -0.269230883057    12.000000000000
         C           -2.535961080272    -1.192581843181     0.269374116943    12.000000000000
         C           -3.268195080272    -0.036479843181    -0.009747883057    12.000000000000
         H            1.393863919728    -1.797713843181    -0.832028883057     1.007825032230
         H            1.602025919728     2.041903156819     0.862742116943     1.007825032230
         H           -0.676871080272     2.121325156819    -0.507270883057     1.007825032230
         H           -0.580205080272    -2.044748843181     0.566599116943     1.007825032230
         H            3.880094319728    -1.395084443181    -0.583416483057     1.007825032230
         H            4.125988919728     1.124921156819     0.469709116943     1.007825032230
         H           -3.158397080272     2.063772156819    -0.492805883057     1.007825032230
         H           -3.052256080272    -2.125026843181     0.486578116943     1.007825032230
         H           -4.354969080272    -0.066692843181    -0.020177883057     1.007825032230

  Basis Set: AUG-CC-PVTZ
    Blend: AUG-CC-PVTZ
  Basis Set: (AUG-CC-PVTZ AUX)
    Blend: AUG-CC-PVTZ-JKFIT
	 Reference Energy          =    -438.5082206014926669 [Eh]
	 Singles Energy            =      -0.0000000000000000 [Eh]
	 Same-Spin Energy          =      -0.4952966491986476 [Eh]
	 Opposite-Spin Energy      =      -1.5254976790841779 [Eh]
	 Correlation Energy        =      -2.0207943282828253 [Eh]
	 Total Energy              =    -440.5290149297754851 [Eh]

	 ================> DF-SCS-MP2 Energies <==================
	-----------------------------------------------------------
	 SCS Same-Spin Scale       =       0.3333333333333333 [-]
	 SCS Opposite-Spin Scale   =       1.2000000000000000 [-]
	 SCS Same-Spin Energy      =      -0.1650988830662158 [Eh]
	 SCS Opposite-Spin Energy  =      -1.8305972149010135 [Eh]
	 SCS Correlation Energy    =      -1.9956960979672294 [Eh]
	 SCS Total Energy          =    -440.5039166994599213 [Eh]
	-----------------------------------------------------------

  Dipole Moment: [D]
     X:    -0.4529      Y:    -1.3177      Z:    -0.6469     Total:     1.5362

*** Psi4 exiting successfully. Buy a developer a beer!
