                               Psi4 1.4a3.dev225

  ==> Input File <==

--------------------------------------------------------------------------
#psi4
#
memory 32 gb

molecule  {
0 1
  N        1.7773000    -0.9706020    -0.3863220
  C        1.0080060     0.0962300     0.0271750
  C       -0.4507830     0.0432590     0.0183630
  C        1.8938950     1.0905280     0.4329840
  C       -1.1961700     1.1987140    -0.2700270
  C       -1.1363230    -1.1523850     0.2941990
  C        3.1117900    -0.6733570    -0.2771830
  C        3.2093430     0.6071710     0.2411150
  C       -2.5895110     1.1608830    -0.2689850
  C       -2.5303830    -1.1922690     0.2696200
  C       -3.2626170    -0.0361670    -0.0095020
  H        1.3807792    -1.8382375    -0.8537848
  H        1.6076040     2.0422160     0.8629880
  H       -0.6712930     2.1216380    -0.5070250
  H       -0.5746270    -2.0444360     0.5668450
  H        3.8716190    -1.3816710    -0.5776140
  H        4.1315670     1.1252340     0.4699550
  H       -3.1528190     2.0640850    -0.4925600
  H       -3.0466780    -2.1247140     0.4868240
  H       -4.3493910    -0.0663800    -0.0199320
units angstrom
no_reorient  #important for SAPT in psi4, default
symmetry c1  #important for SAPT in psi4, default
}

set PROPERTIES_ORIGIN ["COM"]
properties('MP2/aug-cc-pvtz', properties = ['dipole'])
--------------------------------------------------------------------------

    Molecular point group: c1
  Charge       = 0
  Multiplicity = 1
  Basis Set: AUG-CC-PVTZ
    Blend: AUG-CC-PVTZ
  Basis Set: (AUG-CC-PVTZ AUX)
    Blend: AUG-CC-PVTZ-JKFIT

    Orbital Energies [Eh]
    ---------------------

    Doubly Occupied:

       1A    -15.612620     2A    -11.261916     3A    -11.256437
       4A    -11.253082     5A    -11.241928     6A    -11.240620
       7A    -11.240357     8A    -11.237800     9A    -11.237533
      10A    -11.213673    11A    -11.212584    12A     -1.290736
      13A     -1.155969    14A     -1.047722    15A     -1.039357
      16A     -1.016489    17A     -0.959001    18A     -0.837233
      19A     -0.832070    20A     -0.779045    21A     -0.764152
      22A     -0.734587    23A     -0.679487    24A     -0.633099
      25A     -0.629218    26A     -0.591682    27A     -0.586872
      28A     -0.582295    29A     -0.568417    30A     -0.549108
      31A     -0.536558    32A     -0.504441    33A     -0.500664
      34A     -0.494186    35A     -0.363181    36A     -0.349597
      37A     -0.341247    38A     -0.273168

  @DF-RHF Final Energy:  -438.50492721570589

   => Energetics <=

    Nuclear Repulsion Energy =            536.5491151893382948
    One-Electron Energy =               -1656.8118257081000593
    Two-Electron Energy =                 681.7577833030557031
    Total Energy =                       -438.5049272157059477
  Basis Set: (AUG-CC-PVTZ AUX)
    Blend: AUG-CC-PVTZ-RI
    Molecular point group: c1

    Geometry (in Angstrom), charge = 0, multiplicity = 1:

       Center              X                  Y                   Z               Mass
    ------------   -----------------  -----------------  -----------------  -----------------
         N            1.771952376140    -0.970719468535    -0.386452041309    14.003074004430
         C            1.002658376140     0.096112531465     0.027044958691    12.000000000000
         C           -0.456130623860     0.043141531465     0.018232958691    12.000000000000
         C            1.888547376140     1.090410531465     0.432853958691    12.000000000000
         C           -1.201517623860     1.198596531465    -0.270157041309    12.000000000000
         C           -1.141670623860    -1.152502468535     0.294068958691    12.000000000000
         C            3.106442376140    -0.673474468535    -0.277313041309    12.000000000000
         C            3.203995376140     0.607053531465     0.240984958691    12.000000000000
         C           -2.594858623860     1.160765531465    -0.269115041309    12.000000000000
         C           -2.535730623860    -1.192386468535     0.269489958691    12.000000000000
         C           -3.267964623860    -0.036284468535    -0.009632041309    12.000000000000
         H            1.375431576140    -1.838354968535    -0.853914841309     1.007825032230
         H            1.602256376140     2.042098531465     0.862857958691     1.007825032230
         H           -0.676640623860     2.121520531465    -0.507155041309     1.007825032230
         H           -0.579974623860    -2.044553468535     0.566714958691     1.007825032230
         H            3.866271376140    -1.381788468535    -0.577744041309     1.007825032230
         H            4.126219376140     1.125116531465     0.469824958691     1.007825032230
         H           -3.158166623860     2.063967531465    -0.492690041309     1.007825032230
         H           -3.052025623860    -2.124831468535     0.486693958691     1.007825032230
         H           -4.354738623860    -0.066497468535    -0.020062041309     1.007825032230

  Basis Set: AUG-CC-PVTZ
    Blend: AUG-CC-PVTZ
  Basis Set: (AUG-CC-PVTZ AUX)
    Blend: AUG-CC-PVTZ-JKFIT
	 Reference Energy          =    -438.5049272157058908 [Eh]
	 Singles Energy            =      -0.0000000000000000 [Eh]
	 Same-Spin Energy          =      -0.4957071599541628 [Eh]
	 Opposite-Spin Energy      =      -1.5263344056540982 [Eh]
	 Correlation Energy        =      -2.0220415656082609 [Eh]
	 Total Energy              =    -440.5269687813141672 [Eh]

	 ================> DF-SCS-MP2 Energies <==================
	-----------------------------------------------------------
	 SCS Same-Spin Scale       =       0.3333333333333333 [-]
	 SCS Opposite-Spin Scale   =       1.2000000000000000 [-]
	 SCS Same-Spin Energy      =      -0.1652357199847209 [Eh]
	 SCS Opposite-Spin Energy  =      -1.8316012867849176 [Eh]
	 SCS Correlation Energy    =      -1.9968370067696386 [Eh]
	 SCS Total Energy          =    -440.5017642224755150 [Eh]
	-----------------------------------------------------------

  Dipole Moment: [D]
     X:    -0.4622      Y:    -1.3621      Z:    -0.6714     Total:     1.5874

*** Psi4 exiting successfully. Buy a developer a beer!
