                               Psi4 1.3.2 release

  ==> Input File <==

--------------------------------------------------------------------------
#psi4
#
memory 32 gb

molecule  {
0 1
  N        1.7773000    -0.9706020    -0.3863220
  C        1.0080060     0.0962300     0.0271750
  C       -0.4507830     0.0432590     0.0183630
  C        1.8938950     1.0905280     0.4329840
  C       -1.0676233     1.2685999    -0.2847781
  C       -1.1363230    -1.1523850     0.2941990
  C        3.1117900    -0.6733570    -0.2771830
  C        3.2093430     0.6071710     0.2411150
  C       -2.5895110     1.1608830    -0.2689850
  C       -2.5303830    -1.1922690     0.2696200
  C       -3.2626170    -0.0361670    -0.0095020
  H        1.3994420    -1.7974010    -0.8317830
  H        1.6076040     2.0422160     0.8629880
  H       -0.6712930     2.1216380    -0.5070250
  H       -0.5746270    -2.0444360     0.5668450
  H        3.8716190    -1.3816710    -0.5776140
  H        4.1315670     1.1252340     0.4699550
  H       -3.1528190     2.0640850    -0.4925600
  H       -3.0466780    -2.1247140     0.4868240
  H       -4.3493910    -0.0663800    -0.0199320
units angstrom
no_reorient  #important for SAPT in psi4, default
symmetry c1  #important for SAPT in psi4, default
}

set PROPERTIES_ORIGIN ["COM"]
properties('MP2/aug-cc-pvtz', properties = ['dipole'])
--------------------------------------------------------------------------

    Molecular point group: c1
  Charge       = 0
  Multiplicity = 1
  Basis Set: AUG-CC-PVTZ
    Blend: AUG-CC-PVTZ
  Basis Set: (AUG-CC-PVTZ AUX)
    Blend: AUG-CC-PVTZ-JKFIT

    Orbital Energies [Eh]
    ---------------------

    Doubly Occupied:

       1A    -15.606309     2A    -11.259277     3A    -11.256374
       4A    -11.254660     5A    -11.254646     6A    -11.246128
       7A    -11.242259     8A    -11.242066     9A    -11.238706
      10A    -11.212558    11A    -11.211144    12A     -1.292637
      13A     -1.148252    14A     -1.052191    15A     -1.041402
      16A     -1.007130    17A     -0.957652    18A     -0.846841
      19A     -0.831157    20A     -0.786628    21A     -0.764442
      22A     -0.733217    23A     -0.690402    24A     -0.646838
      25A     -0.626201    26A     -0.594411    27A     -0.588190
      28A     -0.582028    29A     -0.566154    30A     -0.547824
      31A     -0.536234    32A     -0.513337    33A     -0.496193
      34A     -0.482127    35A     -0.366636    36A     -0.349242
      37A     -0.329542    38A     -0.273463

  @DF-RHF Final Energy:  -438.47858062226328

   => Energetics <=

    Nuclear Repulsion Energy =            535.7527160563341795
    One-Electron Energy =               -1655.1135999417460880
    Two-Electron Energy =                 680.8823032631487422
    Total Energy =                       -438.4785806222632800
  Basis Set: (AUG-CC-PVTZ AUX)
    Blend: AUG-CC-PVTZ-RI
    Molecular point group: c1

    Geometry (in Angstrom), charge = 0, multiplicity = 1:

       Center              X                  Y                   Z               Mass
    ------------   -----------------  -----------------  -----------------  -----------------
         N            1.761039319252    -0.976868663538    -0.385369805703    14.003074004430
         C            0.991745319252     0.089963336462     0.028127194297    12.000000000000
         C           -0.467043680748     0.036992336462     0.019315194297    12.000000000000
         C            1.877634319252     1.084261336462     0.433936194297    12.000000000000
         C           -1.083883980748     1.262333236462    -0.283825905703    12.000000000000
         C           -1.152583680748    -1.158651663538     0.295151194297    12.000000000000
         C            3.095529319252    -0.679623663538    -0.276230805703    12.000000000000
         C            3.193082319252     0.600904336462     0.242067194297    12.000000000000
         C           -2.605771680748     1.154616336462    -0.268032805703    12.000000000000
         C           -2.546643680748    -1.198535663538     0.270572194297    12.000000000000
         C           -3.278877680748    -0.042433663538    -0.008549805703    12.000000000000
         H            1.383181319252    -1.803667663538    -0.830830805703     1.007825032230
         H            1.591343319252     2.035949336462     0.863940194297     1.007825032230
         H           -0.687553680748     2.115371336462    -0.506072805703     1.007825032230
         H           -0.590887680748    -2.050702663538     0.567797194297     1.007825032230
         H            3.855358319252    -1.387937663538    -0.576661805703     1.007825032230
         H            4.115306319252     1.118967336462     0.470907194297     1.007825032230
         H           -3.169079680748     2.057818336462    -0.491607805703     1.007825032230
         H           -3.062938680748    -2.130980663538     0.487776194297     1.007825032230
         H           -4.365651680748    -0.072646663538    -0.018979805703     1.007825032230

  Basis Set: AUG-CC-PVTZ
    Blend: AUG-CC-PVTZ
  Basis Set: (AUG-CC-PVTZ AUX)
    Blend: AUG-CC-PVTZ-JKFIT
	 Reference Energy          =    -438.4785806222632800 [Eh]
	 Singles Energy            =      -0.0000000000000000 [Eh]
	 Same-Spin Energy          =      -0.4954584535310907 [Eh]
	 Opposite-Spin Energy      =      -1.5274740897611161 [Eh]
	 Correlation Energy        =      -2.0229325432922067 [Eh]
	 Total Energy              =    -440.5015131655554796 [Eh]

	 ================> DF-SCS-MP2 Energies <==================
	-----------------------------------------------------------
	 SCS Same-Spin Scale       =       0.3333333333333333 [-]
	 SCS Opposite-Spin Scale   =       1.2000000000000000 [-]
	 SCS Same-Spin Energy      =      -0.1651528178436969 [Eh]
	 SCS Opposite-Spin Energy  =      -1.8329689077133393 [Eh]
	 SCS Correlation Energy    =      -1.9981217255570363 [Eh]
	 SCS Total Energy          =    -440.4767023478203214 [Eh]
	-----------------------------------------------------------

  Dipole Moment: [D]
     X:    -0.5626      Y:    -1.3418      Z:    -0.6507     Total:     1.5938

*** Psi4 exiting successfully. Buy a developer a beer!
