                               Psi4 1.4a3.dev225

  ==> Input File <==

--------------------------------------------------------------------------
#psi4
#
memory 32 gb

molecule  {
0 1
  N        1.7773000    -0.9706020    -0.3863220
  C        1.0080060     0.0962300     0.0271750
  C       -0.4507830     0.0432590     0.0183630
  C        1.8938950     1.0905280     0.4329840
  C       -1.1961700     1.1987140    -0.2700270
  C       -1.1363230    -1.1523850     0.2941990
  C        3.1117900    -0.6733570    -0.2771830
  C        3.2093430     0.6071710     0.2411150
  C       -2.5895110     1.1608830    -0.2689850
  C       -2.5303830    -1.1922690     0.2696200
  C       -3.2626170    -0.0361670    -0.0095020
  H        1.3994420    -1.7974010    -0.8317830
  H        1.6076040     2.0422160     0.8629880
  H       -0.6712930     2.1216380    -0.5070250
  H       -0.5746270    -2.0444360     0.5668450
  H        3.8716190    -1.3816710    -0.5776140
  H        4.1145242     1.1156601     0.4657260
  H       -3.1528190     2.0640850    -0.4925600
  H       -3.0466780    -2.1247140     0.4868240
  H       -4.3493910    -0.0663800    -0.0199320
units angstrom
no_reorient  #important for SAPT in psi4, default
symmetry c1  #important for SAPT in psi4, default
}

set PROPERTIES_ORIGIN ["COM"]
properties('MP2/aug-cc-pvtz', properties = ['dipole'])
--------------------------------------------------------------------------

    Molecular point group: c1
  Charge       = 0
  Multiplicity = 1
  Basis Set: AUG-CC-PVTZ
    Blend: AUG-CC-PVTZ
  Basis Set: (AUG-CC-PVTZ AUX)
    Blend: AUG-CC-PVTZ-JKFIT

    Orbital Energies [Eh]
    ---------------------

    Doubly Occupied:

       1A    -15.608176     2A    -11.261983     3A    -11.256490
       4A    -11.253162     5A    -11.241968     6A    -11.240677
       7A    -11.240425     8A    -11.237886     9A    -11.237616
      10A    -11.213233    11A    -11.211003    12A     -1.294037
      13A     -1.156103    14A     -1.048874    15A     -1.043247
      16A     -1.016755    17A     -0.959317    18A     -0.837816
      19A     -0.832295    20A     -0.790071    21A     -0.765781
      22A     -0.735385    23A     -0.679934    24A     -0.633209
      25A     -0.629662    26A     -0.594774    27A     -0.589239
      28A     -0.582851    29A     -0.569228    30A     -0.551401
      31A     -0.536877    32A     -0.504530    33A     -0.500868
      34A     -0.494378    35A     -0.363376    36A     -0.350131
      37A     -0.341295    38A     -0.273300

  @DF-RHF Final Energy:  -438.50898981437217

   => Energetics <=

    Nuclear Repulsion Energy =            536.9333315910386091
    One-Electron Energy =               -1657.5299304507113902
    Two-Electron Energy =                 682.0876090453004963
    Total Energy =                       -438.5089898143721712
  Basis Set: (AUG-CC-PVTZ AUX)
    Blend: AUG-CC-PVTZ-RI
    Molecular point group: c1

    Geometry (in Angstrom), charge = 0, multiplicity = 1:

       Center              X                  Y                   Z               Mass
    ------------   -----------------  -----------------  -----------------  -----------------
         N            1.771940964687    -0.970939685633    -0.386577234813    14.003074004430
         C            1.002646964687     0.095892314367     0.026919765187    12.000000000000
         C           -0.456142035313     0.042921314367     0.018107765187    12.000000000000
         C            1.888535964687     1.090190314367     0.432728765187    12.000000000000
         C           -1.201529035313     1.198376314367    -0.270282234813    12.000000000000
         C           -1.141682035313    -1.152722685633     0.293943765187    12.000000000000
         C            3.106430964687    -0.673694685633    -0.277438234813    12.000000000000
         C            3.203983964687     0.606833314367     0.240859765187    12.000000000000
         C           -2.594870035313     1.160545314367    -0.269240234813    12.000000000000
         C           -2.535742035313    -1.192606685633     0.269364765187    12.000000000000
         C           -3.267976035313    -0.036504685633    -0.009757234813    12.000000000000
         H            1.394082964687    -1.797738685633    -0.832038234813     1.007825032230
         H            1.602244964687     2.041878314367     0.862732765187     1.007825032230
         H           -0.676652035313     2.121300314367    -0.507280234813     1.007825032230
         H           -0.579986035313    -2.044773685633     0.566589765187     1.007825032230
         H            3.866259964687    -1.382008685633    -0.577869234813     1.007825032230
         H            4.109165164687     1.115322414367     0.465470765187     1.007825032230
         H           -3.158178035313     2.063747314367    -0.492815234813     1.007825032230
         H           -3.052037035313    -2.125051685633     0.486568765187     1.007825032230
         H           -4.354750035313    -0.066717685633    -0.020187234813     1.007825032230

  Basis Set: AUG-CC-PVTZ
    Blend: AUG-CC-PVTZ
  Basis Set: (AUG-CC-PVTZ AUX)
    Blend: AUG-CC-PVTZ-JKFIT
	 Reference Energy          =    -438.5089898143721712 [Eh]
	 Singles Energy            =      -0.0000000000000000 [Eh]
	 Same-Spin Energy          =      -0.4952271092520097 [Eh]
	 Opposite-Spin Energy      =      -1.5252084076453301 [Eh]
	 Correlation Energy        =      -2.0204355168973396 [Eh]
	 Total Energy              =    -440.5294253312695218 [Eh]

	 ================> DF-SCS-MP2 Energies <==================
	-----------------------------------------------------------
	 SCS Same-Spin Scale       =       0.3333333333333333 [-]
	 SCS Opposite-Spin Scale   =       1.2000000000000000 [-]
	 SCS Same-Spin Energy      =      -0.1650757030840032 [Eh]
	 SCS Opposite-Spin Energy  =      -1.8302500891743960 [Eh]
	 SCS Correlation Energy    =      -1.9953257922583993 [Eh]
	 SCS Total Energy          =    -440.5043156066305983 [Eh]
	-----------------------------------------------------------

  Dipole Moment: [D]
     X:    -0.4452      Y:    -1.3181      Z:    -0.6472     Total:     1.5344

*** Psi4 exiting successfully. Buy a developer a beer!
