                               Psi4 1.3.2 release

  ==> Input File <==

--------------------------------------------------------------------------
#psi4
#
memory 32 gb

molecule  {
0 1
  N        1.7773000    -0.9706020    -0.3863220
  C        0.9948462     0.2442099    -0.0085447
  C       -0.4507830     0.0432590     0.0183630
  C        1.8938950     1.0905280     0.4329840
  C       -1.1961700     1.1987140    -0.2700270
  C       -1.1363230    -1.1523850     0.2941990
  C        3.1117900    -0.6733570    -0.2771830
  C        3.2093430     0.6071710     0.2411150
  C       -2.5895110     1.1608830    -0.2689850
  C       -2.5303830    -1.1922690     0.2696200
  C       -3.2626170    -0.0361670    -0.0095020
  H        1.3994420    -1.7974010    -0.8317830
  H        1.6076040     2.0422160     0.8629880
  H       -0.6712930     2.1216380    -0.5070250
  H       -0.5746270    -2.0444360     0.5668450
  H        3.8716190    -1.3816710    -0.5776140
  H        4.1315670     1.1252340     0.4699550
  H       -3.1528190     2.0640850    -0.4925600
  H       -3.0466780    -2.1247140     0.4868240
  H       -4.3493910    -0.0663800    -0.0199320
units angstrom
no_reorient  #important for SAPT in psi4, default
symmetry c1  #important for SAPT in psi4, default
}

set PROPERTIES_ORIGIN ["COM"]
properties('MP2/aug-cc-pvtz', properties = ['dipole'])
--------------------------------------------------------------------------

    Molecular point group: c1
  Charge       = 0
  Multiplicity = 1
  Basis Set: AUG-CC-PVTZ
    Blend: AUG-CC-PVTZ
  Basis Set: (AUG-CC-PVTZ AUX)
    Blend: AUG-CC-PVTZ-JKFIT

    Orbital Energies [Eh]
    ---------------------

    Doubly Occupied:

       1A    -15.595167     2A    -11.264291     3A    -11.260663
       4A    -11.254026     5A    -11.242957     6A    -11.241733
       7A    -11.239480     8A    -11.237368     9A    -11.235581
      10A    -11.213848    11A    -11.210219    12A     -1.268107
      13A     -1.155974    14A     -1.058993    15A     -1.038805
      16A     -1.016586    17A     -0.960457    18A     -0.840757
      19A     -0.830935    20A     -0.783688    21A     -0.755844
      22A     -0.733129    23A     -0.679313    24A     -0.634349
      25A     -0.629543    26A     -0.595528    27A     -0.589040
      28A     -0.565656    29A     -0.562289    30A     -0.546711
      31A     -0.540172    32A     -0.503722    33A     -0.502191
      34A     -0.490233    35A     -0.374374    36A     -0.346500
      37A     -0.341010    38A     -0.279194

  @DF-RHF Final Energy:  -438.49007636236610

   => Energetics <=

    Nuclear Repulsion Energy =            536.3111696440378182
    One-Electron Energy =               -1656.3656230978328949
    Two-Electron Energy =                 681.5643770914289234
    Total Energy =                       -438.4900763623661533
  Basis Set: (AUG-CC-PVTZ AUX)
    Blend: AUG-CC-PVTZ-RI
    Molecular point group: c1

    Geometry (in Angstrom), charge = 0, multiplicity = 1:

       Center              X                  Y                   Z               Mass
    ------------   -----------------  -----------------  -----------------  -----------------
         N            1.772924664954    -0.983418639631    -0.383611106844    14.003074004430
         C            0.990470864954     0.231393260369    -0.005833806844    12.000000000000
         C           -0.455158335046     0.030442360369     0.021073893156    12.000000000000
         C            1.889519664954     1.077711360369     0.435694893156    12.000000000000
         C           -1.200545335046     1.185897360369    -0.267316106844    12.000000000000
         C           -1.140698335046    -1.165201639631     0.296909893156    12.000000000000
         C            3.107414664954    -0.686173639631    -0.274472106844    12.000000000000
         C            3.204967664954     0.594354360369     0.243825893156    12.000000000000
         C           -2.593886335046     1.148066360369    -0.266274106844    12.000000000000
         C           -2.534758335046    -1.205085639631     0.272330893156    12.000000000000
         C           -3.266992335046    -0.048983639631    -0.006791106844    12.000000000000
         H            1.395066664954    -1.810217639631    -0.829072106844     1.007825032230
         H            1.603228664954     2.029399360369     0.865698893156     1.007825032230
         H           -0.675668335046     2.108821360369    -0.504314106844     1.007825032230
         H           -0.579002335046    -2.057252639631     0.569555893156     1.007825032230
         H            3.867243664954    -1.394487639631    -0.574903106844     1.007825032230
         H            4.127191664954     1.112417360369     0.472665893156     1.007825032230
         H           -3.157194335046     2.051268360369    -0.489849106844     1.007825032230
         H           -3.051053335046    -2.137530639631     0.489534893156     1.007825032230
         H           -4.353766335046    -0.079196639631    -0.017221106844     1.007825032230

  Basis Set: AUG-CC-PVTZ
    Blend: AUG-CC-PVTZ
  Basis Set: (AUG-CC-PVTZ AUX)
    Blend: AUG-CC-PVTZ-JKFIT
	 Reference Energy          =    -438.4900763623660964 [Eh]
	 Singles Energy            =      -0.0000000000000000 [Eh]
	 Same-Spin Energy          =      -0.4944697961811530 [Eh]
	 Opposite-Spin Energy      =      -1.5259188741572263 [Eh]
	 Correlation Energy        =      -2.0203886703383791 [Eh]
	 Total Energy              =    -440.5104650327044737 [Eh]

	 ================> DF-SCS-MP2 Energies <==================
	-----------------------------------------------------------
	 SCS Same-Spin Scale       =       0.3333333333333333 [-]
	 SCS Opposite-Spin Scale   =       1.2000000000000000 [-]
	 SCS Same-Spin Energy      =      -0.1648232653937177 [Eh]
	 SCS Opposite-Spin Energy  =      -1.8311026489886715 [Eh]
	 SCS Correlation Energy    =      -1.9959259143823891 [Eh]
	 SCS Total Energy          =    -440.4860022767484793 [Eh]
	-----------------------------------------------------------

  Dipole Moment: [D]
     X:    -0.5104      Y:    -1.1470      Z:    -0.5402     Total:     1.3667

*** Psi4 exiting successfully. Buy a developer a beer!
