                               Psi4 1.3.2 release

  ==> Input File <==

--------------------------------------------------------------------------
#psi4
#
memory 32 gb

molecule  {
0 1
  N        1.7773000    -0.9706020    -0.3863220
  C        1.0080060     0.0962300     0.0271750
  C       -0.4507830     0.0432590     0.0183630
  C        1.9128452     1.1327741     0.4501271
  C       -1.1961700     1.1987140    -0.2700270
  C       -1.1363230    -1.1523850     0.2941990
  C        3.1117900    -0.6733570    -0.2771830
  C        3.2093430     0.6071710     0.2411150
  C       -2.5895110     1.1608830    -0.2689850
  C       -2.5303830    -1.1922690     0.2696200
  C       -3.2626170    -0.0361670    -0.0095020
  H        1.3994420    -1.7974010    -0.8317830
  H        1.6076040     2.0422160     0.8629880
  H       -0.6712930     2.1216380    -0.5070250
  H       -0.5746270    -2.0444360     0.5668450
  H        3.8716190    -1.3816710    -0.5776140
  H        4.1315670     1.1252340     0.4699550
  H       -3.1528190     2.0640850    -0.4925600
  H       -3.0466780    -2.1247140     0.4868240
  H       -4.3493910    -0.0663800    -0.0199320
units angstrom
no_reorient  #important for SAPT in psi4, default
symmetry c1  #important for SAPT in psi4, default
}

set PROPERTIES_ORIGIN ["COM"]
properties('MP2/aug-cc-pvtz', properties = ['dipole'])
--------------------------------------------------------------------------

    Molecular point group: c1
  Charge       = 0
  Multiplicity = 1
  Basis Set: AUG-CC-PVTZ
    Blend: AUG-CC-PVTZ
  Basis Set: (AUG-CC-PVTZ AUX)
    Blend: AUG-CC-PVTZ-JKFIT

    Orbital Energies [Eh]
    ---------------------

    Doubly Occupied:

       1A    -15.612001     2A    -11.268131     3A    -11.255699
       4A    -11.253327     5A    -11.242115     6A    -11.240816
       7A    -11.240557     8A    -11.237981     9A    -11.237706
      10A    -11.216038    11A    -11.214882    12A     -1.292691
      13A     -1.156225    14A     -1.047165    15A     -1.042501
      16A     -1.016870    17A     -0.956017    18A     -0.838955
      19A     -0.832144    20A     -0.790316    21A     -0.768339
      22A     -0.734808    23A     -0.679432    24A     -0.633742
      25A     -0.629379    26A     -0.596092    27A     -0.589058
      28A     -0.583668    29A     -0.567500    30A     -0.553411
      31A     -0.537096    32A     -0.504706    33A     -0.499426
      34A     -0.492912    35A     -0.362021    36A     -0.351140
      37A     -0.341484    38A     -0.269071

  @DF-RHF Final Energy:  -438.50379360827327

   => Energetics <=

    Nuclear Repulsion Energy =            535.8849799423381910
    One-Electron Energy =               -1655.4067023506752321
    Two-Electron Energy =                 681.0179288000639417
    Total Energy =                       -438.5037936082732131
  Basis Set: (AUG-CC-PVTZ AUX)
    Blend: AUG-CC-PVTZ-RI
    Molecular point group: c1

    Geometry (in Angstrom), charge = 0, multiplicity = 1:

       Center              X                  Y                   Z               Mass
    ------------   -----------------  -----------------  -----------------  -----------------
         N            1.770231503734    -0.974550431289    -0.388044867136    14.003074004430
         C            1.000937503734     0.092281568711     0.025452132864    12.000000000000
         C           -0.457851496266     0.039310568711     0.016640132864    12.000000000000
         C            1.905776703734     1.128825668711     0.448404232864    12.000000000000
         C           -1.203238496266     1.194765568711    -0.271749867136    12.000000000000
         C           -1.143391496266    -1.156333431289     0.292476132864    12.000000000000
         C            3.104721503734    -0.677305431289    -0.278905867136    12.000000000000
         C            3.202274503734     0.603222568711     0.239392132864    12.000000000000
         C           -2.596579496266     1.156934568711    -0.270707867136    12.000000000000
         C           -2.537451496266    -1.196217431289     0.267897132864    12.000000000000
         C           -3.269685496266    -0.040115431289    -0.011224867136    12.000000000000
         H            1.392373503734    -1.801349431289    -0.833505867136     1.007825032230
         H            1.600535503734     2.038267568711     0.861265132864     1.007825032230
         H           -0.678361496266     2.117689568711    -0.508747867136     1.007825032230
         H           -0.581695496266    -2.048384431289     0.565122132864     1.007825032230
         H            3.864550503734    -1.385619431289    -0.579336867136     1.007825032230
         H            4.124498503734     1.121285568711     0.468232132864     1.007825032230
         H           -3.159887496266     2.060136568711    -0.494282867136     1.007825032230
         H           -3.053746496266    -2.128662431289     0.485101132864     1.007825032230
         H           -4.356459496266    -0.070328431289    -0.021654867136     1.007825032230

  Basis Set: AUG-CC-PVTZ
    Blend: AUG-CC-PVTZ
  Basis Set: (AUG-CC-PVTZ AUX)
    Blend: AUG-CC-PVTZ-JKFIT
	 Reference Energy          =    -438.5037936082732699 [Eh]
	 Singles Energy            =      -0.0000000000000000 [Eh]
	 Same-Spin Energy          =      -0.4958687871696845 [Eh]
	 Opposite-Spin Energy      =      -1.5264314623390731 [Eh]
	 Correlation Energy        =      -2.0223002495087576 [Eh]
	 Total Energy              =    -440.5260938577820298 [Eh]

	 ================> DF-SCS-MP2 Energies <==================
	-----------------------------------------------------------
	 SCS Same-Spin Scale       =       0.3333333333333333 [-]
	 SCS Opposite-Spin Scale   =       1.2000000000000000 [-]
	 SCS Same-Spin Energy      =      -0.1652895957232282 [Eh]
	 SCS Opposite-Spin Energy  =      -1.8317177548068877 [Eh]
	 SCS Correlation Energy    =      -1.9970073505301158 [Eh]
	 SCS Total Energy          =    -440.5008009588033815 [Eh]
	-----------------------------------------------------------

  Dipole Moment: [D]
     X:    -0.4212      Y:    -1.3459      Z:    -0.6554     Total:     1.5551

*** Psi4 exiting successfully. Buy a developer a beer!
