                               Psi4 1.3.2 release

  ==> Input File <==

--------------------------------------------------------------------------
#psi4
#
memory 32 gb

molecule  {
0 1
  N        1.7773000    -0.9706020    -0.3863220
  C        0.9711017     0.1246354     0.0410493
  C       -0.4507830     0.0432590     0.0183630
  C        1.8938950     1.0905280     0.4329840
  C       -1.1961700     1.1987140    -0.2700270
  C       -1.1363230    -1.1523850     0.2941990
  C        3.1117900    -0.6733570    -0.2771830
  C        3.2093430     0.6071710     0.2411150
  C       -2.5895110     1.1608830    -0.2689850
  C       -2.5303830    -1.1922690     0.2696200
  C       -3.2626170    -0.0361670    -0.0095020
  H        1.3994420    -1.7974010    -0.8317830
  H        1.6076040     2.0422160     0.8629880
  H       -0.6712930     2.1216380    -0.5070250
  H       -0.5746270    -2.0444360     0.5668450
  H        3.8716190    -1.3816710    -0.5776140
  H        4.1315670     1.1252340     0.4699550
  H       -3.1528190     2.0640850    -0.4925600
  H       -3.0466780    -2.1247140     0.4868240
  H       -4.3493910    -0.0663800    -0.0199320
units angstrom
no_reorient  #important for SAPT in psi4, default
symmetry c1  #important for SAPT in psi4, default
}

set PROPERTIES_ORIGIN ["COM"]
properties('MP2/aug-cc-pvtz', properties = ['dipole'])
--------------------------------------------------------------------------

    Molecular point group: c1
  Charge       = 0
  Multiplicity = 1
  Basis Set: AUG-CC-PVTZ
    Blend: AUG-CC-PVTZ
  Basis Set: (AUG-CC-PVTZ AUX)
    Blend: AUG-CC-PVTZ-JKFIT

    Orbital Energies [Eh]
    ---------------------

    Doubly Occupied:

       1A    -15.605484     2A    -11.262604     3A    -11.260532
       4A    -11.251023     5A    -11.242108     6A    -11.240693
       7A    -11.240466     8A    -11.237728     9A    -11.237394
      10A    -11.217238    11A    -11.213127    12A     -1.281449
      13A     -1.157442    14A     -1.053392    15A     -1.040820
      16A     -1.016727    17A     -0.957936    18A     -0.842464
      19A     -0.832730    20A     -0.784855    21A     -0.759914
      22A     -0.736379    23A     -0.680109    24A     -0.634591
      25A     -0.630506    26A     -0.591864    27A     -0.588805
      28A     -0.578786    29A     -0.565361    30A     -0.547001
      31A     -0.539154    32A     -0.505338    33A     -0.502819
      34A     -0.494250    35A     -0.367282    36A     -0.348711
      37A     -0.341381    38A     -0.271594

  @DF-RHF Final Energy:  -438.50402075665818

   => Energetics <=

    Nuclear Repulsion Energy =            536.6756426230758734
    One-Electron Energy =               -1657.0392116641455686
    Two-Electron Energy =                 681.8595482844115168
    Total Energy =                       -438.5040207566581785
  Basis Set: (AUG-CC-PVTZ AUX)
    Blend: AUG-CC-PVTZ-RI
    Molecular point group: c1

    Geometry (in Angstrom), charge = 0, multiplicity = 1:

       Center              X                  Y                   Z               Mass
    ------------   -----------------  -----------------  -----------------  -----------------
         N            1.774916186804    -0.973389570607    -0.387770703156    14.003074004430
         C            0.968717886804     0.121847829393     0.039600596844    12.000000000000
         C           -0.453166813196     0.040471429393     0.016914296844    12.000000000000
         C            1.891511186804     1.087740429393     0.431535296844    12.000000000000
         C           -1.198553813196     1.195926429393    -0.271475703156    12.000000000000
         C           -1.138706813196    -1.155172570607     0.292750296844    12.000000000000
         C            3.109406186804    -0.676144570607    -0.278631703156    12.000000000000
         C            3.206959186804     0.604383429393     0.239666296844    12.000000000000
         C           -2.591894813196     1.158095429393    -0.270433703156    12.000000000000
         C           -2.532766813196    -1.195056570607     0.268171296844    12.000000000000
         C           -3.265000813196    -0.038954570607    -0.010950703156    12.000000000000
         H            1.397058186804    -1.800188570607    -0.833231703156     1.007825032230
         H            1.605220186804     2.039428429393     0.861539296844     1.007825032230
         H           -0.673676813196     2.118850429393    -0.508473703156     1.007825032230
         H           -0.577010813196    -2.047223570607     0.565396296844     1.007825032230
         H            3.869235186804    -1.384458570607    -0.579062703156     1.007825032230
         H            4.129183186804     1.122446429393     0.468506296844     1.007825032230
         H           -3.155202813196     2.061297429393    -0.494008703156     1.007825032230
         H           -3.049061813196    -2.127501570607     0.485375296844     1.007825032230
         H           -4.351774813196    -0.069167570607    -0.021380703156     1.007825032230

  Basis Set: AUG-CC-PVTZ
    Blend: AUG-CC-PVTZ
  Basis Set: (AUG-CC-PVTZ AUX)
    Blend: AUG-CC-PVTZ-JKFIT
	 Reference Energy          =    -438.5040207566581785 [Eh]
	 Singles Energy            =      -0.0000000000000000 [Eh]
	 Same-Spin Energy          =      -0.4958562347221727 [Eh]
	 Opposite-Spin Energy      =      -1.5267154755733303 [Eh]
	 Correlation Energy        =      -2.0225717102955030 [Eh]
	 Total Energy              =    -440.5265924669536730 [Eh]

	 ================> DF-SCS-MP2 Energies <==================
	-----------------------------------------------------------
	 SCS Same-Spin Scale       =       0.3333333333333333 [-]
	 SCS Opposite-Spin Scale   =       1.2000000000000000 [-]
	 SCS Same-Spin Energy      =      -0.1652854115740575 [Eh]
	 SCS Opposite-Spin Energy  =      -1.8320585706879964 [Eh]
	 SCS Correlation Energy    =      -1.9973439822620540 [Eh]
	 SCS Total Energy          =    -440.5013647389202447 [Eh]
	-----------------------------------------------------------

  Dipole Moment: [D]
     X:    -0.4353      Y:    -1.2770      Z:    -0.6253     Total:     1.4870

*** Psi4 exiting successfully. Buy a developer a beer!
