                               Psi4 1.3.2 release

  ==> Input File <==

--------------------------------------------------------------------------
#psi4
#
memory 32 gb

molecule  {
0 1
  N        1.7719802    -0.9489886    -0.3775146
  C        1.0080060     0.0962300     0.0271750
  C       -0.4507830     0.0432590     0.0183630
  C        1.8938950     1.0905280     0.4329840
  C       -1.1961700     1.1987140    -0.2700270
  C       -1.1363230    -1.1523850     0.2941990
  C        3.1117900    -0.6733570    -0.2771830
  C        3.2093430     0.6071710     0.2411150
  C       -2.5895110     1.1608830    -0.2689850
  C       -2.5303830    -1.1922690     0.2696200
  C       -3.2626170    -0.0361670    -0.0095020
  H        1.3994420    -1.7974010    -0.8317830
  H        1.6076040     2.0422160     0.8629880
  H       -0.6712930     2.1216380    -0.5070250
  H       -0.5746270    -2.0444360     0.5668450
  H        3.8716190    -1.3816710    -0.5776140
  H        4.1315670     1.1252340     0.4699550
  H       -3.1528190     2.0640850    -0.4925600
  H       -3.0466780    -2.1247140     0.4868240
  H       -4.3493910    -0.0663800    -0.0199320
units angstrom
no_reorient  #important for SAPT in psi4, default
symmetry c1  #important for SAPT in psi4, default
}

set PROPERTIES_ORIGIN ["COM"]
properties('MP2/aug-cc-pvtz', properties = ['dipole'])
--------------------------------------------------------------------------

    Molecular point group: c1
  Charge       = 0
  Multiplicity = 1
  Basis Set: AUG-CC-PVTZ
    Blend: AUG-CC-PVTZ
  Basis Set: (AUG-CC-PVTZ AUX)
    Blend: AUG-CC-PVTZ-JKFIT

    Orbital Energies [Eh]
    ---------------------

    Doubly Occupied:

       1A    -15.610035     2A    -11.260512     3A    -11.254741
       4A    -11.253478     5A    -11.242313     6A    -11.240984
       7A    -11.240830     8A    -11.238266     9A    -11.237985
      10A    -11.213223    11A    -11.210850    12A     -1.299413
      13A     -1.156434    14A     -1.048302    15A     -1.041486
      16A     -1.016932    17A     -0.961423    18A     -0.837729
      19A     -0.832534    20A     -0.784334    21A     -0.766847
      22A     -0.736016    23A     -0.680453    24A     -0.634525
      25A     -0.629716    26A     -0.592190    27A     -0.587092
      28A     -0.585881    29A     -0.570919    30A     -0.548998
      31A     -0.536091    32A     -0.505182    33A     -0.501014
      34A     -0.494534    35A     -0.362832    36A     -0.349308
      37A     -0.341574    38A     -0.273807

  @DF-RHF Final Energy:  -438.50784406939891

   => Energetics <=

    Nuclear Repulsion Energy =            537.3317826334341589
    One-Electron Energy =               -1658.3216896273752354
    Two-Electron Energy =                 682.4820629245421060
    Total Energy =                       -438.5078440693989705
  Basis Set: (AUG-CC-PVTZ AUX)
    Blend: AUG-CC-PVTZ-RI
    Molecular point group: c1

    Geometry (in Angstrom), charge = 0, multiplicity = 1:

       Center              X                  Y                   Z               Mass
    ------------   -----------------  -----------------  -----------------  -----------------
         N            1.767021779706    -0.951509099762    -0.378661633551    14.003074004430
         C            1.003047579706     0.093709500238     0.026027966449    12.000000000000
         C           -0.455741420294     0.040738500238     0.017215966449    12.000000000000
         C            1.888936579706     1.088007500238     0.431836966449    12.000000000000
         C           -1.201128420294     1.196193500238    -0.271174033551    12.000000000000
         C           -1.141281420294    -1.154905499762     0.293051966449    12.000000000000
         C            3.106831579706    -0.675877499762    -0.278330033551    12.000000000000
         C            3.204384579706     0.604650500238     0.239967966449    12.000000000000
         C           -2.594469420294     1.158362500238    -0.270132033551    12.000000000000
         C           -2.535341420294    -1.194789499762     0.268472966449    12.000000000000
         C           -3.267575420294    -0.038687499762    -0.010649033551    12.000000000000
         H            1.394483579706    -1.799921499762    -0.832930033551     1.007825032230
         H            1.602645579706     2.039695500238     0.861840966449     1.007825032230
         H           -0.676251420294     2.119117500238    -0.508172033551     1.007825032230
         H           -0.579585420294    -2.046956499762     0.565697966449     1.007825032230
         H            3.866660579706    -1.384191499762    -0.578761033551     1.007825032230
         H            4.126608579706     1.122713500238     0.468807966449     1.007825032230
         H           -3.157777420294     2.061564500238    -0.493707033551     1.007825032230
         H           -3.051636420294    -2.127234499762     0.485676966449     1.007825032230
         H           -4.354349420294    -0.068900499762    -0.021079033551     1.007825032230

  Basis Set: AUG-CC-PVTZ
    Blend: AUG-CC-PVTZ
  Basis Set: (AUG-CC-PVTZ AUX)
    Blend: AUG-CC-PVTZ-JKFIT
	 Reference Energy          =    -438.5078440693989137 [Eh]
	 Singles Energy            =      -0.0000000000000000 [Eh]
	 Same-Spin Energy          =      -0.4955149074262742 [Eh]
	 Opposite-Spin Energy      =      -1.5254151330844827 [Eh]
	 Correlation Energy        =      -2.0209300405107569 [Eh]
	 Total Energy              =    -440.5287741099096479 [Eh]

	 ================> DF-SCS-MP2 Energies <==================
	-----------------------------------------------------------
	 SCS Same-Spin Scale       =       0.3333333333333333 [-]
	 SCS Opposite-Spin Scale   =       1.2000000000000000 [-]
	 SCS Same-Spin Energy      =      -0.1651716358087580 [Eh]
	 SCS Opposite-Spin Energy  =      -1.8304981597013792 [Eh]
	 SCS Correlation Energy    =      -1.9956697955101372 [Eh]
	 SCS Total Energy          =    -440.5035138649090527 [Eh]
	-----------------------------------------------------------

  Dipole Moment: [D]
     X:    -0.4733      Y:    -1.3713      Z:    -0.6673     Total:     1.5967

*** Psi4 exiting successfully. Buy a developer a beer!
