                               Psi4 1.3.2 release

  ==> Input File <==

--------------------------------------------------------------------------
#psi4
#
memory 32 gb

molecule  {
0 1
  N        1.7773000    -0.9706020    -0.3863220
  C        1.0088430     0.0466940     0.0390794
  C       -0.4507830     0.0432590     0.0183630
  C        1.8938950     1.0905280     0.4329840
  C       -1.1961700     1.1987140    -0.2700270
  C       -1.1363230    -1.1523850     0.2941990
  C        3.1117900    -0.6733570    -0.2771830
  C        3.2093430     0.6071710     0.2411150
  C       -2.5895110     1.1608830    -0.2689850
  C       -2.5303830    -1.1922690     0.2696200
  C       -3.2626170    -0.0361670    -0.0095020
  H        1.3994420    -1.7974010    -0.8317830
  H        1.6076040     2.0422160     0.8629880
  H       -0.6712930     2.1216380    -0.5070250
  H       -0.5746270    -2.0444360     0.5668450
  H        3.8716190    -1.3816710    -0.5776140
  H        4.1315670     1.1252340     0.4699550
  H       -3.1528190     2.0640850    -0.4925600
  H       -3.0466780    -2.1247140     0.4868240
  H       -4.3493910    -0.0663800    -0.0199320
units angstrom
no_reorient  #important for SAPT in psi4, default
symmetry c1  #important for SAPT in psi4, default
}

set PROPERTIES_ORIGIN ["COM"]
properties('MP2/aug-cc-pvtz', properties = ['dipole'])
--------------------------------------------------------------------------

    Molecular point group: c1
  Charge       = 0
  Multiplicity = 1
  Basis Set: AUG-CC-PVTZ
    Blend: AUG-CC-PVTZ
  Basis Set: (AUG-CC-PVTZ AUX)
    Blend: AUG-CC-PVTZ-JKFIT

    Orbital Energies [Eh]
    ---------------------

    Doubly Occupied:

       1A    -15.612410     2A    -11.263388     3A    -11.253788
       4A    -11.253611     5A    -11.241977     6A    -11.241322
       7A    -11.240255     8A    -11.238866     9A    -11.238105
      10A    -11.214751    11A    -11.213120    12A     -1.303945
      13A     -1.156532    14A     -1.047452    15A     -1.043477
      16A     -1.017099    17A     -0.958812    18A     -0.837726
      19A     -0.832615    20A     -0.791399    21A     -0.767350
      22A     -0.735917    23A     -0.680007    24A     -0.634324
      25A     -0.629932    26A     -0.595358    27A     -0.589783
      28A     -0.586298    29A     -0.572451    30A     -0.547355
      31A     -0.534901    32A     -0.505585    33A     -0.500728
      34A     -0.492229    35A     -0.361742    36A     -0.350797
      37A     -0.341652    38A     -0.270472

  @DF-RHF Final Energy:  -438.50619399386488

   => Energetics <=

    Nuclear Repulsion Energy =            536.9704045150799629
    One-Electron Energy =               -1657.5581308788107435
    Two-Electron Energy =                 682.0815323698658403
    Total Energy =                       -438.5061939938649402
  Basis Set: (AUG-CC-PVTZ AUX)
    Blend: AUG-CC-PVTZ-RI
    Molecular point group: c1

    Geometry (in Angstrom), charge = 0, multiplicity = 1:

       Center              X                  Y                   Z               Mass
    ------------   -----------------  -----------------  -----------------  -----------------
         N            1.771750711701    -0.966852393529    -0.387605481783    14.003074004430
         C            1.003293711701     0.050443606471     0.037795918217    12.000000000000
         C           -0.456332288299     0.047008606471     0.017079518217    12.000000000000
         C            1.888345711701     1.094277606471     0.431700518217    12.000000000000
         C           -1.201719288299     1.202463606471    -0.271310481783    12.000000000000
         C           -1.141872288299    -1.148635393529     0.292915518217    12.000000000000
         C            3.106240711701    -0.669607393529    -0.278466481783    12.000000000000
         C            3.203793711701     0.610920606471     0.239831518217    12.000000000000
         C           -2.595060288299     1.164632606471    -0.270268481783    12.000000000000
         C           -2.535932288299    -1.188519393529     0.268336518217    12.000000000000
         C           -3.268166288299    -0.032417393529    -0.010785481783    12.000000000000
         H            1.393892711701    -1.793651393529    -0.833066481783     1.007825032230
         H            1.602054711701     2.045965606471     0.861704518217     1.007825032230
         H           -0.676842288299     2.125387606471    -0.508308481783     1.007825032230
         H           -0.580176288299    -2.040686393529     0.565561518217     1.007825032230
         H            3.866069711701    -1.377921393529    -0.578897481783     1.007825032230
         H            4.126017711701     1.128983606471     0.468671518217     1.007825032230
         H           -3.158368288299     2.067834606471    -0.493843481783     1.007825032230
         H           -3.052227288299    -2.120964393529     0.485540518217     1.007825032230
         H           -4.354940288299    -0.062630393529    -0.021215481783     1.007825032230

  Basis Set: AUG-CC-PVTZ
    Blend: AUG-CC-PVTZ
  Basis Set: (AUG-CC-PVTZ AUX)
    Blend: AUG-CC-PVTZ-JKFIT
	 Reference Energy          =    -438.5061939938648834 [Eh]
	 Singles Energy            =      -0.0000000000000000 [Eh]
	 Same-Spin Energy          =      -0.4957209774373347 [Eh]
	 Opposite-Spin Energy      =      -1.5256302768585628 [Eh]
	 Correlation Energy        =      -2.0213512542958973 [Eh]
	 Total Energy              =    -440.5275452481607772 [Eh]

	 ================> DF-SCS-MP2 Energies <==================
	-----------------------------------------------------------
	 SCS Same-Spin Scale       =       0.3333333333333333 [-]
	 SCS Opposite-Spin Scale   =       1.2000000000000000 [-]
	 SCS Same-Spin Energy      =      -0.1652403258124449 [Eh]
	 SCS Opposite-Spin Energy  =      -1.8307563322302753 [Eh]
	 SCS Correlation Energy    =      -1.9959966580427202 [Eh]
	 SCS Total Energy          =    -440.5021906519075969 [Eh]
	-----------------------------------------------------------

  Dipole Moment: [D]
     X:    -0.4427      Y:    -1.3698      Z:    -0.6817     Total:     1.5928

*** Psi4 exiting successfully. Buy a developer a beer!
