                               Psi4 1.4a3.dev225

  ==> Input File <==

--------------------------------------------------------------------------
#psi4
#
memory 32 gb

molecule  {
0 1
  N        1.7773000    -0.9706020    -0.3863220
  C        1.0080060     0.0962300     0.0271750
  C       -0.4507830     0.0432590     0.0183630
  C        1.8938950     1.0905280     0.4329840
  C       -1.1961700     1.1987140    -0.2700270
  C       -1.1363230    -1.1523850     0.2941990
  C        3.1117900    -0.6733570    -0.2771830
  C        3.2107518     0.6256639     0.2486001
  C       -2.5895110     1.1608830    -0.2689850
  C       -2.5303830    -1.1922690     0.2696200
  C       -3.2626170    -0.0361670    -0.0095020
  H        1.3994420    -1.7974010    -0.8317830
  H        1.6076040     2.0422160     0.8629880
  H       -0.6712930     2.1216380    -0.5070250
  H       -0.5746270    -2.0444360     0.5668450
  H        3.8716190    -1.3816710    -0.5776140
  H        4.1315670     1.1252340     0.4699550
  H       -3.1528190     2.0640850    -0.4925600
  H       -3.0466780    -2.1247140     0.4868240
  H       -4.3493910    -0.0663800    -0.0199320
units angstrom
no_reorient  #important for SAPT in psi4, default
symmetry c1  #important for SAPT in psi4, default
}

set PROPERTIES_ORIGIN ["COM"]
properties('MP2/aug-cc-pvtz', properties = ['dipole'])
--------------------------------------------------------------------------

    Molecular point group: c1
  Charge       = 0
  Multiplicity = 1
  Basis Set: AUG-CC-PVTZ
    Blend: AUG-CC-PVTZ
  Basis Set: (AUG-CC-PVTZ AUX)
    Blend: AUG-CC-PVTZ-JKFIT

    Orbital Energies [Eh]
    ---------------------

    Doubly Occupied:

       1A    -15.610184     2A    -11.261670     3A    -11.259172
       4A    -11.253272     5A    -11.241920     6A    -11.240610
       7A    -11.240336     8A    -11.237722     9A    -11.237460
      10A    -11.214829    11A    -11.213375    12A     -1.293933
      13A     -1.156000    14A     -1.049380    15A     -1.042284
      16A     -1.016681    17A     -0.957765    18A     -0.837350
      19A     -0.832226    20A     -0.791016    21A     -0.765352
      22A     -0.735124    23A     -0.679776    24A     -0.633218
      25A     -0.629691    26A     -0.594725    27A     -0.589214
      28A     -0.582717    29A     -0.569121    30A     -0.551409
      31A     -0.534617    32A     -0.504430    33A     -0.501207
      34A     -0.494490    35A     -0.363367    36A     -0.350610
      37A     -0.341252    38A     -0.271415

  @DF-RHF Final Energy:  -438.50757092378450

   => Energetics <=

    Nuclear Repulsion Energy =            536.5970841607048669
    One-Electron Energy =               -1656.8514712045951001
    Two-Electron Energy =                 681.7468161201057910
    Total Energy =                       -438.5075709237845558
  Basis Set: (AUG-CC-PVTZ AUX)
    Blend: AUG-CC-PVTZ-RI
    Molecular point group: c1

    Geometry (in Angstrom), charge = 0, multiplicity = 1:

       Center              X                  Y                   Z               Mass
    ------------   -----------------  -----------------  -----------------  -----------------
         N            1.771702753134    -0.972558179744    -0.387234821945    14.003074004430
         C            1.002408753134     0.094273820256     0.026262178055    12.000000000000
         C           -0.456380246866     0.041302820256     0.017450178055    12.000000000000
         C            1.888297753134     1.088571820256     0.432071178055    12.000000000000
         C           -1.201767246866     1.196757820256    -0.270939821945    12.000000000000
         C           -1.141920246866    -1.154341179744     0.293286178055    12.000000000000
         C            3.106192753134    -0.675313179744    -0.278095821945    12.000000000000
         C            3.205154553134     0.623707720256     0.247687278055    12.000000000000
         C           -2.595108246866     1.158926820256    -0.269897821945    12.000000000000
         C           -2.535980246866    -1.194225179744     0.268707178055    12.000000000000
         C           -3.268214246866    -0.038123179744    -0.010414821945    12.000000000000
         H            1.393844753134    -1.799357179744    -0.832695821945     1.007825032230
         H            1.602006753134     2.040259820256     0.862075178055     1.007825032230
         H           -0.676890246866     2.119681820256    -0.507937821945     1.007825032230
         H           -0.580224246866    -2.046392179744     0.565932178055     1.007825032230
         H            3.866021753134    -1.383627179744    -0.578526821945     1.007825032230
         H            4.125969753134     1.123277820256     0.469042178055     1.007825032230
         H           -3.158416246866     2.062128820256    -0.493472821945     1.007825032230
         H           -3.052275246866    -2.126670179744     0.485911178055     1.007825032230
         H           -4.354988246866    -0.068336179744    -0.020844821945     1.007825032230

  Basis Set: AUG-CC-PVTZ
    Blend: AUG-CC-PVTZ
  Basis Set: (AUG-CC-PVTZ AUX)
    Blend: AUG-CC-PVTZ-JKFIT
	 Reference Energy          =    -438.5075709237844990 [Eh]
	 Singles Energy            =      -0.0000000000000000 [Eh]
	 Same-Spin Energy          =      -0.4955644192750245 [Eh]
	 Opposite-Spin Energy      =      -1.5258434570458577 [Eh]
	 Correlation Energy        =      -2.0214078763208820 [Eh]
	 Total Energy              =    -440.5289788001053921 [Eh]

	 ================> DF-SCS-MP2 Energies <==================
	-----------------------------------------------------------
	 SCS Same-Spin Scale       =       0.3333333333333333 [-]
	 SCS Opposite-Spin Scale   =       1.2000000000000000 [-]
	 SCS Same-Spin Energy      =      -0.1651881397583415 [Eh]
	 SCS Opposite-Spin Energy  =      -1.8310121484550290 [Eh]
	 SCS Correlation Energy    =      -1.9962002882133705 [Eh]
	 SCS Total Energy          =    -440.5037712119978437 [Eh]
	-----------------------------------------------------------

  Dipole Moment: [D]
     X:    -0.4480      Y:    -1.3228      Z:    -0.6493     Total:     1.5401

*** Psi4 exiting successfully. Buy a developer a beer!
