                               Psi4 1.3.2 release

  ==> Input File <==

--------------------------------------------------------------------------
#psi4
#
memory 32 gb

molecule  {
0 1
  N        1.7773000    -0.9706020    -0.3863220
  C        0.9894161     0.1102834     0.0340514
  C       -0.4507830     0.0432590     0.0183630
  C        1.8938950     1.0905280     0.4329840
  C       -1.1961700     1.1987140    -0.2700270
  C       -1.1363230    -1.1523850     0.2941990
  C        3.1117900    -0.6733570    -0.2771830
  C        3.2093430     0.6071710     0.2411150
  C       -2.5895110     1.1608830    -0.2689850
  C       -2.5303830    -1.1922690     0.2696200
  C       -3.2626170    -0.0361670    -0.0095020
  H        1.3994420    -1.7974010    -0.8317830
  H        1.6076040     2.0422160     0.8629880
  H       -0.6712930     2.1216380    -0.5070250
  H       -0.5746270    -2.0444360     0.5668450
  H        3.8716190    -1.3816710    -0.5776140
  H        4.1315670     1.1252340     0.4699550
  H       -3.1528190     2.0640850    -0.4925600
  H       -3.0466780    -2.1247140     0.4868240
  H       -4.3493910    -0.0663800    -0.0199320
units angstrom
no_reorient  #important for SAPT in psi4, default
symmetry c1  #important for SAPT in psi4, default
}

set PROPERTIES_ORIGIN ["COM"]
properties('MP2/aug-cc-pvtz', properties = ['dipole'])
--------------------------------------------------------------------------

    Molecular point group: c1
  Charge       = 0
  Multiplicity = 1
  Basis Set: AUG-CC-PVTZ
    Blend: AUG-CC-PVTZ
  Basis Set: (AUG-CC-PVTZ AUX)
    Blend: AUG-CC-PVTZ-JKFIT

    Orbital Energies [Eh]
    ---------------------

    Doubly Occupied:

       1A    -15.606935     2A    -11.262316     3A    -11.258600
       4A    -11.252128     5A    -11.242054     6A    -11.240654
       7A    -11.240512     8A    -11.237818     9A    -11.237533
      10A    -11.215341    11A    -11.213183    12A     -1.287594
      13A     -1.156769    14A     -1.051048    15A     -1.041888
      16A     -1.016749    17A     -0.958579    18A     -0.840129
      19A     -0.832465    20A     -0.786597    21A     -0.762360
      22A     -0.735948    23A     -0.680012    24A     -0.633869
      25A     -0.630085    26A     -0.592259    27A     -0.588548
      28A     -0.581321    29A     -0.567296    30A     -0.548426
      31A     -0.538151    32A     -0.504608    33A     -0.502254
      34A     -0.494442    35A     -0.365346    36A     -0.349442
      37A     -0.341354    38A     -0.272527

  @DF-RHF Final Energy:  -438.50714909466529

   => Energetics <=

    Nuclear Repulsion Energy =            536.7483893002006425
    One-Electron Energy =               -1657.1767966572440400
    Two-Electron Energy =                 681.9212582623780463
    Total Energy =                       -438.5071490946653512
  Basis Set: (AUG-CC-PVTZ AUX)
    Blend: AUG-CC-PVTZ-RI
    Molecular point group: c1

    Geometry (in Angstrom), charge = 0, multiplicity = 1:

       Center              X                  Y                   Z               Mass
    ------------   -----------------  -----------------  -----------------  -----------------
         N            1.773380103595    -0.972185825673    -0.387183768466    14.003074004430
         C            0.985496203595     0.108699574327     0.033189631534    12.000000000000
         C           -0.454702896405     0.041675174327     0.017501231534    12.000000000000
         C            1.889975103595     1.088944174327     0.432122231534    12.000000000000
         C           -1.200089896405     1.197130174327    -0.270888768466    12.000000000000
         C           -1.140242896405    -1.153968825673     0.293337231534    12.000000000000
         C            3.107870103595    -0.674940825673    -0.278044768466    12.000000000000
         C            3.205423103595     0.605587174327     0.240253231534    12.000000000000
         C           -2.593430896405     1.159299174327    -0.269846768466    12.000000000000
         C           -2.534302896405    -1.193852825673     0.268758231534    12.000000000000
         C           -3.266536896405    -0.037750825673    -0.010363768466    12.000000000000
         H            1.395522103595    -1.798984825673    -0.832644768466     1.007825032230
         H            1.603684103595     2.040632174327     0.862126231534     1.007825032230
         H           -0.675212896405     2.120054174327    -0.507886768466     1.007825032230
         H           -0.578546896405    -2.046019825673     0.565983231534     1.007825032230
         H            3.867699103595    -1.383254825673    -0.578475768466     1.007825032230
         H            4.127647103595     1.123650174327     0.469093231534     1.007825032230
         H           -3.156738896405     2.062501174327    -0.493421768466     1.007825032230
         H           -3.050597896405    -2.126297825673     0.485962231534     1.007825032230
         H           -4.353310896405    -0.067963825673    -0.020793768466     1.007825032230

  Basis Set: AUG-CC-PVTZ
    Blend: AUG-CC-PVTZ
  Basis Set: (AUG-CC-PVTZ AUX)
    Blend: AUG-CC-PVTZ-JKFIT
	 Reference Energy          =    -438.5071490946652943 [Eh]
	 Singles Energy            =      -0.0000000000000000 [Eh]
	 Same-Spin Energy          =      -0.4955394167914530 [Eh]
	 Opposite-Spin Energy      =      -1.5259971505783148 [Eh]
	 Correlation Energy        =      -2.0215365673697678 [Eh]
	 Total Energy              =    -440.5286856620350591 [Eh]

	 ================> DF-SCS-MP2 Energies <==================
	-----------------------------------------------------------
	 SCS Same-Spin Scale       =       0.3333333333333333 [-]
	 SCS Opposite-Spin Scale   =       1.2000000000000000 [-]
	 SCS Same-Spin Energy      =      -0.1651798055971510 [Eh]
	 SCS Opposite-Spin Energy  =      -1.8311965806939776 [Eh]
	 SCS Correlation Energy    =      -1.9963763862911286 [Eh]
	 SCS Total Energy          =    -440.5035254809563980 [Eh]
	-----------------------------------------------------------

  Dipole Moment: [D]
     X:    -0.4413      Y:    -1.2980      Z:    -0.6364     Total:     1.5114

*** Psi4 exiting successfully. Buy a developer a beer!
