                               Psi4 1.3.2 release

  ==> Input File <==

--------------------------------------------------------------------------
#psi4
#
memory 32 gb

molecule  {
0 1
  N        1.7773000    -0.9706020    -0.3863220
  C        1.0268657     0.0824795     0.0204222
  C       -0.4507830     0.0432590     0.0183630
  C        1.8938950     1.0905280     0.4329840
  C       -1.1961700     1.1987140    -0.2700270
  C       -1.1363230    -1.1523850     0.2941990
  C        3.1117900    -0.6733570    -0.2771830
  C        3.2093430     0.6071710     0.2411150
  C       -2.5895110     1.1608830    -0.2689850
  C       -2.5303830    -1.1922690     0.2696200
  C       -3.2626170    -0.0361670    -0.0095020
  H        1.3994420    -1.7974010    -0.8317830
  H        1.6076040     2.0422160     0.8629880
  H       -0.6712930     2.1216380    -0.5070250
  H       -0.5746270    -2.0444360     0.5668450
  H        3.8716190    -1.3816710    -0.5776140
  H        4.1315670     1.1252340     0.4699550
  H       -3.1528190     2.0640850    -0.4925600
  H       -3.0466780    -2.1247140     0.4868240
  H       -4.3493910    -0.0663800    -0.0199320
units angstrom
no_reorient  #important for SAPT in psi4, default
symmetry c1  #important for SAPT in psi4, default
}

set PROPERTIES_ORIGIN ["COM"]
properties('MP2/aug-cc-pvtz', properties = ['dipole'])
--------------------------------------------------------------------------

    Molecular point group: c1
  Charge       = 0
  Multiplicity = 1
  Basis Set: AUG-CC-PVTZ
    Blend: AUG-CC-PVTZ
  Basis Set: (AUG-CC-PVTZ AUX)
    Blend: AUG-CC-PVTZ-JKFIT

    Orbital Energies [Eh]
    ---------------------

    Doubly Occupied:

       1A    -15.609515     2A    -11.261970     3A    -11.254616
       4A    -11.254298     5A    -11.241980     6A    -11.240818
       7A    -11.240416     8A    -11.238076     9A    -11.237767
      10A    -11.213765    11A    -11.211268    12A     -1.301154
      13A     -1.155586    14A     -1.047469    15A     -1.043427
      16A     -1.016816    17A     -0.959873    18A     -0.835671
      19A     -0.831968    20A     -0.790962    21A     -0.767615
      22A     -0.734513    23A     -0.679753    24A     -0.632753
      25A     -0.629306    26A     -0.596080    27A     -0.589550
      28A     -0.583608    29A     -0.571201    30A     -0.550170
      31A     -0.535729    32A     -0.504755    33A     -0.499104
      34A     -0.493832    35A     -0.361582    36A     -0.351078
      37A     -0.341328    38A     -0.274146

  @DF-RHF Final Energy:  -438.50913027887623

   => Energetics <=

    Nuclear Repulsion Energy =            536.9206881319111062
    One-Electron Energy =               -1657.4925922727475154
    Two-Electron Energy =                 682.0627738619602951
    Total Energy =                       -438.5091302788762277
  Basis Set: (AUG-CC-PVTZ AUX)
    Blend: AUG-CC-PVTZ-RI
    Molecular point group: c1

    Geometry (in Angstrom), charge = 0, multiplicity = 1:

       Center              X                  Y                   Z               Mass
    ------------   -----------------  -----------------  -----------------  -----------------
         N            1.770239094238    -0.969853829869    -0.386040646917    14.003074004430
         C            1.019804794238     0.083227670131     0.020703553083    12.000000000000
         C           -0.457843905762     0.044007170131     0.018644353083    12.000000000000
         C            1.886834094238     1.091276170131     0.433265353083    12.000000000000
         C           -1.203230905762     1.199462170131    -0.269745646917    12.000000000000
         C           -1.143383905762    -1.151636829869     0.294480353083    12.000000000000
         C            3.104729094238    -0.672608829869    -0.276901646917    12.000000000000
         C            3.202282094238     0.607919170131     0.241396353083    12.000000000000
         C           -2.596571905762     1.161631170131    -0.268703646917    12.000000000000
         C           -2.537443905762    -1.191520829869     0.269901353083    12.000000000000
         C           -3.269677905762    -0.035418829869    -0.009220646917    12.000000000000
         H            1.392381094238    -1.796652829869    -0.831501646917     1.007825032230
         H            1.600543094238     2.042964170131     0.863269353083     1.007825032230
         H           -0.678353905762     2.122386170131    -0.506743646917     1.007825032230
         H           -0.581687905762    -2.043687829869     0.567126353083     1.007825032230
         H            3.864558094238    -1.380922829869    -0.577332646917     1.007825032230
         H            4.124506094238     1.125982170131     0.470236353083     1.007825032230
         H           -3.159879905762     2.064833170131    -0.492278646917     1.007825032230
         H           -3.053738905762    -2.123965829869     0.487105353083     1.007825032230
         H           -4.356451905762    -0.065631829869    -0.019650646917     1.007825032230

  Basis Set: AUG-CC-PVTZ
    Blend: AUG-CC-PVTZ
  Basis Set: (AUG-CC-PVTZ AUX)
    Blend: AUG-CC-PVTZ-JKFIT
	 Reference Energy          =    -438.5091302788762277 [Eh]
	 Singles Energy            =      -0.0000000000000000 [Eh]
	 Same-Spin Energy          =      -0.4950021647242215 [Eh]
	 Opposite-Spin Energy      =      -1.5247295825739298 [Eh]
	 Correlation Energy        =      -2.0197317472981511 [Eh]
	 Total Energy              =    -440.5288620261743517 [Eh]

	 ================> DF-SCS-MP2 Energies <==================
	-----------------------------------------------------------
	 SCS Same-Spin Scale       =       0.3333333333333333 [-]
	 SCS Opposite-Spin Scale   =       1.2000000000000000 [-]
	 SCS Same-Spin Energy      =      -0.1650007215747405 [Eh]
	 SCS Opposite-Spin Energy  =      -1.8296754990887156 [Eh]
	 SCS Correlation Energy    =      -1.9946762206634561 [Eh]
	 SCS Total Energy          =    -440.5038064995396780 [Eh]
	-----------------------------------------------------------

  Dipole Moment: [D]
     X:    -0.4642      Y:    -1.3398      Z:    -0.6586     Total:     1.5634

*** Psi4 exiting successfully. Buy a developer a beer!
