                               Psi4 1.3.2 release

  ==> Input File <==

--------------------------------------------------------------------------
#psi4
#
memory 32 gb

molecule  {
0 1
  N        1.7369047    -0.9947348    -0.3964122
  C        1.0080060     0.0962300     0.0271750
  C       -0.4507830     0.0432590     0.0183630
  C        1.8938950     1.0905280     0.4329840
  C       -1.1961700     1.1987140    -0.2700270
  C       -1.1363230    -1.1523850     0.2941990
  C        3.1117900    -0.6733570    -0.2771830
  C        3.2093430     0.6071710     0.2411150
  C       -2.5895110     1.1608830    -0.2689850
  C       -2.5303830    -1.1922690     0.2696200
  C       -3.2626170    -0.0361670    -0.0095020
  H        1.3994420    -1.7974010    -0.8317830
  H        1.6076040     2.0422160     0.8629880
  H       -0.6712930     2.1216380    -0.5070250
  H       -0.5746270    -2.0444360     0.5668450
  H        3.8716190    -1.3816710    -0.5776140
  H        4.1315670     1.1252340     0.4699550
  H       -3.1528190     2.0640850    -0.4925600
  H       -3.0466780    -2.1247140     0.4868240
  H       -4.3493910    -0.0663800    -0.0199320
units angstrom
no_reorient  #important for SAPT in psi4, default
symmetry c1  #important for SAPT in psi4, default
}

set PROPERTIES_ORIGIN ["COM"]
properties('MP2/aug-cc-pvtz', properties = ['dipole'])
--------------------------------------------------------------------------

    Molecular point group: c1
  Charge       = 0
  Multiplicity = 1
  Basis Set: AUG-CC-PVTZ
    Blend: AUG-CC-PVTZ
  Basis Set: (AUG-CC-PVTZ AUX)
    Blend: AUG-CC-PVTZ-JKFIT

    Orbital Energies [Eh]
    ---------------------

    Doubly Occupied:

       1A    -15.604002     2A    -11.265868     3A    -11.259458
       4A    -11.252154     5A    -11.241875     6A    -11.240570
       7A    -11.240370     8A    -11.237975     9A    -11.237654
      10A    -11.217984    11A    -11.213829    12A     -1.285272
      13A     -1.155577    14A     -1.051064    15A     -1.044970
      16A     -1.016794    17A     -0.955560    18A     -0.838653
      19A     -0.831850    20A     -0.797034    21A     -0.762091
      22A     -0.733937    23A     -0.678142    24A     -0.632059
      25A     -0.628325    26A     -0.601343    27A     -0.589200
      28A     -0.578104    29A     -0.564206    30A     -0.550276
      31A     -0.537603    32A     -0.503222    33A     -0.500520
      34A     -0.494543    35A     -0.361516    36A     -0.354060
      37A     -0.341180    38A     -0.273812

  @DF-RHF Final Energy:  -438.50576195246640

   => Energetics <=

    Nuclear Repulsion Energy =            536.4214980308097438
    One-Electron Energy =               -1656.5092137332908351
    Two-Electron Energy =                 681.5819537500146907
    Total Energy =                       -438.5057619524664005
  Basis Set: (AUG-CC-PVTZ AUX)
    Blend: AUG-CC-PVTZ-RI
    Molecular point group: c1

    Geometry (in Angstrom), charge = 0, multiplicity = 1:

       Center              X                  Y                   Z               Mass
    ------------   -----------------  -----------------  -----------------  -----------------
         N            1.735379234269    -0.992777968690    -0.395709663277    14.003074004430
         C            1.006480534269     0.098186831310     0.027877536723    12.000000000000
         C           -0.452308465731     0.045215831310     0.019065536723    12.000000000000
         C            1.892369534269     1.092484831310     0.433686536723    12.000000000000
         C           -1.197695465731     1.200670831310    -0.269324463277    12.000000000000
         C           -1.137848465731    -1.150428168690     0.294901536723    12.000000000000
         C            3.110264534269    -0.671400168690    -0.276480463277    12.000000000000
         C            3.207817534269     0.609127831310     0.241817536723    12.000000000000
         C           -2.591036465731     1.162839831310    -0.268282463277    12.000000000000
         C           -2.531908465731    -1.190312168690     0.270322536723    12.000000000000
         C           -3.264142465731    -0.034210168690    -0.008799463277    12.000000000000
         H            1.397916534269    -1.795444168690    -0.831080463277     1.007825032230
         H            1.606078534269     2.044172831310     0.863690536723     1.007825032230
         H           -0.672818465731     2.123594831310    -0.506322463277     1.007825032230
         H           -0.576152465731    -2.042479168690     0.567547536723     1.007825032230
         H            3.870093534269    -1.379714168690    -0.576911463277     1.007825032230
         H            4.130041534269     1.127190831310     0.470657536723     1.007825032230
         H           -3.154344465731     2.066041831310    -0.491857463277     1.007825032230
         H           -3.048203465731    -2.122757168690     0.487526536723     1.007825032230
         H           -4.350916465731    -0.064423168690    -0.019229463277     1.007825032230

  Basis Set: AUG-CC-PVTZ
    Blend: AUG-CC-PVTZ
  Basis Set: (AUG-CC-PVTZ AUX)
    Blend: AUG-CC-PVTZ-JKFIT
	 Reference Energy          =    -438.5057619524664005 [Eh]
	 Singles Energy            =      -0.0000000000000000 [Eh]
	 Same-Spin Energy          =      -0.4947515776817731 [Eh]
	 Opposite-Spin Energy      =      -1.5254242025887512 [Eh]
	 Correlation Energy        =      -2.0201757802705242 [Eh]
	 Total Energy              =    -440.5259377327369066 [Eh]

	 ================> DF-SCS-MP2 Energies <==================
	-----------------------------------------------------------
	 SCS Same-Spin Scale       =       0.3333333333333333 [-]
	 SCS Opposite-Spin Scale   =       1.2000000000000000 [-]
	 SCS Same-Spin Energy      =      -0.1649171925605910 [Eh]
	 SCS Opposite-Spin Energy  =      -1.8305090431065014 [Eh]
	 SCS Correlation Energy    =      -1.9954262356670924 [Eh]
	 SCS Total Energy          =    -440.5011881881334830 [Eh]
	-----------------------------------------------------------

  Dipole Moment: [D]
     X:    -0.3845      Y:    -1.2085      Z:    -0.6052     Total:     1.4052

*** Psi4 exiting successfully. Buy a developer a beer!
