                               Psi4 1.3.2 release

  ==> Input File <==

--------------------------------------------------------------------------
#psi4
#
memory 32 gb

molecule  {
0 1
  N        1.8176814    -1.0977818    -0.4392813
  C        1.0080060     0.0962300     0.0271750
  C       -0.4507830     0.0432590     0.0183630
  C        1.8938950     1.0905280     0.4329840
  C       -1.1961700     1.1987140    -0.2700270
  C       -1.1363230    -1.1523850     0.2941990
  C        3.1117900    -0.6733570    -0.2771830
  C        3.2093430     0.6071710     0.2411150
  C       -2.5895110     1.1608830    -0.2689850
  C       -2.5303830    -1.1922690     0.2696200
  C       -3.2626170    -0.0361670    -0.0095020
  H        1.3994420    -1.7974010    -0.8317830
  H        1.6076040     2.0422160     0.8629880
  H       -0.6712930     2.1216380    -0.5070250
  H       -0.5746270    -2.0444360     0.5668450
  H        3.8716190    -1.3816710    -0.5776140
  H        4.1315670     1.1252340     0.4699550
  H       -3.1528190     2.0640850    -0.4925600
  H       -3.0466780    -2.1247140     0.4868240
  H       -4.3493910    -0.0663800    -0.0199320
units angstrom
no_reorient  #important for SAPT in psi4, default
symmetry c1  #important for SAPT in psi4, default
}

set PROPERTIES_ORIGIN ["COM"]
properties('MP2/aug-cc-pvtz', properties = ['dipole'])
--------------------------------------------------------------------------

    Molecular point group: c1
  Charge       = 0
  Multiplicity = 1
  Basis Set: AUG-CC-PVTZ
    Blend: AUG-CC-PVTZ
  Basis Set: (AUG-CC-PVTZ AUX)
    Blend: AUG-CC-PVTZ-JKFIT

    Orbital Energies [Eh]
    ---------------------

    Doubly Occupied:

       1A    -15.597717     2A    -11.271192     3A    -11.268759
       4A    -11.252554     5A    -11.240748     6A    -11.239837
       7A    -11.238679     8A    -11.236744     9A    -11.236302
      10A    -11.226509    11A    -11.216060    12A     -1.271076
      13A     -1.155195    14A     -1.065158    15A     -1.041775
      16A     -1.016028    17A     -0.950662    18A     -0.845735
      19A     -0.830975    20A     -0.808952    21A     -0.754058
      22A     -0.731208    23A     -0.678300    24A     -0.636177
      25A     -0.627997    26A     -0.609657    27A     -0.588446
      28A     -0.561865    29A     -0.558420    30A     -0.551999
      31A     -0.536067    32A     -0.501125    33A     -0.499050
      34A     -0.492984    35A     -0.371945    36A     -0.352301
      37A     -0.340360    38A     -0.270748

  @DF-RHF Final Energy:  -438.47979419383262

   => Energetics <=

    Nuclear Repulsion Energy =            533.9738749675324243
    One-Electron Energy =               -1651.5606084015419128
    Two-Electron Energy =                 679.1069392401769846
    Total Energy =                       -438.4797941938326176
  Basis Set: (AUG-CC-PVTZ AUX)
    Blend: AUG-CC-PVTZ-RI
    Molecular point group: c1

    Geometry (in Angstrom), charge = 0, multiplicity = 1:

       Center              X                  Y                   Z               Mass
    ------------   -----------------  -----------------  -----------------  -----------------
         N            1.808250052931    -1.085739419835    -0.434383023445    14.003074004430
         C            0.998574652931     0.108272380165     0.032073276555    12.000000000000
         C           -0.460214347069     0.055301380165     0.023261276555    12.000000000000
         C            1.884463652931     1.102570380165     0.437882276555    12.000000000000
         C           -1.205601347069     1.210756380165    -0.265128723445    12.000000000000
         C           -1.145754347069    -1.140342619835     0.299097276555    12.000000000000
         C            3.102358652931    -0.661314619835    -0.272284723445    12.000000000000
         C            3.199911652931     0.619213380165     0.246013276555    12.000000000000
         C           -2.598942347069     1.172925380165    -0.264086723445    12.000000000000
         C           -2.539814347069    -1.180226619835     0.274518276555    12.000000000000
         C           -3.272048347069    -0.024124619835    -0.004603723445    12.000000000000
         H            1.390010652931    -1.785358619835    -0.826884723445     1.007825032230
         H            1.598172652931     2.054258380165     0.867886276555     1.007825032230
         H           -0.680724347069     2.133680380165    -0.502126723445     1.007825032230
         H           -0.584058347069    -2.032393619835     0.571743276555     1.007825032230
         H            3.862187652931    -1.369628619835    -0.572715723445     1.007825032230
         H            4.122135652931     1.137276380165     0.474853276555     1.007825032230
         H           -3.162250347069     2.076127380165    -0.487661723445     1.007825032230
         H           -3.056109347069    -2.112671619835     0.491722276555     1.007825032230
         H           -4.358822347069    -0.054337619835    -0.015033723445     1.007825032230

  Basis Set: AUG-CC-PVTZ
    Blend: AUG-CC-PVTZ
  Basis Set: (AUG-CC-PVTZ AUX)
    Blend: AUG-CC-PVTZ-JKFIT
	 Reference Energy          =    -438.4797941938326176 [Eh]
	 Singles Energy            =      -0.0000000000000000 [Eh]
	 Same-Spin Energy          =      -0.4943537265362125 [Eh]
	 Opposite-Spin Energy      =      -1.5266315643984858 [Eh]
	 Correlation Energy        =      -2.0209852909346981 [Eh]
	 Total Energy              =    -440.5007794847672926 [Eh]

	 ================> DF-SCS-MP2 Energies <==================
	-----------------------------------------------------------
	 SCS Same-Spin Scale       =       0.3333333333333333 [-]
	 SCS Opposite-Spin Scale   =       1.2000000000000000 [-]
	 SCS Same-Spin Energy      =      -0.1647845755120708 [Eh]
	 SCS Opposite-Spin Energy  =      -1.8319578772781828 [Eh]
	 SCS Correlation Energy    =      -1.9967424527902535 [Eh]
	 SCS Total Energy          =    -440.4765366466228897 [Eh]
	-----------------------------------------------------------

  Dipole Moment: [D]
     X:    -0.3901      Y:    -0.9788      Z:    -0.5155     Total:     1.1730

*** Psi4 exiting successfully. Buy a developer a beer!
