                               Psi4 1.3.2 release

  ==> Input File <==

--------------------------------------------------------------------------
#psi4
#
memory 32 gb

molecule  {
0 1
  N        1.7773000    -0.9706020    -0.3863220
  C        1.0080060     0.0962300     0.0271750
  C       -0.5507153     0.0396303     0.0177593
  C        1.8938950     1.0905280     0.4329840
  C       -1.1961700     1.1987140    -0.2700270
  C       -1.1363230    -1.1523850     0.2941990
  C        3.1117900    -0.6733570    -0.2771830
  C        3.2093430     0.6071710     0.2411150
  C       -2.5895110     1.1608830    -0.2689850
  C       -2.5303830    -1.1922690     0.2696200
  C       -3.2626170    -0.0361670    -0.0095020
  H        1.3994420    -1.7974010    -0.8317830
  H        1.6076040     2.0422160     0.8629880
  H       -0.6712930     2.1216380    -0.5070250
  H       -0.5746270    -2.0444360     0.5668450
  H        3.8716190    -1.3816710    -0.5776140
  H        4.1315670     1.1252340     0.4699550
  H       -3.1528190     2.0640850    -0.4925600
  H       -3.0466780    -2.1247140     0.4868240
  H       -4.3493910    -0.0663800    -0.0199320
units angstrom
no_reorient  #important for SAPT in psi4, default
symmetry c1  #important for SAPT in psi4, default
}

set PROPERTIES_ORIGIN ["COM"]
properties('MP2/aug-cc-pvtz', properties = ['dipole'])
--------------------------------------------------------------------------

    Molecular point group: c1
  Charge       = 0
  Multiplicity = 1
  Basis Set: AUG-CC-PVTZ
    Blend: AUG-CC-PVTZ
  Basis Set: (AUG-CC-PVTZ AUX)
    Blend: AUG-CC-PVTZ-JKFIT

    Orbital Energies [Eh]
    ---------------------

    Doubly Occupied:

       1A    -15.606063     2A    -11.264328     3A    -11.252716
       4A    -11.251267     5A    -11.243262     6A    -11.242095
       7A    -11.238021     8A    -11.236806     9A    -11.234045
      10A    -11.210914    11A    -11.209084    12A     -1.289913
      13A     -1.167507    14A     -1.043046    15A     -1.039054
      16A     -1.023939    17A     -0.958525    18A     -0.839263
      19A     -0.829720    20A     -0.786526    21A     -0.761809
      22A     -0.733291    23A     -0.677638    24A     -0.636956
      25A     -0.632369    26A     -0.598294    27A     -0.589193
      28A     -0.576655    29A     -0.565164    30A     -0.546950
      31A     -0.534369    32A     -0.512217    33A     -0.507496
      34A     -0.482402    35A     -0.361739    36A     -0.347776
      37A     -0.344280    38A     -0.277906

  @DF-RHF Final Energy:  -438.49974356770815

   => Energetics <=

    Nuclear Repulsion Energy =            536.9471883176278197
    One-Electron Energy =               -1657.5886685743473663
    Two-Electron Energy =                 682.1417366890115090
    Total Energy =                       -438.4997435677081512
  Basis Set: (AUG-CC-PVTZ AUX)
    Blend: AUG-CC-PVTZ-RI
    Molecular point group: c1

    Geometry (in Angstrom), charge = 0, multiplicity = 1:

       Center              X                  Y                   Z               Mass
    ------------   -----------------  -----------------  -----------------  -----------------
         N            1.780202532660    -0.970702775345    -0.386556390227    14.003074004430
         C            1.010908532660     0.096129224655     0.026940609773    12.000000000000
         C           -0.547812767340     0.039529524655     0.017524909773    12.000000000000
         C            1.896797532660     1.090427224655     0.432749609773    12.000000000000
         C           -1.193267467340     1.198613224655    -0.270261390227    12.000000000000
         C           -1.133420467340    -1.152485775345     0.293964609773    12.000000000000
         C            3.114692532660    -0.673457775345    -0.277417390227    12.000000000000
         C            3.212245532660     0.607070224655     0.240880609773    12.000000000000
         C           -2.586608467340     1.160782224655    -0.269219390227    12.000000000000
         C           -2.527480467340    -1.192369775345     0.269385609773    12.000000000000
         C           -3.259714467340    -0.036267775345    -0.009736390227    12.000000000000
         H            1.402344532660    -1.797501775345    -0.832017390227     1.007825032230
         H            1.610506532660     2.042115224655     0.862753609773     1.007825032230
         H           -0.668390467340     2.121537224655    -0.507259390227     1.007825032230
         H           -0.571724467340    -2.044536775345     0.566610609773     1.007825032230
         H            3.874521532660    -1.381771775345    -0.577848390227     1.007825032230
         H            4.134469532660     1.125133224655     0.469720609773     1.007825032230
         H           -3.149916467340     2.063984224655    -0.492794390227     1.007825032230
         H           -3.043775467340    -2.124814775345     0.486589609773     1.007825032230
         H           -4.346488467340    -0.066480775345    -0.020166390227     1.007825032230

  Basis Set: AUG-CC-PVTZ
    Blend: AUG-CC-PVTZ
  Basis Set: (AUG-CC-PVTZ AUX)
    Blend: AUG-CC-PVTZ-JKFIT
	 Reference Energy          =    -438.4997435677081512 [Eh]
	 Singles Energy            =      -0.0000000000000000 [Eh]
	 Same-Spin Energy          =      -0.4943759796406982 [Eh]
	 Opposite-Spin Energy      =      -1.5241260226245936 [Eh]
	 Correlation Energy        =      -2.0185020022652918 [Eh]
	 Total Energy              =    -440.5182455699734305 [Eh]

	 ================> DF-SCS-MP2 Energies <==================
	-----------------------------------------------------------
	 SCS Same-Spin Scale       =       0.3333333333333333 [-]
	 SCS Opposite-Spin Scale   =       1.2000000000000000 [-]
	 SCS Same-Spin Energy      =      -0.1647919932135661 [Eh]
	 SCS Opposite-Spin Energy  =      -1.8289512271495123 [Eh]
	 SCS Correlation Energy    =      -1.9937432203630783 [Eh]
	 SCS Total Energy          =    -440.4934867880712090 [Eh]
	-----------------------------------------------------------

  Dipole Moment: [D]
     X:    -0.7775      Y:    -1.3341      Z:    -0.6545     Total:     1.6771

*** Psi4 exiting successfully. Buy a developer a beer!
