                               Psi4 1.3.2 release

  ==> Input File <==

--------------------------------------------------------------------------
#psi4
#
memory 32 gb

molecule  {
0 1
  N        1.7773000    -0.9706020    -0.3863220
  C        1.0080060     0.0962300     0.0271750
  C       -0.4507830     0.0432590     0.0183630
  C        1.8938950     1.0905280     0.4329840
  C       -1.1961700     1.1987140    -0.2700270
  C       -1.1363230    -1.1523850     0.2941990
  C        3.1218840    -0.7140345    -0.3003199
  C        3.2093430     0.6071710     0.2411150
  C       -2.5895110     1.1608830    -0.2689850
  C       -2.5303830    -1.1922690     0.2696200
  C       -3.2626170    -0.0361670    -0.0095020
  H        1.3994420    -1.7974010    -0.8317830
  H        1.6076040     2.0422160     0.8629880
  H       -0.6712930     2.1216380    -0.5070250
  H       -0.5746270    -2.0444360     0.5668450
  H        3.8716190    -1.3816710    -0.5776140
  H        4.1315670     1.1252340     0.4699550
  H       -3.1528190     2.0640850    -0.4925600
  H       -3.0466780    -2.1247140     0.4868240
  H       -4.3493910    -0.0663800    -0.0199320
units angstrom
no_reorient  #important for SAPT in psi4, default
symmetry c1  #important for SAPT in psi4, default
}

set PROPERTIES_ORIGIN ["COM"]
properties('MP2/aug-cc-pvtz', properties = ['dipole'])
--------------------------------------------------------------------------

    Molecular point group: c1
  Charge       = 0
  Multiplicity = 1
  Basis Set: AUG-CC-PVTZ
    Blend: AUG-CC-PVTZ
  Basis Set: (AUG-CC-PVTZ AUX)
    Blend: AUG-CC-PVTZ-JKFIT

    Orbital Energies [Eh]
    ---------------------

    Doubly Occupied:

       1A    -15.611934     2A    -11.262776     3A    -11.258445
       4A    -11.253771     5A    -11.242175     6A    -11.240938
       7A    -11.240622     8A    -11.238149     9A    -11.237825
      10A    -11.218696    11A    -11.214623    12A     -1.292996
      13A     -1.156360    14A     -1.050256    15A     -1.037475
      16A     -1.016766    17A     -0.959364    18A     -0.838901
      19A     -0.832253    20A     -0.788389    21A     -0.766046
      22A     -0.738074    23A     -0.682523    24A     -0.637401
      25A     -0.629582    26A     -0.591895    27A     -0.590180
      28A     -0.584774    29A     -0.568630    30A     -0.547477
      31A     -0.535376    32A     -0.504950    33A     -0.500941
      34A     -0.494648    35A     -0.363993    36A     -0.347426
      37A     -0.341528    38A     -0.270670

  @DF-RHF Final Energy:  -438.50376876995551

   => Energetics <=

    Nuclear Repulsion Energy =            536.1275850394006284
    One-Electron Energy =               -1655.8850525502869004
    Two-Electron Energy =                 681.2536987409307585
    Total Energy =                       -438.5037687699555136
  Basis Set: (AUG-CC-PVTZ AUX)
    Blend: AUG-CC-PVTZ-RI
    Molecular point group: c1

    Geometry (in Angstrom), charge = 0, multiplicity = 1:

       Center              X                  Y                   Z               Mass
    ------------   -----------------  -----------------  -----------------  -----------------
         N            1.770974299573    -0.967595382276    -0.384666463711    14.003074004430
         C            1.001680299573     0.099236617724     0.028830536289    12.000000000000
         C           -0.457108700427     0.046265617724     0.020018536289    12.000000000000
         C            1.887569299573     1.093534617724     0.434639536289    12.000000000000
         C           -1.202495700427     1.201720617724    -0.268371463711    12.000000000000
         C           -1.142648700427    -1.149378382276     0.295854536289    12.000000000000
         C            3.115558299573    -0.711027882276    -0.298664363711    12.000000000000
         C            3.203017299573     0.610177617724     0.242770536289    12.000000000000
         C           -2.595836700427     1.163889617724    -0.267329463711    12.000000000000
         C           -2.536708700427    -1.189262382276     0.271275536289    12.000000000000
         C           -3.268942700427    -0.033160382276    -0.007846463711    12.000000000000
         H            1.393116299573    -1.794394382276    -0.830127463711     1.007825032230
         H            1.601278299573     2.045222617724     0.864643536289     1.007825032230
         H           -0.677618700427     2.124644617724    -0.505369463711     1.007825032230
         H           -0.580952700427    -2.041429382276     0.568500536289     1.007825032230
         H            3.865293299573    -1.378664382276    -0.575958463711     1.007825032230
         H            4.125241299573     1.128240617724     0.471610536289     1.007825032230
         H           -3.159144700427     2.067091617724    -0.490904463711     1.007825032230
         H           -3.053003700427    -2.121707382276     0.488479536289     1.007825032230
         H           -4.355716700427    -0.063373382276    -0.018276463711     1.007825032230

  Basis Set: AUG-CC-PVTZ
    Blend: AUG-CC-PVTZ
  Basis Set: (AUG-CC-PVTZ AUX)
    Blend: AUG-CC-PVTZ-JKFIT
	 Reference Energy          =    -438.5037687699555136 [Eh]
	 Singles Energy            =      -0.0000000000000000 [Eh]
	 Same-Spin Energy          =      -0.4958918290964077 [Eh]
	 Opposite-Spin Energy      =      -1.5265452723920609 [Eh]
	 Correlation Energy        =      -2.0224371014884688 [Eh]
	 Total Energy              =    -440.5262058714440059 [Eh]

	 ================> DF-SCS-MP2 Energies <==================
	-----------------------------------------------------------
	 SCS Same-Spin Scale       =       0.3333333333333333 [-]
	 SCS Opposite-Spin Scale   =       1.2000000000000000 [-]
	 SCS Same-Spin Energy      =      -0.1652972763654692 [Eh]
	 SCS Opposite-Spin Energy  =      -1.8318543268704730 [Eh]
	 SCS Correlation Energy    =      -1.9971516032359422 [Eh]
	 SCS Total Energy          =    -440.5009203731914340 [Eh]
	-----------------------------------------------------------

  Dipole Moment: [D]
     X:    -0.5044      Y:    -1.3369      Z:    -0.6471     Total:     1.5686

*** Psi4 exiting successfully. Buy a developer a beer!
