                               Psi4 1.3.2 release

  ==> Input File <==

--------------------------------------------------------------------------
#psi4
#
memory 32 gb

molecule  {
0 1
  N        1.7773000    -0.9706020    -0.3863220
  C        1.0080060     0.0962300     0.0271750
  C       -0.4507830     0.0432590     0.0183630
  C        1.8938950     1.0905280     0.4329840
  C       -1.1961700     1.1987140    -0.2700270
  C       -1.1363230    -1.1523850     0.2941990
  C        3.1117900    -0.6733570    -0.2771830
  C        3.3531910     0.5915567     0.2323465
  C       -2.5895110     1.1608830    -0.2689850
  C       -2.5303830    -1.1922690     0.2696200
  C       -3.2626170    -0.0361670    -0.0095020
  H        1.3994420    -1.7974010    -0.8317830
  H        1.6076040     2.0422160     0.8629880
  H       -0.6712930     2.1216380    -0.5070250
  H       -0.5746270    -2.0444360     0.5668450
  H        3.8716190    -1.3816710    -0.5776140
  H        4.1315670     1.1252340     0.4699550
  H       -3.1528190     2.0640850    -0.4925600
  H       -3.0466780    -2.1247140     0.4868240
  H       -4.3493910    -0.0663800    -0.0199320
units angstrom
no_reorient  #important for SAPT in psi4, default
symmetry c1  #important for SAPT in psi4, default
}

set PROPERTIES_ORIGIN ["COM"]
properties('MP2/aug-cc-pvtz', properties = ['dipole'])
--------------------------------------------------------------------------

    Molecular point group: c1
  Charge       = 0
  Multiplicity = 1
  Basis Set: AUG-CC-PVTZ
    Blend: AUG-CC-PVTZ
  Basis Set: (AUG-CC-PVTZ AUX)
    Blend: AUG-CC-PVTZ-JKFIT

    Orbital Energies [Eh]
    ---------------------

    Doubly Occupied:

       1A    -15.605843     2A    -11.265224     3A    -11.265012
       4A    -11.254370     5A    -11.242949     6A    -11.241734
       7A    -11.241317     8A    -11.239032     9A    -11.238685
      10A    -11.223084    11A    -11.217389    12A     -1.289239
      13A     -1.157022    14A     -1.048929    15A     -1.028295
      16A     -1.016267    17A     -0.962029    18A     -0.837965
      19A     -0.833225    20A     -0.798528    21A     -0.766665
      22A     -0.734095    23A     -0.679759    24A     -0.635714
      25A     -0.629930    26A     -0.615741    27A     -0.590945
      28A     -0.581844    29A     -0.567378    30A     -0.565041
      31A     -0.510273    32A     -0.505259    33A     -0.496614
      34A     -0.486089    35A     -0.365349    36A     -0.342070
      37A     -0.336361    38A     -0.280851

  @DF-RHF Final Energy:  -438.48518844205631

   => Energetics <=

    Nuclear Repulsion Energy =            534.3529548374484648
    One-Electron Energy =               -1652.2840521251002883
    Two-Electron Energy =                 679.4459088455955680
    Total Energy =                       -438.4851884420563692
  Basis Set: (AUG-CC-PVTZ AUX)
    Blend: AUG-CC-PVTZ-RI
    Molecular point group: c1

    Geometry (in Angstrom), charge = 0, multiplicity = 1:

       Center              X                  Y                   Z               Mass
    ------------   -----------------  -----------------  -----------------  -----------------
         N            1.759755953702    -0.969697507418    -0.385871584162    14.003074004430
         C            0.990461953702     0.097134492582     0.027625415838    12.000000000000
         C           -0.468327046298     0.044163492582     0.018813415838    12.000000000000
         C            1.876350953702     1.091432492582     0.433434415838    12.000000000000
         C           -1.213714046298     1.199618492582    -0.269576584162    12.000000000000
         C           -1.153867046298    -1.151480507418     0.294649415838    12.000000000000
         C            3.094245953702    -0.672452507418    -0.276732584162    12.000000000000
         C            3.335646953702     0.592461192582     0.232796915838    12.000000000000
         C           -2.607055046298     1.161787492582    -0.268534584162    12.000000000000
         C           -2.547927046298    -1.191364507418     0.270070415838    12.000000000000
         C           -3.280161046298    -0.035262507418    -0.009051584162    12.000000000000
         H            1.381897953702    -1.796496507418    -0.831332584162     1.007825032230
         H            1.590059953702     2.043120492582     0.863438415838     1.007825032230
         H           -0.688837046298     2.122542492582    -0.506574584162     1.007825032230
         H           -0.592171046298    -2.043531507418     0.567295415838     1.007825032230
         H            3.854074953702    -1.380766507418    -0.577163584162     1.007825032230
         H            4.114022953702     1.126138492582     0.470405415838     1.007825032230
         H           -3.170363046298     2.064989492582    -0.492109584162     1.007825032230
         H           -3.064222046298    -2.123809507418     0.487274415838     1.007825032230
         H           -4.366935046298    -0.065475507418    -0.019481584162     1.007825032230

  Basis Set: AUG-CC-PVTZ
    Blend: AUG-CC-PVTZ
  Basis Set: (AUG-CC-PVTZ AUX)
    Blend: AUG-CC-PVTZ-JKFIT
	 Reference Energy          =    -438.4851884420563124 [Eh]
	 Singles Energy            =      -0.0000000000000000 [Eh]
	 Same-Spin Energy          =      -0.4938131575610416 [Eh]
	 Opposite-Spin Energy      =      -1.5257069889744295 [Eh]
	 Correlation Energy        =      -2.0195201465354709 [Eh]
	 Total Energy              =    -440.5047085885917681 [Eh]

	 ================> DF-SCS-MP2 Energies <==================
	-----------------------------------------------------------
	 SCS Same-Spin Scale       =       0.3333333333333333 [-]
	 SCS Opposite-Spin Scale   =       1.2000000000000000 [-]
	 SCS Same-Spin Energy      =      -0.1646043858536805 [Eh]
	 SCS Opposite-Spin Energy  =      -1.8308483867693153 [Eh]
	 SCS Correlation Energy    =      -1.9954527726229958 [Eh]
	 SCS Total Energy          =    -440.4806412146792809 [Eh]
	-----------------------------------------------------------

  Dipole Moment: [D]
     X:    -0.5938      Y:    -1.3221      Z:    -0.6425     Total:     1.5854

*** Psi4 exiting successfully. Buy a developer a beer!
