                               Psi4 1.3.2 release

  ==> Input File <==

--------------------------------------------------------------------------
#psi4
#
memory 32 gb

molecule  {
0 1
  N        1.7773000    -0.9706020    -0.3863220
  C        1.0080060     0.0962300     0.0271750
  C       -0.4507830     0.0432590     0.0183630
  C        1.8938950     1.0905280     0.4329840
  C       -1.1961700     1.1987140    -0.2700270
  C       -1.1363230    -1.1523850     0.2941990
  C        3.0877003    -0.6714012    -0.2769173
  C        3.2093430     0.6071710     0.2411150
  C       -2.5895110     1.1608830    -0.2689850
  C       -2.5303830    -1.1922690     0.2696200
  C       -3.2626170    -0.0361670    -0.0095020
  H        1.3994420    -1.7974010    -0.8317830
  H        1.6076040     2.0422160     0.8629880
  H       -0.6712930     2.1216380    -0.5070250
  H       -0.5746270    -2.0444360     0.5668450
  H        3.8716190    -1.3816710    -0.5776140
  H        4.1315670     1.1252340     0.4699550
  H       -3.1528190     2.0640850    -0.4925600
  H       -3.0466780    -2.1247140     0.4868240
  H       -4.3493910    -0.0663800    -0.0199320
units angstrom
no_reorient  #important for SAPT in psi4, default
symmetry c1  #important for SAPT in psi4, default
}

set PROPERTIES_ORIGIN ["COM"]
properties('MP2/aug-cc-pvtz', properties = ['dipole'])
--------------------------------------------------------------------------

    Molecular point group: c1
  Charge       = 0
  Multiplicity = 1
  Basis Set: AUG-CC-PVTZ
    Blend: AUG-CC-PVTZ
  Basis Set: (AUG-CC-PVTZ AUX)
    Blend: AUG-CC-PVTZ-JKFIT

    Orbital Energies [Eh]
    ---------------------

    Doubly Occupied:

       1A    -15.609678     2A    -11.260310     3A    -11.257123
       4A    -11.252890     5A    -11.241682     6A    -11.240354
       7A    -11.239999     8A    -11.237317     9A    -11.237067
      10A    -11.213921    11A    -11.211688    12A     -1.301390
      13A     -1.155927    14A     -1.050219    15A     -1.043290
      16A     -1.016453    17A     -0.958803    18A     -0.836675
      19A     -0.832094    20A     -0.791043    21A     -0.766419
      22A     -0.734386    23A     -0.679417    24A     -0.632948
      25A     -0.629690    26A     -0.596064    27A     -0.589896
      28A     -0.581190    29A     -0.572577    30A     -0.550973
      31A     -0.532687    32A     -0.504380    33A     -0.500447
      34A     -0.493993    35A     -0.364185    36A     -0.350315
      37A     -0.341018    38A     -0.272443

  @DF-RHF Final Energy:  -438.50851765221984

   => Energetics <=

    Nuclear Repulsion Energy =            537.3370920043391834
    One-Electron Energy =               -1658.3293135672226981
    Two-Electron Energy =                 682.4837039106637349
    Total Energy =                       -438.5085176522197798
  Basis Set: (AUG-CC-PVTZ AUX)
    Blend: AUG-CC-PVTZ-RI
    Molecular point group: c1

    Geometry (in Angstrom), charge = 0, multiplicity = 1:

       Center              X                  Y                   Z               Mass
    ------------   -----------------  -----------------  -----------------  -----------------
         N            1.773841388181    -0.971171163973    -0.386629309391    14.003074004430
         C            1.004547388181     0.095660836027     0.026867690609    12.000000000000
         C           -0.454241611819     0.042689836027     0.018055690609    12.000000000000
         C            1.890436388181     1.089958836027     0.432676690609    12.000000000000
         C           -1.199628611819     1.198144836027    -0.270334309391    12.000000000000
         C           -1.139781611819    -1.152954163973     0.293891690609    12.000000000000
         C            3.084241688181    -0.671970363973    -0.277224609391    12.000000000000
         C            3.205884388181     0.606601836027     0.240807690609    12.000000000000
         C           -2.592969611819     1.160313836027    -0.269292309391    12.000000000000
         C           -2.533841611819    -1.192838163973     0.269312690609    12.000000000000
         C           -3.266075611819    -0.036736163973    -0.009809309391    12.000000000000
         H            1.395983388181    -1.797970163973    -0.832090309391     1.007825032230
         H            1.604145388181     2.041646836027     0.862680690609     1.007825032230
         H           -0.674751611819     2.121068836027    -0.507332309391     1.007825032230
         H           -0.578085611819    -2.045005163973     0.566537690609     1.007825032230
         H            3.868160388181    -1.382240163973    -0.577921309391     1.007825032230
         H            4.128108388181     1.124664836027     0.469647690609     1.007825032230
         H           -3.156277611819     2.063515836027    -0.492867309391     1.007825032230
         H           -3.050136611819    -2.125283163973     0.486516690609     1.007825032230
         H           -4.352849611819    -0.066949163973    -0.020239309391     1.007825032230

  Basis Set: AUG-CC-PVTZ
    Blend: AUG-CC-PVTZ
  Basis Set: (AUG-CC-PVTZ AUX)
    Blend: AUG-CC-PVTZ-JKFIT
	 Reference Energy          =    -438.5085176522198367 [Eh]
	 Singles Energy            =      -0.0000000000000000 [Eh]
	 Same-Spin Energy          =      -0.4953162353217833 [Eh]
	 Opposite-Spin Energy      =      -1.5250449879953667 [Eh]
	 Correlation Energy        =      -2.0203612233171500 [Eh]
	 Total Energy              =    -440.5288788755369751 [Eh]

	 ================> DF-SCS-MP2 Energies <==================
	-----------------------------------------------------------
	 SCS Same-Spin Scale       =       0.3333333333333333 [-]
	 SCS Opposite-Spin Scale   =       1.2000000000000000 [-]
	 SCS Same-Spin Energy      =      -0.1651054117739278 [Eh]
	 SCS Opposite-Spin Energy  =      -1.8300539855944400 [Eh]
	 SCS Correlation Energy    =      -1.9951593973683677 [Eh]
	 SCS Total Energy          =    -440.5036770495881910 [Eh]
	-----------------------------------------------------------

  Dipole Moment: [D]
     X:    -0.4349      Y:    -1.3410      Z:    -0.6563     Total:     1.5550

*** Psi4 exiting successfully. Buy a developer a beer!
