                               Psi4 1.3.2 release

  ==> Input File <==

--------------------------------------------------------------------------
#psi4
#
memory 32 gb

molecule  {
0 1
  N        1.7773000    -0.9706020    -0.3863220
  C        1.0080060     0.0962300     0.0271750
  C       -0.4507830     0.0432590     0.0183630
  C        1.8938950     1.0905280     0.4329840
  C       -1.1752757     1.2112632    -0.2727097
  C       -1.1363230    -1.1523850     0.2941990
  C        3.1117900    -0.6733570    -0.2771830
  C        3.2093430     0.6071710     0.2411150
  C       -2.5895110     1.1608830    -0.2689850
  C       -2.5303830    -1.1922690     0.2696200
  C       -3.2626170    -0.0361670    -0.0095020
  H        1.3994420    -1.7974010    -0.8317830
  H        1.6076040     2.0422160     0.8629880
  H       -0.6712930     2.1216380    -0.5070250
  H       -0.5746270    -2.0444360     0.5668450
  H        3.8716190    -1.3816710    -0.5776140
  H        4.1315670     1.1252340     0.4699550
  H       -3.1528190     2.0640850    -0.4925600
  H       -3.0466780    -2.1247140     0.4868240
  H       -4.3493910    -0.0663800    -0.0199320
units angstrom
no_reorient  #important for SAPT in psi4, default
symmetry c1  #important for SAPT in psi4, default
}

set PROPERTIES_ORIGIN ["COM"]
properties('MP2/aug-cc-pvtz', properties = ['dipole'])
--------------------------------------------------------------------------

    Molecular point group: c1
  Charge       = 0
  Multiplicity = 1
  Basis Set: AUG-CC-PVTZ
    Blend: AUG-CC-PVTZ
  Basis Set: (AUG-CC-PVTZ AUX)
    Blend: AUG-CC-PVTZ-JKFIT

    Orbital Energies [Eh]
    ---------------------

    Doubly Occupied:

       1A    -15.607951     2A    -11.261593     3A    -11.256301
       4A    -11.253529     5A    -11.243139     6A    -11.242579
       7A    -11.240735     8A    -11.238521     9A    -11.237935
      10A    -11.213689    11A    -11.212561    12A     -1.293897
      13A     -1.154469    14A     -1.049249    15A     -1.042575
      16A     -1.014989    17A     -0.958967    18A     -0.836941
      19A     -0.834002    20A     -0.788271    21A     -0.764804
      22A     -0.734767    23A     -0.680952    24A     -0.634751
      25A     -0.629095    26A     -0.594049    27A     -0.588777
      28A     -0.583241    29A     -0.568718    30A     -0.549299
      31A     -0.536892    32A     -0.503043    33A     -0.498815
      34A     -0.497977    35A     -0.363823    36A     -0.350066
      37A     -0.339199    38A     -0.273414

  @DF-RHF Final Energy:  -438.50785978727185

   => Energetics <=

    Nuclear Repulsion Energy =            536.6214716355805194
    One-Electron Energy =               -1656.9115135106828802
    Two-Electron Energy =                 681.7821820878305061
    Total Energy =                       -438.5078597872718547
  Basis Set: (AUG-CC-PVTZ AUX)
    Blend: AUG-CC-PVTZ-RI
    Molecular point group: c1

    Geometry (in Angstrom), charge = 0, multiplicity = 1:

       Center              X                  Y                   Z               Mass
    ------------   -----------------  -----------------  -----------------  -----------------
         N            1.770068446283    -0.972059663944    -0.386382018312    14.003074004430
         C            1.000774446283     0.094772336056     0.027114981688    12.000000000000
         C           -0.458014553717     0.041801336056     0.018302981688    12.000000000000
         C            1.886663446283     1.089070336056     0.432923981688    12.000000000000
         C           -1.182507253717     1.209805536056    -0.272769718312    12.000000000000
         C           -1.143554553717    -1.153842663944     0.294138981688    12.000000000000
         C            3.104558446283    -0.674814663944    -0.277243018312    12.000000000000
         C            3.202111446283     0.605713336056     0.241054981688    12.000000000000
         C           -2.596742553717     1.159425336056    -0.269045018312    12.000000000000
         C           -2.537614553717    -1.193726663944     0.269559981688    12.000000000000
         C           -3.269848553717    -0.037624663944    -0.009562018312    12.000000000000
         H            1.392210446283    -1.798858663944    -0.831843018312     1.007825032230
         H            1.600372446283     2.040758336056     0.862927981688     1.007825032230
         H           -0.678524553717     2.120180336056    -0.507085018312     1.007825032230
         H           -0.581858553717    -2.045893663944     0.566784981688     1.007825032230
         H            3.864387446283    -1.383128663944    -0.577674018312     1.007825032230
         H            4.124335446283     1.123776336056     0.469894981688     1.007825032230
         H           -3.160050553717     2.062627336056    -0.492620018312     1.007825032230
         H           -3.053909553717    -2.126171663944     0.486763981688     1.007825032230
         H           -4.356622553717    -0.067837663944    -0.019992018312     1.007825032230

  Basis Set: AUG-CC-PVTZ
    Blend: AUG-CC-PVTZ
  Basis Set: (AUG-CC-PVTZ AUX)
    Blend: AUG-CC-PVTZ-JKFIT
	 Reference Energy          =    -438.5078597872718547 [Eh]
	 Singles Energy            =      -0.0000000000000000 [Eh]
	 Same-Spin Energy          =      -0.4952387003675675 [Eh]
	 Opposite-Spin Energy      =      -1.5254665770791322 [Eh]
	 Correlation Energy        =      -2.0207052774466998 [Eh]
	 Total Energy              =    -440.5285650647185776 [Eh]

	 ================> DF-SCS-MP2 Energies <==================
	-----------------------------------------------------------
	 SCS Same-Spin Scale       =       0.3333333333333333 [-]
	 SCS Opposite-Spin Scale   =       1.2000000000000000 [-]
	 SCS Same-Spin Energy      =      -0.1650795667891891 [Eh]
	 SCS Opposite-Spin Energy  =      -1.8305598924949587 [Eh]
	 SCS Correlation Energy    =      -1.9956394592841478 [Eh]
	 SCS Total Energy          =    -440.5034992465559753 [Eh]
	-----------------------------------------------------------

  Dipole Moment: [D]
     X:    -0.4683      Y:    -1.3174      Z:    -0.6494     Total:     1.5416

*** Psi4 exiting successfully. Buy a developer a beer!
