                               Psi4 1.3.2 release

  ==> Input File <==

--------------------------------------------------------------------------
#psi4
#
memory 32 gb

molecule  {
0 1
  N        1.7773000    -0.9706020    -0.3863220
  C        1.0080060     0.0962300     0.0271750
  C       -0.4507830     0.0432590     0.0183630
  C        1.8938950     1.0905280     0.4329840
  C       -1.3022797     1.3631990    -0.3110808
  C       -1.1363230    -1.1523850     0.2941990
  C        3.1117900    -0.6733570    -0.2771830
  C        3.2093430     0.6071710     0.2411150
  C       -2.5895110     1.1608830    -0.2689850
  C       -2.5303830    -1.1922690     0.2696200
  C       -3.2626170    -0.0361670    -0.0095020
  H        1.3994420    -1.7974010    -0.8317830
  H        1.6076040     2.0422160     0.8629880
  H       -0.6712930     2.1216380    -0.5070250
  H       -0.5746270    -2.0444360     0.5668450
  H        3.8716190    -1.3816710    -0.5776140
  H        4.1315670     1.1252340     0.4699550
  H       -3.1528190     2.0640850    -0.4925600
  H       -3.0466780    -2.1247140     0.4868240
  H       -4.3493910    -0.0663800    -0.0199320
units angstrom
no_reorient  #important for SAPT in psi4, default
symmetry c1  #important for SAPT in psi4, default
}

set PROPERTIES_ORIGIN ["COM"]
properties('MP2/aug-cc-pvtz', properties = ['dipole'])
--------------------------------------------------------------------------

    Molecular point group: c1
  Charge       = 0
  Multiplicity = 1
  Basis Set: AUG-CC-PVTZ
    Blend: AUG-CC-PVTZ
  Basis Set: (AUG-CC-PVTZ AUX)
    Blend: AUG-CC-PVTZ-JKFIT

    Orbital Energies [Eh]
    ---------------------

    Doubly Occupied:

       1A    -15.609045     2A    -11.267556     3A    -11.263555
       4A    -11.258728     5A    -11.243430     6A    -11.239980
       7A    -11.238110     8A    -11.236871     9A    -11.230939
      10A    -11.215858    11A    -11.214603    12A     -1.294988
      13A     -1.148048    14A     -1.046159    15A     -1.042873
      16A     -1.026727    17A     -0.955096    18A     -0.847515
      19A     -0.823233    20A     -0.788407    21A     -0.767263
      22A     -0.727722    23A     -0.696321    24A     -0.643313
      25A     -0.622763    26A     -0.601586    27A     -0.591326
      28A     -0.576790    29A     -0.562936    30A     -0.554562
      31A     -0.540821    32A     -0.514596    33A     -0.498382
      34A     -0.458783    35A     -0.366592    36A     -0.352733
      37A     -0.344169    38A     -0.267544

  @DF-RHF Final Energy:  -438.46797919448039

   => Energetics <=

    Nuclear Repulsion Energy =            534.2342947243207618
    One-Electron Energy =               -1652.0447036105470033
    Two-Electron Energy =                 679.3424296917457923
    Total Energy =                       -438.4679791944804492
  Basis Set: (AUG-CC-PVTZ AUX)
    Blend: AUG-CC-PVTZ-RI
    Molecular point group: c1

    Geometry (in Angstrom), charge = 0, multiplicity = 1:

       Center              X                  Y                   Z               Mass
    ------------   -----------------  -----------------  -----------------  -----------------
         N            1.780720649574    -0.984802971468    -0.383163720009    14.003074004430
         C            1.011426649574     0.082029028532     0.030333279991    12.000000000000
         C           -0.447362350426     0.029058028532     0.021521279991    12.000000000000
         C            1.897315649574     1.076327028532     0.436142279991    12.000000000000
         C           -1.298859050426     1.348998028532    -0.307922520009    12.000000000000
         C           -1.132902350426    -1.166585971468     0.297357279991    12.000000000000
         C            3.115210649574    -0.687557971468    -0.274024720009    12.000000000000
         C            3.212763649574     0.592970028532     0.244273279991    12.000000000000
         C           -2.586090350426     1.146682028532    -0.265826720009    12.000000000000
         C           -2.526962350426    -1.206469971468     0.272778279991    12.000000000000
         C           -3.259196350426    -0.050367971468    -0.006343720009    12.000000000000
         H            1.402862649574    -1.811601971468    -0.828624720009     1.007825032230
         H            1.611024649574     2.028015028532     0.866146279991     1.007825032230
         H           -0.667872350426     2.107437028532    -0.503866720009     1.007825032230
         H           -0.571206350426    -2.058636971468     0.570003279991     1.007825032230
         H            3.875039649574    -1.395871971468    -0.574455720009     1.007825032230
         H            4.134987649574     1.111033028532     0.473113279991     1.007825032230
         H           -3.149398350426     2.049884028532    -0.489401720009     1.007825032230
         H           -3.043257350426    -2.138914971468     0.489982279991     1.007825032230
         H           -4.345970350426    -0.080580971468    -0.016773720009     1.007825032230

  Basis Set: AUG-CC-PVTZ
    Blend: AUG-CC-PVTZ
  Basis Set: (AUG-CC-PVTZ AUX)
    Blend: AUG-CC-PVTZ-JKFIT
	 Reference Energy          =    -438.4679791944803924 [Eh]
	 Singles Energy            =      -0.0000000000000000 [Eh]
	 Same-Spin Energy          =      -0.4950171411282543 [Eh]
	 Opposite-Spin Energy      =      -1.5273875113629023 [Eh]
	 Correlation Energy        =      -2.0224046524911565 [Eh]
	 Total Energy              =    -440.4903838469715538 [Eh]

	 ================> DF-SCS-MP2 Energies <==================
	-----------------------------------------------------------
	 SCS Same-Spin Scale       =       0.3333333333333333 [-]
	 SCS Opposite-Spin Scale   =       1.2000000000000000 [-]
	 SCS Same-Spin Energy      =      -0.1650057137094181 [Eh]
	 SCS Opposite-Spin Energy  =      -1.8328650136354827 [Eh]
	 SCS Correlation Energy    =      -1.9978707273449008 [Eh]
	 SCS Total Energy          =    -440.4658499218252814 [Eh]
	-----------------------------------------------------------

  Dipole Moment: [D]
     X:    -0.2958      Y:    -1.3219      Z:    -0.6489     Total:     1.5020

*** Psi4 exiting successfully. Buy a developer a beer!
