                               Psi4 1.3.2 release

  ==> Input File <==

--------------------------------------------------------------------------
#psi4
#
memory 32 gb

molecule  {
0 1
  N        1.7773000    -0.9706020    -0.3863220
  C        1.0080060     0.0962300     0.0271750
  C       -0.4927980     0.0186435     0.0241638
  C        1.8938950     1.0905280     0.4329840
  C       -1.1961700     1.1987140    -0.2700270
  C       -1.1363230    -1.1523850     0.2941990
  C        3.1117900    -0.6733570    -0.2771830
  C        3.2093430     0.6071710     0.2411150
  C       -2.5895110     1.1608830    -0.2689850
  C       -2.5303830    -1.1922690     0.2696200
  C       -3.2626170    -0.0361670    -0.0095020
  H        1.3994420    -1.7974010    -0.8317830
  H        1.6076040     2.0422160     0.8629880
  H       -0.6712930     2.1216380    -0.5070250
  H       -0.5746270    -2.0444360     0.5668450
  H        3.8716190    -1.3816710    -0.5776140
  H        4.1315670     1.1252340     0.4699550
  H       -3.1528190     2.0640850    -0.4925600
  H       -3.0466780    -2.1247140     0.4868240
  H       -4.3493910    -0.0663800    -0.0199320
units angstrom
no_reorient  #important for SAPT in psi4, default
symmetry c1  #important for SAPT in psi4, default
}

set PROPERTIES_ORIGIN ["COM"]
properties('MP2/aug-cc-pvtz', properties = ['dipole'])
--------------------------------------------------------------------------

    Molecular point group: c1
  Charge       = 0
  Multiplicity = 1
  Basis Set: AUG-CC-PVTZ
    Blend: AUG-CC-PVTZ
  Basis Set: (AUG-CC-PVTZ AUX)
    Blend: AUG-CC-PVTZ-JKFIT

    Orbital Energies [Eh]
    ---------------------

    Doubly Occupied:

       1A    -15.607014     2A    -11.263568     3A    -11.254832
       4A    -11.252155     5A    -11.242392     6A    -11.241044
       7A    -11.238317     8A    -11.237918     9A    -11.236700
      10A    -11.212758    11A    -11.211590    12A     -1.292302
      13A     -1.160828    14A     -1.045313    15A     -1.042146
      16A     -1.019411    17A     -0.959234    18A     -0.836068
      19A     -0.833096    20A     -0.787542    21A     -0.763996
      22A     -0.734167    23A     -0.679119    24A     -0.633221
      25A     -0.631938    26A     -0.594467    27A     -0.590517
      28A     -0.579487    29A     -0.567253    30A     -0.548577
      31A     -0.535893    32A     -0.507325    33A     -0.500863
      34A     -0.493847    35A     -0.362855    36A     -0.349351
      37A     -0.342089    38A     -0.275766

  @DF-RHF Final Energy:  -438.50713824900913

   => Energetics <=

    Nuclear Repulsion Energy =            536.8748150602223177
    One-Electron Energy =               -1657.4339931986630745
    Two-Electron Energy =                 682.0520398894316259
    Total Energy =                       -438.5071382490091310
  Basis Set: (AUG-CC-PVTZ AUX)
    Blend: AUG-CC-PVTZ-RI
    Molecular point group: c1

    Geometry (in Angstrom), charge = 0, multiplicity = 1:

       Center              X                  Y                   Z               Mass
    ------------   -----------------  -----------------  -----------------  -----------------
         N            1.775344836416    -0.968942549998    -0.387093554694    14.003074004430
         C            1.006050836416     0.097889450002     0.026403445306    12.000000000000
         C           -0.494753163584     0.020302950002     0.023392245306    12.000000000000
         C            1.891939836416     1.092187450002     0.432212445306    12.000000000000
         C           -1.198125163584     1.200373450002    -0.270798554694    12.000000000000
         C           -1.138278163584    -1.150725549998     0.293427445306    12.000000000000
         C            3.109834836416    -0.671697549998    -0.277954554694    12.000000000000
         C            3.207387836416     0.608830450002     0.240343445306    12.000000000000
         C           -2.591466163584     1.162542450002    -0.269756554694    12.000000000000
         C           -2.532338163584    -1.190609549998     0.268848445306    12.000000000000
         C           -3.264572163584    -0.034507549998    -0.010273554694    12.000000000000
         H            1.397486836416    -1.795741549998    -0.832554554694     1.007825032230
         H            1.605648836416     2.043875450002     0.862216445306     1.007825032230
         H           -0.673248163584     2.123297450002    -0.507796554694     1.007825032230
         H           -0.576582163584    -2.042776549998     0.566073445306     1.007825032230
         H            3.869663836416    -1.380011549998    -0.578385554694     1.007825032230
         H            4.129611836416     1.126893450002     0.469183445306     1.007825032230
         H           -3.154774163584     2.065744450002    -0.493331554694     1.007825032230
         H           -3.048633163584    -2.123054549998     0.486052445306     1.007825032230
         H           -4.351346163584    -0.064720549998    -0.020703554694     1.007825032230

  Basis Set: AUG-CC-PVTZ
    Blend: AUG-CC-PVTZ
  Basis Set: (AUG-CC-PVTZ AUX)
    Blend: AUG-CC-PVTZ-JKFIT
	 Reference Energy          =    -438.5071382490091310 [Eh]
	 Singles Energy            =      -0.0000000000000000 [Eh]
	 Same-Spin Energy          =      -0.4947139963661373 [Eh]
	 Opposite-Spin Energy      =      -1.5246011198278351 [Eh]
	 Correlation Energy        =      -2.0193151161939724 [Eh]
	 Total Energy              =    -440.5264533652031105 [Eh]

	 ================> DF-SCS-MP2 Energies <==================
	-----------------------------------------------------------
	 SCS Same-Spin Scale       =       0.3333333333333333 [-]
	 SCS Opposite-Spin Scale   =       1.2000000000000000 [-]
	 SCS Same-Spin Energy      =      -0.1649046654553791 [Eh]
	 SCS Opposite-Spin Energy  =      -1.8295213437934019 [Eh]
	 SCS Correlation Energy    =      -1.9944260092487811 [Eh]
	 SCS Total Energy          =    -440.5015642582579289 [Eh]
	-----------------------------------------------------------

  Dipole Moment: [D]
     X:    -0.5922      Y:    -1.3224      Z:    -0.6474     Total:     1.5870

*** Psi4 exiting successfully. Buy a developer a beer!
