                               Psi4 1.4a3.dev225

  ==> Input File <==

--------------------------------------------------------------------------
#psi4
#
memory 32 gb

molecule  {
0 1
  N        1.7773000    -0.9706020    -0.3863220
  C        1.0080060     0.0962300     0.0271750
  C       -0.4507830     0.0432590     0.0183630
  C        1.8938950     1.0905280     0.4329840
  C       -1.1961700     1.1987140    -0.2700270
  C       -1.1363230    -1.1523850     0.2941990
  C        3.1604392    -0.6625208    -0.2732043
  C        3.2093430     0.6071710     0.2411150
  C       -2.5895110     1.1608830    -0.2689850
  C       -2.5303830    -1.1922690     0.2696200
  C       -3.2626170    -0.0361670    -0.0095020
  H        1.3994420    -1.7974010    -0.8317830
  H        1.6076040     2.0422160     0.8629880
  H       -0.6712930     2.1216380    -0.5070250
  H       -0.5746270    -2.0444360     0.5668450
  H        3.8716190    -1.3816710    -0.5776140
  H        4.1315670     1.1252340     0.4699550
  H       -3.1528190     2.0640850    -0.4925600
  H       -3.0466780    -2.1247140     0.4868240
  H       -4.3493910    -0.0663800    -0.0199320
units angstrom
no_reorient  #important for SAPT in psi4, default
symmetry c1  #important for SAPT in psi4, default
}

set PROPERTIES_ORIGIN ["COM"]
properties('MP2/aug-cc-pvtz', properties = ['dipole'])
--------------------------------------------------------------------------

    Molecular point group: c1
  Charge       = 0
  Multiplicity = 1
  Basis Set: AUG-CC-PVTZ
    Blend: AUG-CC-PVTZ
  Basis Set: (AUG-CC-PVTZ AUX)
    Blend: AUG-CC-PVTZ-JKFIT

    Orbital Energies [Eh]
    ---------------------

    Doubly Occupied:

       1A    -15.603921     2A    -11.265666     3A    -11.255415
       4A    -11.253753     5A    -11.242686     6A    -11.241494
       7A    -11.241293     8A    -11.239148     9A    -11.238807
      10A    -11.215623    11A    -11.211764    12A     -1.280531
      13A     -1.156527    14A     -1.046962    15A     -1.043221
      16A     -1.017441    17A     -0.960189    18A     -0.840211
      19A     -0.832493    20A     -0.784654    21A     -0.762577
      22A     -0.735755    23A     -0.679997    24A     -0.633690
      25A     -0.629324    26A     -0.593003    27A     -0.588285
      28A     -0.580229    29A     -0.563534    30A     -0.547000
      31A     -0.543131    32A     -0.504672    33A     -0.501414
      34A     -0.494982    35A     -0.362669    36A     -0.350580
      37A     -0.341933    38A     -0.275999

  @DF-RHF Final Energy:  -438.50582795020290

   => Energetics <=

    Nuclear Repulsion Energy =            535.9998517175105235
    One-Electron Energy =               -1655.6902118598354718
    Two-Electron Energy =                 681.1845321921221057
    Total Energy =                       -438.5058279502029563
  Basis Set: (AUG-CC-PVTZ AUX)
    Blend: AUG-CC-PVTZ-RI
    Molecular point group: c1

    Geometry (in Angstrom), charge = 0, multiplicity = 1:

       Center              X                  Y                   Z               Mass
    ------------   -----------------  -----------------  -----------------  -----------------
         N            1.767740560255    -0.971915989538    -0.386940729746    14.003074004430
         C            0.998446560255     0.094916010462     0.026556270254    12.000000000000
         C           -0.460342439745     0.041945010462     0.017744270254    12.000000000000
         C            1.884335560255     1.089214010462     0.432365270254    12.000000000000
         C           -1.205729439745     1.197400010462    -0.270645729746    12.000000000000
         C           -1.145882439745    -1.153698989538     0.293580270254    12.000000000000
         C            3.150879760255    -0.663834789538    -0.273823029746    12.000000000000
         C            3.199783560255     0.605857010462     0.240496270254    12.000000000000
         C           -2.599070439745     1.159569010462    -0.269603729746    12.000000000000
         C           -2.539942439745    -1.193582989538     0.269001270254    12.000000000000
         C           -3.272176439745    -0.037480989538    -0.010120729746    12.000000000000
         H            1.389882560255    -1.798714989538    -0.832401729746     1.007825032230
         H            1.598044560255     2.040902010462     0.862369270254     1.007825032230
         H           -0.680852439745     2.120324010462    -0.507643729746     1.007825032230
         H           -0.584186439745    -2.045749989538     0.566226270254     1.007825032230
         H            3.862059560255    -1.382984989538    -0.578232729746     1.007825032230
         H            4.122007560255     1.123920010462     0.469336270254     1.007825032230
         H           -3.162378439745     2.062771010462    -0.493178729746     1.007825032230
         H           -3.056237439745    -2.126027989538     0.486205270254     1.007825032230
         H           -4.358950439745    -0.067693989538    -0.020550729746     1.007825032230

  Basis Set: AUG-CC-PVTZ
    Blend: AUG-CC-PVTZ
  Basis Set: (AUG-CC-PVTZ AUX)
    Blend: AUG-CC-PVTZ-JKFIT
	 Reference Energy          =    -438.5058279502028995 [Eh]
	 Singles Energy            =      -0.0000000000000000 [Eh]
	 Same-Spin Energy          =      -0.4949637782633842 [Eh]
	 Opposite-Spin Energy      =      -1.5257275445898864 [Eh]
	 Correlation Energy        =      -2.0206913228532706 [Eh]
	 Total Energy              =    -440.5265192730561807 [Eh]

	 ================> DF-SCS-MP2 Energies <==================
	-----------------------------------------------------------
	 SCS Same-Spin Scale       =       0.3333333333333333 [-]
	 SCS Opposite-Spin Scale   =       1.2000000000000000 [-]
	 SCS Same-Spin Energy      =      -0.1649879260877947 [Eh]
	 SCS Opposite-Spin Energy  =      -1.8308730535078634 [Eh]
	 SCS Correlation Energy    =      -1.9958609795956581 [Eh]
	 SCS Total Energy          =    -440.5016889297985472 [Eh]
	-----------------------------------------------------------

  Dipole Moment: [D]
     X:    -0.4662      Y:    -1.2656      Z:    -0.6255     Total:     1.4867

*** Psi4 exiting successfully. Buy a developer a beer!
