                               Psi4 1.3.2 release

  ==> Input File <==

--------------------------------------------------------------------------
#psi4
#
memory 32 gb

molecule  {
0 1
  N        1.7773000    -0.9706020    -0.3863220
  C        1.0080060     0.0962300     0.0271750
  C       -0.4507830     0.0432590     0.0183630
  C        1.8938950     1.0905280     0.4329840
  C       -1.1961700     1.1987140    -0.2700270
  C       -1.1363230    -1.1523850     0.2941990
  C        3.1117900    -0.6733570    -0.2771830
  C        3.1904208     0.5658836     0.2217494
  C       -2.5895110     1.1608830    -0.2689850
  C       -2.5303830    -1.1922690     0.2696200
  C       -3.2626170    -0.0361670    -0.0095020
  H        1.3994420    -1.7974010    -0.8317830
  H        1.6076040     2.0422160     0.8629880
  H       -0.6712930     2.1216380    -0.5070250
  H       -0.5746270    -2.0444360     0.5668450
  H        3.8716190    -1.3816710    -0.5776140
  H        4.1315670     1.1252340     0.4699550
  H       -3.1528190     2.0640850    -0.4925600
  H       -3.0466780    -2.1247140     0.4868240
  H       -4.3493910    -0.0663800    -0.0199320
units angstrom
no_reorient  #important for SAPT in psi4, default
symmetry c1  #important for SAPT in psi4, default
}

set PROPERTIES_ORIGIN ["COM"]
properties('MP2/aug-cc-pvtz', properties = ['dipole'])
--------------------------------------------------------------------------

    Molecular point group: c1
  Charge       = 0
  Multiplicity = 1
  Basis Set: AUG-CC-PVTZ
    Blend: AUG-CC-PVTZ
  Basis Set: (AUG-CC-PVTZ AUX)
    Blend: AUG-CC-PVTZ-JKFIT

    Orbital Energies [Eh]
    ---------------------

    Doubly Occupied:

       1A    -15.604220     2A    -11.262924     3A    -11.253025
       4A    -11.249646     5A    -11.242165     6A    -11.240931
       7A    -11.240698     8A    -11.238344     9A    -11.238052
      10A    -11.211751    11A    -11.210381    12A     -1.295831
      13A     -1.156476    14A     -1.048746    15A     -1.045944
      16A     -1.017025    17A     -0.962705    18A     -0.839482
      19A     -0.832083    20A     -0.783682    21A     -0.762743
      22A     -0.735980    23A     -0.680261    24A     -0.633377
      25A     -0.629782    26A     -0.591944    27A     -0.586886
      28A     -0.583485    29A     -0.570433    30A     -0.552791
      31A     -0.533455    32A     -0.504920    33A     -0.499526
      34A     -0.493390    35A     -0.364083    36A     -0.351012
      37A     -0.341498    38A     -0.277226

  @DF-RHF Final Energy:  -438.50685608116510

   => Energetics <=

    Nuclear Repulsion Energy =            537.6823442895636163
    One-Electron Energy =               -1659.0445957339347842
    Two-Electron Energy =                 682.8553953632060711
    Total Energy =                       -438.5068560811650968
  Basis Set: (AUG-CC-PVTZ AUX)
    Blend: AUG-CC-PVTZ-RI
    Molecular point group: c1

    Geometry (in Angstrom), charge = 0, multiplicity = 1:

       Center              X                  Y                   Z               Mass
    ------------   -----------------  -----------------  -----------------  -----------------
         N            1.773407974584    -0.967544228149    -0.384982773861    14.003074004430
         C            1.004113974584     0.099287771851     0.028514226139    12.000000000000
         C           -0.454675025416     0.046316771851     0.019702226139    12.000000000000
         C            1.890002974584     1.093585771851     0.434323226139    12.000000000000
         C           -1.200062025416     1.201771771851    -0.268687773861    12.000000000000
         C           -1.140215025416    -1.149327228149     0.295538226139    12.000000000000
         C            3.107897974584    -0.670299228149    -0.275843773861    12.000000000000
         C            3.186528774584     0.568941371851     0.223088626139    12.000000000000
         C           -2.593403025416     1.163940771851    -0.267645773861    12.000000000000
         C           -2.534275025416    -1.189211228149     0.270959226139    12.000000000000
         C           -3.266509025416    -0.033109228149    -0.008162773861    12.000000000000
         H            1.395549974584    -1.794343228149    -0.830443773861     1.007825032230
         H            1.603711974584     2.045273771851     0.864327226139     1.007825032230
         H           -0.675185025416     2.124695771851    -0.505685773861     1.007825032230
         H           -0.578519025416    -2.041378228149     0.568184226139     1.007825032230
         H            3.867726974584    -1.378613228149    -0.576274773861     1.007825032230
         H            4.127674974584     1.128291771851     0.471294226139     1.007825032230
         H           -3.156711025416     2.067142771851    -0.491220773861     1.007825032230
         H           -3.050570025416    -2.121656228149     0.488163226139     1.007825032230
         H           -4.353283025416    -0.063322228149    -0.018592773861     1.007825032230

  Basis Set: AUG-CC-PVTZ
    Blend: AUG-CC-PVTZ
  Basis Set: (AUG-CC-PVTZ AUX)
    Blend: AUG-CC-PVTZ-JKFIT
	 Reference Energy          =    -438.5068560811650968 [Eh]
	 Singles Energy            =      -0.0000000000000000 [Eh]
	 Same-Spin Energy          =      -0.4947941089796926 [Eh]
	 Opposite-Spin Energy      =      -1.5244578148649397 [Eh]
	 Correlation Energy        =      -2.0192519238446325 [Eh]
	 Total Energy              =    -440.5261080050097462 [Eh]

	 ================> DF-SCS-MP2 Energies <==================
	-----------------------------------------------------------
	 SCS Same-Spin Scale       =       0.3333333333333333 [-]
	 SCS Opposite-Spin Scale   =       1.2000000000000000 [-]
	 SCS Same-Spin Energy      =      -0.1649313696598975 [Eh]
	 SCS Opposite-Spin Energy  =      -1.8293493778379275 [Eh]
	 SCS Correlation Energy    =      -1.9942807474978250 [Eh]
	 SCS Total Energy          =    -440.5011368286629363 [Eh]
	-----------------------------------------------------------

  Dipole Moment: [D]
     X:    -0.4549      Y:    -1.3118      Z:    -0.6415     Total:     1.5295

*** Psi4 exiting successfully. Buy a developer a beer!
