                               Psi4 1.3.2 release

  ==> Input File <==

--------------------------------------------------------------------------
#psi4
#
memory 32 gb

molecule  {
0 1
  N        1.7773000    -0.9706020    -0.3863220
  C        1.1251137     0.0157380    -0.0050920
  C       -0.4507830     0.0432590     0.0183630
  C        1.8938950     1.0905280     0.4329840
  C       -1.1961700     1.1987140    -0.2700270
  C       -1.1363230    -1.1523850     0.2941990
  C        3.1117900    -0.6733570    -0.2771830
  C        3.2093430     0.6071710     0.2411150
  C       -2.5895110     1.1608830    -0.2689850
  C       -2.5303830    -1.1922690     0.2696200
  C       -3.2626170    -0.0361670    -0.0095020
  H        1.3994420    -1.7974010    -0.8317830
  H        1.6076040     2.0422160     0.8629880
  H       -0.6712930     2.1216380    -0.5070250
  H       -0.5746270    -2.0444360     0.5668450
  H        3.8716190    -1.3816710    -0.5776140
  H        4.1315670     1.1252340     0.4699550
  H       -3.1528190     2.0640850    -0.4925600
  H       -3.0466780    -2.1247140     0.4868240
  H       -4.3493910    -0.0663800    -0.0199320
units angstrom
no_reorient  #important for SAPT in psi4, default
symmetry c1  #important for SAPT in psi4, default
}

set PROPERTIES_ORIGIN ["COM"]
properties('MP2/aug-cc-pvtz', properties = ['dipole'])
--------------------------------------------------------------------------

    Molecular point group: c1
  Charge       = 0
  Multiplicity = 1
  Basis Set: AUG-CC-PVTZ
    Blend: AUG-CC-PVTZ
  Basis Set: (AUG-CC-PVTZ AUX)
    Blend: AUG-CC-PVTZ-JKFIT

    Orbital Energies [Eh]
    ---------------------

    Doubly Occupied:

       1A    -15.614568     2A    -11.262522     3A    -11.258711
       4A    -11.244535     5A    -11.241809     6A    -11.241265
       7A    -11.240057     8A    -11.238835     9A    -11.237992
      10A    -11.214997    11A    -11.202807    12A     -1.343110
      13A     -1.153245    14A     -1.054716    15A     -1.034693
      16A     -1.016899    17A     -0.962913    18A     -0.830788
      19A     -0.826136    20A     -0.808213    21A     -0.780211
      22A     -0.728686    23A     -0.678661    24A     -0.632876
      25A     -0.627954    26A     -0.614146    27A     -0.600352
      28A     -0.587984    29A     -0.571659    30A     -0.550139
      31A     -0.529646    32A     -0.505150    33A     -0.496296
      34A     -0.477729    35A     -0.356967    36A     -0.352756
      37A     -0.341239    38A     -0.276409

  @DF-RHF Final Energy:  -438.48443201346834

   => Energetics <=

    Nuclear Repulsion Energy =            537.5423186220643856
    One-Electron Energy =               -1658.5781620884808945
    Two-Electron Energy =                 682.5514114529481731
    Total Energy =                       -438.4844320134683358
  Basis Set: (AUG-CC-PVTZ AUX)
    Blend: AUG-CC-PVTZ-RI
    Molecular point group: c1

    Geometry (in Angstrom), charge = 0, multiplicity = 1:

       Center              X                  Y                   Z               Mass
    ------------   -----------------  -----------------  -----------------  -----------------
         N            1.761998742210    -0.964256021721    -0.383900695064    14.003074004430
         C            1.109812442210     0.022083978279    -0.002670695064    12.000000000000
         C           -0.466084257790     0.049604978279     0.020784304936    12.000000000000
         C            1.878593742210     1.096873978279     0.435405304936    12.000000000000
         C           -1.211471257790     1.205059978279    -0.267605695064    12.000000000000
         C           -1.151624257790    -1.146039021721     0.296620304936    12.000000000000
         C            3.096488742210    -0.667011021721    -0.274761695064    12.000000000000
         C            3.194041742210     0.613516978279     0.243536304936    12.000000000000
         C           -2.604812257790     1.167228978279    -0.266563695064    12.000000000000
         C           -2.545684257790    -1.185923021721     0.272041304936    12.000000000000
         C           -3.277918257790    -0.029821021721    -0.007080695064    12.000000000000
         H            1.384140742210    -1.791055021721    -0.829361695064     1.007825032230
         H            1.592302742210     2.048561978279     0.865409304936     1.007825032230
         H           -0.686594257790     2.127983978279    -0.504603695064     1.007825032230
         H           -0.589928257790    -2.038090021721     0.569266304936     1.007825032230
         H            3.856317742210    -1.375325021721    -0.575192695064     1.007825032230
         H            4.116265742210     1.131579978279     0.472376304936     1.007825032230
         H           -3.168120257790     2.070430978279    -0.490138695064     1.007825032230
         H           -3.061979257790    -2.118368021721     0.489245304936     1.007825032230
         H           -4.364692257790    -0.060034021721    -0.017510695064     1.007825032230

  Basis Set: AUG-CC-PVTZ
    Blend: AUG-CC-PVTZ
  Basis Set: (AUG-CC-PVTZ AUX)
    Blend: AUG-CC-PVTZ-JKFIT
	 Reference Energy          =    -438.4844320134683358 [Eh]
	 Singles Energy            =      -0.0000000000000000 [Eh]
	 Same-Spin Energy          =      -0.4942311695759539 [Eh]
	 Opposite-Spin Energy      =      -1.5226488844123762 [Eh]
	 Correlation Energy        =      -2.0168800539883303 [Eh]
	 Total Energy              =    -440.5013120674566380 [Eh]

	 ================> DF-SCS-MP2 Energies <==================
	-----------------------------------------------------------
	 SCS Same-Spin Scale       =       0.3333333333333333 [-]
	 SCS Opposite-Spin Scale   =       1.2000000000000000 [-]
	 SCS Same-Spin Energy      =      -0.1647437231919846 [Eh]
	 SCS Opposite-Spin Energy  =      -1.8271786612948513 [Eh]
	 SCS Correlation Energy    =      -1.9919223844868359 [Eh]
	 SCS Total Energy          =    -440.4763543979551628 [Eh]
	-----------------------------------------------------------

  Dipole Moment: [D]
     X:    -0.5658      Y:    -1.4471      Z:    -0.7168     Total:     1.7111

*** Psi4 exiting successfully. Buy a developer a beer!
