                               Psi4 1.3.2 release

  ==> Input File <==

--------------------------------------------------------------------------
#psi4
#
memory 32 gb

molecule  {
0 1
  N        1.8167580    -0.9451695    -0.3757280
  C        1.0080060     0.0962300     0.0271750
  C       -0.4507830     0.0432590     0.0183630
  C        1.8938950     1.0905280     0.4329840
  C       -1.1961700     1.1987140    -0.2700270
  C       -1.1363230    -1.1523850     0.2941990
  C        3.1117900    -0.6733570    -0.2771830
  C        3.2093430     0.6071710     0.2411150
  C       -2.5895110     1.1608830    -0.2689850
  C       -2.5303830    -1.1922690     0.2696200
  C       -3.2626170    -0.0361670    -0.0095020
  H        1.3994420    -1.7974010    -0.8317830
  H        1.6076040     2.0422160     0.8629880
  H       -0.6712930     2.1216380    -0.5070250
  H       -0.5746270    -2.0444360     0.5668450
  H        3.8716190    -1.3816710    -0.5776140
  H        4.1315670     1.1252340     0.4699550
  H       -3.1528190     2.0640850    -0.4925600
  H       -3.0466780    -2.1247140     0.4868240
  H       -4.3493910    -0.0663800    -0.0199320
units angstrom
no_reorient  #important for SAPT in psi4, default
symmetry c1  #important for SAPT in psi4, default
}

set PROPERTIES_ORIGIN ["COM"]
properties('MP2/aug-cc-pvtz', properties = ['dipole'])
--------------------------------------------------------------------------

    Molecular point group: c1
  Charge       = 0
  Multiplicity = 1
  Basis Set: AUG-CC-PVTZ
    Blend: AUG-CC-PVTZ
  Basis Set: (AUG-CC-PVTZ AUX)
    Blend: AUG-CC-PVTZ-JKFIT

    Orbital Energies [Eh]
    ---------------------

    Doubly Occupied:

       1A    -15.612538     2A    -11.258597     3A    -11.254289
       4A    -11.253798     5A    -11.242092     6A    -11.240829
       7A    -11.240494     8A    -11.237874     9A    -11.237554
      10A    -11.212845    11A    -11.208988    12A     -1.304981
      13A     -1.156681    14A     -1.050740    15A     -1.037684
      16A     -1.016663    17A     -0.963444    18A     -0.837580
      19A     -0.832491    20A     -0.780494    21A     -0.767603
      22A     -0.736856    23A     -0.681904    24A     -0.636344
      25A     -0.629838    26A     -0.591206    27A     -0.590891
      28A     -0.579721    29A     -0.573709    30A     -0.547966
      31A     -0.536094    32A     -0.505721    33A     -0.500957
      34A     -0.493999    35A     -0.365584    36A     -0.346590
      37A     -0.341426    38A     -0.272801

  @DF-RHF Final Energy:  -438.50459689909246

   => Energetics <=

    Nuclear Repulsion Energy =            537.3019517507915452
    One-Electron Energy =               -1658.2533606794008847
    Two-Electron Energy =                 682.4468120295169911
    Total Energy =                       -438.5045968990924621
  Basis Set: (AUG-CC-PVTZ AUX)
    Blend: AUG-CC-PVTZ-RI
    Molecular point group: c1

    Geometry (in Angstrom), charge = 0, multiplicity = 1:

       Center              X                  Y                   Z               Mass
    ------------   -----------------  -----------------  -----------------  -----------------
         N            1.807417029127    -0.948063787642    -0.377049893970    14.003074004430
         C            0.998665029127     0.093335712358     0.025853106030    12.000000000000
         C           -0.460123970873     0.040364712358     0.017041106030    12.000000000000
         C            1.884554029127     1.087633712358     0.431662106030    12.000000000000
         C           -1.205510970873     1.195819712358    -0.271348893970    12.000000000000
         C           -1.145663970873    -1.155279287642     0.292877106030    12.000000000000
         C            3.102449029127    -0.676251287642    -0.278504893970    12.000000000000
         C            3.200002029127     0.604276712358     0.239793106030    12.000000000000
         C           -2.598851970873     1.157988712358    -0.270306893970    12.000000000000
         C           -2.539723970873    -1.195163287642     0.268298106030    12.000000000000
         C           -3.271957970873    -0.039061287642    -0.010823893970    12.000000000000
         H            1.390101029127    -1.800295287642    -0.833104893970     1.007825032230
         H            1.598263029127     2.039321712358     0.861666106030     1.007825032230
         H           -0.680633970873     2.118743712358    -0.508346893970     1.007825032230
         H           -0.583967970873    -2.047330287642     0.565523106030     1.007825032230
         H            3.862278029127    -1.384565287642    -0.578935893970     1.007825032230
         H            4.122226029127     1.122339712358     0.468633106030     1.007825032230
         H           -3.162159970873     2.061190712358    -0.493881893970     1.007825032230
         H           -3.056018970873    -2.127608287642     0.485502106030     1.007825032230
         H           -4.358731970873    -0.069274287642    -0.021253893970     1.007825032230

  Basis Set: AUG-CC-PVTZ
    Blend: AUG-CC-PVTZ
  Basis Set: (AUG-CC-PVTZ AUX)
    Blend: AUG-CC-PVTZ-JKFIT
	 Reference Energy          =    -438.5045968990924621 [Eh]
	 Singles Energy            =      -0.0000000000000000 [Eh]
	 Same-Spin Energy          =      -0.4958737262325582 [Eh]
	 Opposite-Spin Energy      =      -1.5255762958986920 [Eh]
	 Correlation Energy        =      -2.0214500221312504 [Eh]
	 Total Energy              =    -440.5260469212237240 [Eh]

	 ================> DF-SCS-MP2 Energies <==================
	-----------------------------------------------------------
	 SCS Same-Spin Scale       =       0.3333333333333333 [-]
	 SCS Opposite-Spin Scale   =       1.2000000000000000 [-]
	 SCS Same-Spin Energy      =      -0.1652912420775194 [Eh]
	 SCS Opposite-Spin Energy  =      -1.8306915550784304 [Eh]
	 SCS Correlation Energy    =      -1.9959827971559498 [Eh]
	 SCS Total Energy          =    -440.5005796962483942 [Eh]
	-----------------------------------------------------------

  Dipole Moment: [D]
     X:    -0.5066      Y:    -1.4288      Z:    -0.6889     Total:     1.6651

*** Psi4 exiting successfully. Buy a developer a beer!
