                               Psi4 1.3.2 release

  ==> Input File <==

--------------------------------------------------------------------------
#psi4
#
memory 32 gb

molecule  {
0 1
  N        1.7773000    -0.9706020    -0.3863220
  C        1.0080060     0.0962300     0.0271750
  C       -0.4507830     0.0432590     0.0183630
  C        1.8938950     1.0905280     0.4329840
  C       -1.1961700     1.1987140    -0.2700270
  C       -1.1363230    -1.1523850     0.2941990
  C        3.0718117    -0.5536932    -0.2086822
  C        3.2093430     0.6071710     0.2411150
  C       -2.5895110     1.1608830    -0.2689850
  C       -2.5303830    -1.1922690     0.2696200
  C       -3.2626170    -0.0361670    -0.0095020
  H        1.3994420    -1.7974010    -0.8317830
  H        1.6076040     2.0422160     0.8629880
  H       -0.6712930     2.1216380    -0.5070250
  H       -0.5746270    -2.0444360     0.5668450
  H        3.8716190    -1.3816710    -0.5776140
  H        4.1315670     1.1252340     0.4699550
  H       -3.1528190     2.0640850    -0.4925600
  H       -3.0466780    -2.1247140     0.4868240
  H       -4.3493910    -0.0663800    -0.0199320
units angstrom
no_reorient  #important for SAPT in psi4, default
symmetry c1  #important for SAPT in psi4, default
}

set PROPERTIES_ORIGIN ["COM"]
properties('MP2/aug-cc-pvtz', properties = ['dipole'])
--------------------------------------------------------------------------

    Molecular point group: c1
  Charge       = 0
  Multiplicity = 1
  Basis Set: AUG-CC-PVTZ
    Blend: AUG-CC-PVTZ
  Basis Set: (AUG-CC-PVTZ AUX)
    Blend: AUG-CC-PVTZ-JKFIT

    Orbital Energies [Eh]
    ---------------------

    Doubly Occupied:

       1A    -15.599346     2A    -11.261215     3A    -11.252026
       4A    -11.251726     5A    -11.241866     6A    -11.240498
       7A    -11.240315     8A    -11.237841     9A    -11.237366
      10A    -11.210735    11A    -11.197202    12A     -1.300542
      13A     -1.156052    14A     -1.067923    15A     -1.045532
      16A     -1.016987    17A     -0.958708    18A     -0.839083
      19A     -0.831228    20A     -0.791395    21A     -0.763831
      22A     -0.726364    23A     -0.675331    24A     -0.632032
      25A     -0.626204    26A     -0.613192    27A     -0.590326
      28A     -0.577594    29A     -0.567370    30A     -0.555959
      31A     -0.514324    32A     -0.501123    33A     -0.500334
      34A     -0.492655    35A     -0.369581    36A     -0.357560
      37A     -0.341077    38A     -0.279971

  @DF-RHF Final Energy:  -438.48048150313946

   => Energetics <=

    Nuclear Repulsion Energy =            539.2286355991394657
    One-Electron Energy =               -1662.0934059571634407
    Two-Electron Energy =                 684.3842888548846304
    Total Energy =                       -438.4804815031394583
  Basis Set: (AUG-CC-PVTZ AUX)
    Blend: AUG-CC-PVTZ-RI
    Molecular point group: c1

    Geometry (in Angstrom), charge = 0, multiplicity = 1:

       Center              X                  Y                   Z               Mass
    ------------   -----------------  -----------------  -----------------  -----------------
         N            1.775174012329    -0.981043684090    -0.392352390213    14.003074004430
         C            1.005880012329     0.085788315910     0.021144609787    12.000000000000
         C           -0.452908987671     0.032817315910     0.012332609787    12.000000000000
         C            1.891769012329     1.080086315910     0.426953609787    12.000000000000
         C           -1.198295987671     1.188272315910    -0.276057390213    12.000000000000
         C           -1.138448987671    -1.162826684090     0.288168609787    12.000000000000
         C            3.069685712329    -0.564134884090    -0.214712590213    12.000000000000
         C            3.207217012329     0.596729315910     0.235084609787    12.000000000000
         C           -2.591636987671     1.150441315910    -0.275015390213    12.000000000000
         C           -2.532508987671    -1.202710684090     0.263589609787    12.000000000000
         C           -3.264742987671    -0.046608684090    -0.015532390213    12.000000000000
         H            1.397316012329    -1.807842684090    -0.837813390213     1.007825032230
         H            1.605478012329     2.031774315910     0.856957609787     1.007825032230
         H           -0.673418987671     2.111196315910    -0.513055390213     1.007825032230
         H           -0.576752987671    -2.054877684090     0.560814609787     1.007825032230
         H            3.869493012329    -1.392112684090    -0.583644390213     1.007825032230
         H            4.129441012329     1.114792315910     0.463924609787     1.007825032230
         H           -3.154944987671     2.053643315910    -0.498590390213     1.007825032230
         H           -3.048803987671    -2.135155684090     0.480793609787     1.007825032230
         H           -4.351516987671    -0.076821684090    -0.025962390213     1.007825032230

  Basis Set: AUG-CC-PVTZ
    Blend: AUG-CC-PVTZ
  Basis Set: (AUG-CC-PVTZ AUX)
    Blend: AUG-CC-PVTZ-JKFIT
	 Reference Energy          =    -438.4804815031394583 [Eh]
	 Singles Energy            =      -0.0000000000000000 [Eh]
	 Same-Spin Energy          =      -0.4941147091763120 [Eh]
	 Opposite-Spin Energy      =      -1.5238353268439204 [Eh]
	 Correlation Energy        =      -2.0179500360202325 [Eh]
	 Total Energy              =    -440.4984315391596965 [Eh]

	 ================> DF-SCS-MP2 Energies <==================
	-----------------------------------------------------------
	 SCS Same-Spin Scale       =       0.3333333333333333 [-]
	 SCS Opposite-Spin Scale   =       1.2000000000000000 [-]
	 SCS Same-Spin Energy      =      -0.1647049030587706 [Eh]
	 SCS Opposite-Spin Energy  =      -1.8286023922127044 [Eh]
	 SCS Correlation Energy    =      -1.9933072952714750 [Eh]
	 SCS Total Energy          =    -440.4737887984109079 [Eh]
	-----------------------------------------------------------

  Dipole Moment: [D]
     X:    -0.3672      Y:    -1.1800      Z:    -0.6057     Total:     1.3763

*** Psi4 exiting successfully. Buy a developer a beer!
