                               Psi4 1.3.2 release

  ==> Input File <==

--------------------------------------------------------------------------
#psi4
#
memory 32 gb

molecule  {
0 1
  N        1.7773000    -0.9706020    -0.3863220
  C        1.0080060     0.0962300     0.0271750
  C       -0.4507830     0.0432590     0.0183630
  C        1.9333647     1.1737048     0.4686450
  C       -1.1961700     1.1987140    -0.2700270
  C       -1.1363230    -1.1523850     0.2941990
  C        3.1117900    -0.6733570    -0.2771830
  C        3.2093430     0.6071710     0.2411150
  C       -2.5895110     1.1608830    -0.2689850
  C       -2.5303830    -1.1922690     0.2696200
  C       -3.2626170    -0.0361670    -0.0095020
  H        1.3994420    -1.7974010    -0.8317830
  H        1.6076040     2.0422160     0.8629880
  H       -0.6712930     2.1216380    -0.5070250
  H       -0.5746270    -2.0444360     0.5668450
  H        3.8716190    -1.3816710    -0.5776140
  H        4.1315670     1.1252340     0.4699550
  H       -3.1528190     2.0640850    -0.4925600
  H       -3.0466780    -2.1247140     0.4868240
  H       -4.3493910    -0.0663800    -0.0199320
units angstrom
no_reorient  #important for SAPT in psi4, default
symmetry c1  #important for SAPT in psi4, default
}

set PROPERTIES_ORIGIN ["COM"]
properties('MP2/aug-cc-pvtz', properties = ['dipole'])
--------------------------------------------------------------------------

    Molecular point group: c1
  Charge       = 0
  Multiplicity = 1
  Basis Set: AUG-CC-PVTZ
    Blend: AUG-CC-PVTZ
  Basis Set: (AUG-CC-PVTZ AUX)
    Blend: AUG-CC-PVTZ-JKFIT

    Orbital Energies [Eh]
    ---------------------

    Doubly Occupied:

       1A    -15.615731     2A    -11.273700     3A    -11.254796
       4A    -11.253490     5A    -11.242278     6A    -11.240965
       7A    -11.240727     8A    -11.238118     9A    -11.237834
      10A    -11.218382    11A    -11.217077    12A     -1.291765
      13A     -1.156369    14A     -1.046216    15A     -1.041756
      16A     -1.017025    17A     -0.953371    18A     -0.840603
      19A     -0.832186    20A     -0.793088    21A     -0.771010
      22A     -0.734462    23A     -0.679213    24A     -0.635055
      25A     -0.628963    26A     -0.599331    27A     -0.589383
      28A     -0.583841    29A     -0.566243    30A     -0.561869
      31A     -0.531217    32A     -0.504887    33A     -0.498425
      34A     -0.489434    35A     -0.361101    36A     -0.351981
      37A     -0.341676    38A     -0.264996

  @DF-RHF Final Energy:  -438.49245629656008

   => Energetics <=

    Nuclear Repulsion Energy =            534.9734491063757105
    One-Electron Energy =               -1653.5346891872309243
    Two-Electron Energy =                 680.0687837842951922
    Total Energy =                       -438.4924562965600217
  Basis Set: (AUG-CC-PVTZ AUX)
    Blend: AUG-CC-PVTZ-RI
    Molecular point group: c1

    Geometry (in Angstrom), charge = 0, multiplicity = 1:

       Center              X                  Y                   Z               Mass
    ------------   -----------------  -----------------  -----------------  -----------------
         N            1.768510472227    -0.977983410858    -0.389598018496    14.003074004430
         C            0.999216472227     0.088848589142     0.023898981504    12.000000000000
         C           -0.459572527773     0.035877589142     0.015086981504    12.000000000000
         C            1.924575172227     1.166323389142     0.465368981504    12.000000000000
         C           -1.204959527773     1.191332589142    -0.273303018496    12.000000000000
         C           -1.145112527773    -1.159766410858     0.290922981504    12.000000000000
         C            3.103000472227    -0.680738410858    -0.280459018496    12.000000000000
         C            3.200553472227     0.599789589142     0.237838981504    12.000000000000
         C           -2.598300527773     1.153501589142    -0.272261018496    12.000000000000
         C           -2.539172527773    -1.199650410858     0.266343981504    12.000000000000
         C           -3.271406527773    -0.043548410858    -0.012778018496    12.000000000000
         H            1.390652472227    -1.804782410858    -0.835059018496     1.007825032230
         H            1.598814472227     2.034834589142     0.859711981504     1.007825032230
         H           -0.680082527773     2.114256589142    -0.510301018496     1.007825032230
         H           -0.583416527773    -2.051817410858     0.563568981504     1.007825032230
         H            3.862829472227    -1.389052410858    -0.580890018496     1.007825032230
         H            4.122777472227     1.117852589142     0.466678981504     1.007825032230
         H           -3.161608527773     2.056703589142    -0.495836018496     1.007825032230
         H           -3.055467527773    -2.132095410858     0.483547981504     1.007825032230
         H           -4.358180527773    -0.073761410858    -0.023208018496     1.007825032230

  Basis Set: AUG-CC-PVTZ
    Blend: AUG-CC-PVTZ
  Basis Set: (AUG-CC-PVTZ AUX)
    Blend: AUG-CC-PVTZ-JKFIT
	 Reference Energy          =    -438.4924562965600785 [Eh]
	 Singles Energy            =      -0.0000000000000000 [Eh]
	 Same-Spin Energy          =      -0.4965775941376023 [Eh]
	 Opposite-Spin Energy      =      -1.5278307221638343 [Eh]
	 Correlation Energy        =      -2.0244083163014368 [Eh]
	 Total Energy              =    -440.5168646128615251 [Eh]

	 ================> DF-SCS-MP2 Energies <==================
	-----------------------------------------------------------
	 SCS Same-Spin Scale       =       0.3333333333333333 [-]
	 SCS Opposite-Spin Scale   =       1.2000000000000000 [-]
	 SCS Same-Spin Energy      =      -0.1655258647125341 [Eh]
	 SCS Opposite-Spin Energy  =      -1.8333968665966012 [Eh]
	 SCS Correlation Energy    =      -1.9989227313091353 [Eh]
	 SCS Total Energy          =    -440.4913790278691863 [Eh]
	-----------------------------------------------------------

  Dipole Moment: [D]
     X:    -0.3870      Y:    -1.3756      Z:    -0.6663     Total:     1.5767

*** Psi4 exiting successfully. Buy a developer a beer!
