                               Psi4 1.3.2 release

  ==> Input File <==

--------------------------------------------------------------------------
#psi4
#
memory 32 gb

molecule  {
0 1
  N        1.7773000    -0.9706020    -0.3863220
  C        1.0080060     0.0962300     0.0271750
  C       -0.4508769     0.1373268     0.0575167
  C        1.8938950     1.0905280     0.4329840
  C       -1.1961700     1.1987140    -0.2700270
  C       -1.1363230    -1.1523850     0.2941990
  C        3.1117900    -0.6733570    -0.2771830
  C        3.2093430     0.6071710     0.2411150
  C       -2.5895110     1.1608830    -0.2689850
  C       -2.5303830    -1.1922690     0.2696200
  C       -3.2626170    -0.0361670    -0.0095020
  H        1.3994420    -1.7974010    -0.8317830
  H        1.6076040     2.0422160     0.8629880
  H       -0.6712930     2.1216380    -0.5070250
  H       -0.5746270    -2.0444360     0.5668450
  H        3.8716190    -1.3816710    -0.5776140
  H        4.1315670     1.1252340     0.4699550
  H       -3.1528190     2.0640850    -0.4925600
  H       -3.0466780    -2.1247140     0.4868240
  H       -4.3493910    -0.0663800    -0.0199320
units angstrom
no_reorient  #important for SAPT in psi4, default
symmetry c1  #important for SAPT in psi4, default
}

set PROPERTIES_ORIGIN ["COM"]
properties('MP2/aug-cc-pvtz', properties = ['dipole'])
--------------------------------------------------------------------------

    Molecular point group: c1
  Charge       = 0
  Multiplicity = 1
  Basis Set: AUG-CC-PVTZ
    Blend: AUG-CC-PVTZ
  Basis Set: (AUG-CC-PVTZ AUX)
    Blend: AUG-CC-PVTZ-JKFIT

    Orbital Energies [Eh]
    ---------------------

    Doubly Occupied:

       1A    -15.610288     2A    -11.261982     3A    -11.257107
       4A    -11.253104     5A    -11.246905     6A    -11.241445
       7A    -11.241184     8A    -11.237886     9A    -11.230408
      10A    -11.213171    11A    -11.211198    12A     -1.294239
      13A     -1.156823    14A     -1.052663    15A     -1.040791
      16A     -1.015810    17A     -0.959334    18A     -0.840728
      19A     -0.828746    20A     -0.789392    21A     -0.764048
      22A     -0.735652    23A     -0.680962    24A     -0.633927
      25A     -0.627446    26A     -0.594614    27A     -0.590624
      28A     -0.582980    29A     -0.569346    30A     -0.548543
      31A     -0.536580    32A     -0.510684    33A     -0.502453
      34A     -0.481184    35A     -0.367386    36A     -0.350082
      37A     -0.338730    38A     -0.273293

  @DF-RHF Final Energy:  -438.49932806022514

   => Energetics <=

    Nuclear Repulsion Energy =            536.7387905192484823
    One-Electron Energy =               -1657.1327628421609006
    Two-Electron Energy =                 681.8946442626871658
    Total Energy =                       -438.4993280602251389
  Basis Set: (AUG-CC-PVTZ AUX)
    Blend: AUG-CC-PVTZ-RI
    Molecular point group: c1

    Geometry (in Angstrom), charge = 0, multiplicity = 1:

       Center              X                  Y                   Z               Mass
    ------------   -----------------  -----------------  -----------------  -----------------
         N            1.771828789053    -0.978896871427    -0.389890961635    14.003074004430
         C            1.002534789053     0.087935128573     0.023606038365    12.000000000000
         C           -0.456348110947     0.129031928573     0.053947738365    12.000000000000
         C            1.888423789053     1.082233128573     0.429415038365    12.000000000000
         C           -1.201641210947     1.190419128573    -0.273595961635    12.000000000000
         C           -1.141794210947    -1.160679871427     0.290630038365    12.000000000000
         C            3.106318789053    -0.681651871427    -0.280751961635    12.000000000000
         C            3.203871789053     0.598876128573     0.237546038365    12.000000000000
         C           -2.594982210947     1.152588128573    -0.272553961635    12.000000000000
         C           -2.535854210947    -1.200563871427     0.266051038365    12.000000000000
         C           -3.268088210947    -0.044461871427    -0.013070961635    12.000000000000
         H            1.393970789053    -1.805695871427    -0.835351961635     1.007825032230
         H            1.602132789053     2.033921128573     0.859419038365     1.007825032230
         H           -0.676764210947     2.113343128573    -0.510593961635     1.007825032230
         H           -0.580098210947    -2.052730871427     0.563276038365     1.007825032230
         H            3.866147789053    -1.389965871427    -0.581182961635     1.007825032230
         H            4.126095789053     1.116939128573     0.466386038365     1.007825032230
         H           -3.158290210947     2.055790128573    -0.496128961635     1.007825032230
         H           -3.052149210947    -2.133008871427     0.483255038365     1.007825032230
         H           -4.354862210947    -0.074674871427    -0.023500961635     1.007825032230

  Basis Set: AUG-CC-PVTZ
    Blend: AUG-CC-PVTZ
  Basis Set: (AUG-CC-PVTZ AUX)
    Blend: AUG-CC-PVTZ-JKFIT
	 Reference Energy          =    -438.4993280602251389 [Eh]
	 Singles Energy            =      -0.0000000000000000 [Eh]
	 Same-Spin Energy          =      -0.4951147121061729 [Eh]
	 Opposite-Spin Energy      =      -1.5257243592436058 [Eh]
	 Correlation Energy        =      -2.0208390713497786 [Eh]
	 Total Energy              =    -440.5201671315749081 [Eh]

	 ================> DF-SCS-MP2 Energies <==================
	-----------------------------------------------------------
	 SCS Same-Spin Scale       =       0.3333333333333333 [-]
	 SCS Opposite-Spin Scale   =       1.2000000000000000 [-]
	 SCS Same-Spin Energy      =      -0.1650382373687243 [Eh]
	 SCS Opposite-Spin Energy  =      -1.8308692310923269 [Eh]
	 SCS Correlation Energy    =      -1.9959074684610512 [Eh]
	 SCS Total Energy          =    -440.4952355286861803 [Eh]
	-----------------------------------------------------------

  Dipole Moment: [D]
     X:    -0.4593      Y:    -1.3377      Z:    -0.6618     Total:     1.5615

*** Psi4 exiting successfully. Buy a developer a beer!
