                               Psi4 1.4a3.dev225

  ==> Input File <==

--------------------------------------------------------------------------
#psi4
#
memory 32 gb

molecule  {
0 1
  N        1.7773000    -0.9706020    -0.3863220
  C        1.0080060     0.0962300     0.0271750
  C       -0.4507830     0.0432590     0.0183630
  C        1.8938950     1.0905280     0.4329840
  C       -1.1961700     1.1987140    -0.2700270
  C       -1.1363230    -1.1523850     0.2941990
  C        3.1117900    -0.6733570    -0.2771830
  C        3.2128651     0.6534033     0.2598277
  C       -2.5895110     1.1608830    -0.2689850
  C       -2.5303830    -1.1922690     0.2696200
  C       -3.2626170    -0.0361670    -0.0095020
  H        1.3994420    -1.7974010    -0.8317830
  H        1.6076040     2.0422160     0.8629880
  H       -0.6712930     2.1216380    -0.5070250
  H       -0.5746270    -2.0444360     0.5668450
  H        3.8716190    -1.3816710    -0.5776140
  H        4.1315670     1.1252340     0.4699550
  H       -3.1528190     2.0640850    -0.4925600
  H       -3.0466780    -2.1247140     0.4868240
  H       -4.3493910    -0.0663800    -0.0199320
units angstrom
no_reorient  #important for SAPT in psi4, default
symmetry c1  #important for SAPT in psi4, default
}

set PROPERTIES_ORIGIN ["COM"]
properties('MP2/aug-cc-pvtz', properties = ['dipole'])
--------------------------------------------------------------------------

    Molecular point group: c1
  Charge       = 0
  Multiplicity = 1
  Basis Set: AUG-CC-PVTZ
    Blend: AUG-CC-PVTZ
  Basis Set: (AUG-CC-PVTZ AUX)
    Blend: AUG-CC-PVTZ-JKFIT

    Orbital Energies [Eh]
    ---------------------

    Doubly Occupied:

       1A    -15.613045     2A    -11.262828     3A    -11.261017
       4A    -11.253339     5A    -11.241779     6A    -11.240444
       7A    -11.240116     8A    -11.237397     9A    -11.237145
      10A    -11.216385    11A    -11.214123    12A     -1.293710
      13A     -1.155773    14A     -1.050233    15A     -1.041376
      16A     -1.016528    17A     -0.955711    18A     -0.836679
      19A     -0.832230    20A     -0.794620    21A     -0.765931
      22A     -0.734881    23A     -0.679635    24A     -0.633181
      25A     -0.629755    26A     -0.597068    27A     -0.589514
      28A     -0.582428    29A     -0.568976    30A     -0.556005
      31A     -0.528474    32A     -0.504206    33A     -0.501684
      34A     -0.494557    35A     -0.363564    36A     -0.351133
      37A     -0.341117    38A     -0.268492

  @DF-RHF Final Energy:  -438.50382247042796

   => Energetics <=

    Nuclear Repulsion Energy =            536.2546810353422870
    One-Electron Energy =               -1656.1468456960742515
    Two-Electron Energy =                 681.3883421903038879
    Total Energy =                       -438.5038224704279628
  Basis Set: (AUG-CC-PVTZ AUX)
    Blend: AUG-CC-PVTZ-RI
    Molecular point group: c1

    Geometry (in Angstrom), charge = 0, multiplicity = 1:

       Center              X                  Y                   Z               Mass
    ------------   -----------------  -----------------  -----------------  -----------------
         N            1.771525504376    -0.974884765741    -0.388176514157    14.003074004430
         C            1.002231504376     0.091947234259     0.025320485843    12.000000000000
         C           -0.456557495624     0.038976234259     0.016508485843    12.000000000000
         C            1.888120504376     1.086245234259     0.431129485843    12.000000000000
         C           -1.201944495624     1.194431234259    -0.271881514157    12.000000000000
         C           -1.142097495624    -1.156667765741     0.292344485843    12.000000000000
         C            3.106015504376    -0.677639765741    -0.279037514157    12.000000000000
         C            3.207090604376     0.649120534259     0.257973185843    12.000000000000
         C           -2.595285495624     1.156600234259    -0.270839514157    12.000000000000
         C           -2.536157495624    -1.196551765741     0.267765485843    12.000000000000
         C           -3.268391495624    -0.040449765741    -0.011356514157    12.000000000000
         H            1.393667504376    -1.801683765741    -0.833637514157     1.007825032230
         H            1.601829504376     2.037933234259     0.861133485843     1.007825032230
         H           -0.677067495624     2.117355234259    -0.508879514157     1.007825032230
         H           -0.580401495624    -2.048718765741     0.564990485843     1.007825032230
         H            3.865844504376    -1.385953765741    -0.579468514157     1.007825032230
         H            4.125792504376     1.120951234259     0.468100485843     1.007825032230
         H           -3.158593495624     2.059802234259    -0.494414514157     1.007825032230
         H           -3.052452495624    -2.128996765741     0.484969485843     1.007825032230
         H           -4.355165495624    -0.070662765741    -0.021786514157     1.007825032230

  Basis Set: AUG-CC-PVTZ
    Blend: AUG-CC-PVTZ
  Basis Set: (AUG-CC-PVTZ AUX)
    Blend: AUG-CC-PVTZ-JKFIT
	 Reference Energy          =    -438.5038224704279628 [Eh]
	 Singles Energy            =      -0.0000000000000000 [Eh]
	 Same-Spin Energy          =      -0.4960437811078122 [Eh]
	 Opposite-Spin Energy      =      -1.5266756079943209 [Eh]
	 Correlation Energy        =      -2.0227193891021331 [Eh]
	 Total Energy              =    -440.5265418595300844 [Eh]

	 ================> DF-SCS-MP2 Energies <==================
	-----------------------------------------------------------
	 SCS Same-Spin Scale       =       0.3333333333333333 [-]
	 SCS Opposite-Spin Scale   =       1.2000000000000000 [-]
	 SCS Same-Spin Energy      =      -0.1653479270359374 [Eh]
	 SCS Opposite-Spin Energy  =      -1.8320107295931849 [Eh]
	 SCS Correlation Energy    =      -1.9973586566291224 [Eh]
	 SCS Total Energy          =    -440.5011811270570661 [Eh]
	-----------------------------------------------------------

  Dipole Moment: [D]
     X:    -0.4448      Y:    -1.3274      Z:    -0.6517     Total:     1.5442

*** Psi4 exiting successfully. Buy a developer a beer!
