                               Psi4 1.3.2 release

  ==> Input File <==

--------------------------------------------------------------------------
#psi4
#
memory 32 gb

molecule  {
0 1
  N        1.7773000    -0.9706020    -0.3863220
  C        1.0080060     0.0962300     0.0271750
  C       -0.4507830     0.0432590     0.0183630
  C        1.9554439     1.2142830     0.4860705
  C       -1.1961700     1.1987140    -0.2700270
  C       -1.1363230    -1.1523850     0.2941990
  C        3.1117900    -0.6733570    -0.2771830
  C        3.2093430     0.6071710     0.2411150
  C       -2.5895110     1.1608830    -0.2689850
  C       -2.5303830    -1.1922690     0.2696200
  C       -3.2626170    -0.0361670    -0.0095020
  H        1.3994420    -1.7974010    -0.8317830
  H        1.6076040     2.0422160     0.8629880
  H       -0.6712930     2.1216380    -0.5070250
  H       -0.5746270    -2.0444360     0.5668450
  H        3.8716190    -1.3816710    -0.5776140
  H        4.1315670     1.1252340     0.4699550
  H       -3.1528190     2.0640850    -0.4925600
  H       -3.0466780    -2.1247140     0.4868240
  H       -4.3493910    -0.0663800    -0.0199320
units angstrom
no_reorient  #important for SAPT in psi4, default
symmetry c1  #important for SAPT in psi4, default
}

set PROPERTIES_ORIGIN ["COM"]
properties('MP2/aug-cc-pvtz', properties = ['dipole'])
--------------------------------------------------------------------------

    Molecular point group: c1
  Charge       = 0
  Multiplicity = 1
  Basis Set: AUG-CC-PVTZ
    Blend: AUG-CC-PVTZ
  Basis Set: (AUG-CC-PVTZ AUX)
    Blend: AUG-CC-PVTZ-JKFIT

    Orbital Energies [Eh]
    ---------------------

    Doubly Occupied:

       1A    -15.619404     2A    -11.278742     3A    -11.253890
       4A    -11.253700     5A    -11.242496     6A    -11.241163
       7A    -11.240973     8A    -11.238331     9A    -11.238037
      10A    -11.220868    11A    -11.219523    12A     -1.291262
      13A     -1.156577    14A     -1.045921    15A     -1.040782
      16A     -1.017238    17A     -0.951282    18A     -0.842836
      19A     -0.832337    20A     -0.796481    21A     -0.773347
      22A     -0.734250    23A     -0.679238    24A     -0.637086
      25A     -0.628612    26A     -0.602718    27A     -0.589744
      28A     -0.583740    29A     -0.569299    30A     -0.564926
      31A     -0.526005    32A     -0.505123    33A     -0.498027
      34A     -0.483245    35A     -0.360782    36A     -0.352628
      37A     -0.341907    38A     -0.261171

  @DF-RHF Final Energy:  -438.47556451687979

   => Energetics <=

    Nuclear Repulsion Energy =            534.0932814267606545
    One-Electron Energy =               -1651.7103123889967264
    Two-Electron Energy =                 679.1414664453564001
    Total Energy =                       -438.4755645168797855
  Basis Set: (AUG-CC-PVTZ AUX)
    Blend: AUG-CC-PVTZ-RI
    Molecular point group: c1

    Geometry (in Angstrom), charge = 0, multiplicity = 1:

       Center              X                  Y                   Z               Mass
    ------------   -----------------  -----------------  -----------------  -----------------
         N            1.766658624042    -0.981386825204    -0.391059547018    14.003074004430
         C            0.997364624042     0.085445174796     0.022437452982    12.000000000000
         C           -0.461424375958     0.032474174796     0.013625452982    12.000000000000
         C            1.944802524042     1.203498174796     0.481332952982    12.000000000000
         C           -1.206811375958     1.187929174796    -0.274764547018    12.000000000000
         C           -1.146964375958    -1.163169825204     0.289461452982    12.000000000000
         C            3.101148624042    -0.684141825204    -0.281920547018    12.000000000000
         C            3.198701624042     0.596386174796     0.236377452982    12.000000000000
         C           -2.600152375958     1.150098174796    -0.273722547018    12.000000000000
         C           -2.541024375958    -1.203053825204     0.264882452982    12.000000000000
         C           -3.273258375958    -0.046951825204    -0.014239547018    12.000000000000
         H            1.388800624042    -1.808185825204    -0.836520547018     1.007825032230
         H            1.596962624042     2.031431174796     0.858250452982     1.007825032230
         H           -0.681934375958     2.110853174796    -0.511762547018     1.007825032230
         H           -0.585268375958    -2.055220825204     0.562107452982     1.007825032230
         H            3.860977624042    -1.392455825204    -0.582351547018     1.007825032230
         H            4.120925624042     1.114449174796     0.465217452982     1.007825032230
         H           -3.163460375958     2.053300174796    -0.497297547018     1.007825032230
         H           -3.057319375958    -2.135498825204     0.482086452982     1.007825032230
         H           -4.360032375958    -0.077164825204    -0.024669547018     1.007825032230

  Basis Set: AUG-CC-PVTZ
    Blend: AUG-CC-PVTZ
  Basis Set: (AUG-CC-PVTZ AUX)
    Blend: AUG-CC-PVTZ-JKFIT
	 Reference Energy          =    -438.4755645168797855 [Eh]
	 Singles Energy            =      -0.0000000000000000 [Eh]
	 Same-Spin Energy          =      -0.4973691388169678 [Eh]
	 Opposite-Spin Energy      =      -1.5295100150388448 [Eh]
	 Correlation Energy        =      -2.0268791538558126 [Eh]
	 Total Energy              =    -440.5024436707356017 [Eh]

	 ================> DF-SCS-MP2 Energies <==================
	-----------------------------------------------------------
	 SCS Same-Spin Scale       =       0.3333333333333333 [-]
	 SCS Opposite-Spin Scale   =       1.2000000000000000 [-]
	 SCS Same-Spin Energy      =      -0.1657897129389893 [Eh]
	 SCS Opposite-Spin Energy  =      -1.8354120180466136 [Eh]
	 SCS Correlation Energy    =      -2.0012017309856027 [Eh]
	 SCS Total Energy          =    -440.4767662478653847 [Eh]
	-----------------------------------------------------------

  Dipole Moment: [D]
     X:    -0.3457      Y:    -1.4075      Z:    -0.6772     Total:     1.5997

*** Psi4 exiting successfully. Buy a developer a beer!
