                               Psi4 1.3.2 release

  ==> Input File <==

--------------------------------------------------------------------------
#psi4
#
memory 32 gb

molecule  {
0 1
  N        1.7773000    -0.9706020    -0.3863220
  C        1.0080060     0.0962300     0.0271750
  C       -0.4507830     0.0432590     0.0183630
  C        1.8938950     1.0905280     0.4329840
  C       -1.1961700     1.1987140    -0.2700270
  C       -1.1363230    -1.1523850     0.2941990
  C        3.1117900    -0.6733570    -0.2771830
  C        3.2093430     0.6071710     0.2411150
  C       -2.5895110     1.1608830    -0.2689850
  C       -2.5303830    -1.1922690     0.2696200
  C       -3.2626170    -0.0361670    -0.0095020
  H        1.3994420    -1.7974010    -0.8317830
  H        1.6076040     2.0422160     0.8629880
  H       -0.6712930     2.1216380    -0.5070250
  H       -0.5746270    -2.0444360     0.5668450
  H        3.9418860    -1.4471740    -0.6053971
  H        4.1315670     1.1252340     0.4699550
  H       -3.1528190     2.0640850    -0.4925600
  H       -3.0466780    -2.1247140     0.4868240
  H       -4.3493910    -0.0663800    -0.0199320
units angstrom
no_reorient  #important for SAPT in psi4, default
symmetry c1  #important for SAPT in psi4, default
}

set PROPERTIES_ORIGIN ["COM"]
properties('MP2/aug-cc-pvtz', properties = ['dipole'])
--------------------------------------------------------------------------

    Molecular point group: c1
  Charge       = 0
  Multiplicity = 1
  Basis Set: AUG-CC-PVTZ
    Blend: AUG-CC-PVTZ
  Basis Set: (AUG-CC-PVTZ AUX)
    Blend: AUG-CC-PVTZ-JKFIT

    Orbital Energies [Eh]
    ---------------------

    Doubly Occupied:

       1A    -15.609136     2A    -11.267518     3A    -11.262488
       4A    -11.253455     5A    -11.242137     6A    -11.240852
       7A    -11.240611     8A    -11.238079     9A    -11.237801
      10A    -11.214631    11A    -11.213481    12A     -1.294666
      13A     -1.156279    14A     -1.048916    15A     -1.043186
      16A     -1.016934    17A     -0.956298    18A     -0.836009
      19A     -0.832241    20A     -0.788691    21A     -0.762822
      22A     -0.729748    23A     -0.676212    24A     -0.629905
      25A     -0.629281    26A     -0.594009    27A     -0.589128
      28A     -0.577248    29A     -0.569539    30A     -0.549998
      31A     -0.530899    32A     -0.504480    33A     -0.500974
      34A     -0.494448    35A     -0.363684    36A     -0.350793
      37A     -0.341468    38A     -0.273635

  @DF-RHF Final Energy:  -438.50123070330369

   => Energetics <=

    Nuclear Repulsion Energy =            536.3415719038912357
    One-Electron Energy =               -1656.3622432867400676
    Two-Electron Energy =                 681.5194406795451414
    Total Energy =                       -438.5012307033036905
  Basis Set: (AUG-CC-PVTZ AUX)
    Blend: AUG-CC-PVTZ-RI
    Molecular point group: c1

    Geometry (in Angstrom), charge = 0, multiplicity = 1:

       Center              X                  Y                   Z               Mass
    ------------   -----------------  -----------------  -----------------  -----------------
         N            1.771325945117    -0.970545715070    -0.386411317214    14.003074004430
         C            1.002031945117     0.096286284930     0.027085682786    12.000000000000
         C           -0.456757054883     0.043315284930     0.018273682786    12.000000000000
         C            1.887920945117     1.090584284930     0.432894682786    12.000000000000
         C           -1.202144054883     1.198770284930    -0.270116317214    12.000000000000
         C           -1.142297054883    -1.152328715070     0.294109682786    12.000000000000
         C            3.105815945117    -0.673300715070    -0.277272317214    12.000000000000
         C            3.203368945117     0.607227284930     0.241025682786    12.000000000000
         C           -2.595485054883     1.160939284930    -0.269074317214    12.000000000000
         C           -2.536357054883    -1.192212715070     0.269530682786    12.000000000000
         C           -3.268591054883    -0.036110715070    -0.009591317214    12.000000000000
         H            1.393467945117    -1.797344715070    -0.831872317214     1.007825032230
         H            1.601629945117     2.042272284930     0.862898682786     1.007825032230
         H           -0.677267054883     2.121694284930    -0.507114317214     1.007825032230
         H           -0.580601054883    -2.044379715070     0.566755682786     1.007825032230
         H            3.935911945117    -1.447117715070    -0.605486417214     1.007825032230
         H            4.125592945117     1.125290284930     0.469865682786     1.007825032230
         H           -3.158793054883     2.064141284930    -0.492649317214     1.007825032230
         H           -3.052652054883    -2.124657715070     0.486734682786     1.007825032230
         H           -4.355365054883    -0.066323715070    -0.020021317214     1.007825032230

  Basis Set: AUG-CC-PVTZ
    Blend: AUG-CC-PVTZ
  Basis Set: (AUG-CC-PVTZ AUX)
    Blend: AUG-CC-PVTZ-JKFIT
	 Reference Energy          =    -438.5012307033036905 [Eh]
	 Singles Energy            =      -0.0000000000000000 [Eh]
	 Same-Spin Energy          =      -0.4954904440883226 [Eh]
	 Opposite-Spin Energy      =      -1.5263037391516980 [Eh]
	 Correlation Energy        =      -2.0217941832400208 [Eh]
	 Total Energy              =    -440.5230248865437375 [Eh]

	 ================> DF-SCS-MP2 Energies <==================
	-----------------------------------------------------------
	 SCS Same-Spin Scale       =       0.3333333333333333 [-]
	 SCS Opposite-Spin Scale   =       1.2000000000000000 [-]
	 SCS Same-Spin Energy      =      -0.1651634813627742 [Eh]
	 SCS Opposite-Spin Energy  =      -1.8315644869820376 [Eh]
	 SCS Correlation Energy    =      -1.9967279683448118 [Eh]
	 SCS Total Energy          =    -440.4979586716485187 [Eh]
	-----------------------------------------------------------

  Dipole Moment: [D]
     X:    -0.4646      Y:    -1.3099      Z:    -0.6435     Total:     1.5316

*** Psi4 exiting successfully. Buy a developer a beer!
