                               Psi4 1.4a3.dev225

  ==> Input File <==

--------------------------------------------------------------------------
#psi4
#
memory 32 gb

molecule  {
0 1
  N        1.7773000    -0.9706020    -0.3863220
  C        1.0080060     0.0962300     0.0271750
  C       -0.4507830     0.0432590     0.0183630
  C        1.8938950     1.0905280     0.4329840
  C       -1.1961700     1.1987140    -0.2700270
  C       -1.1363230    -1.1523850     0.2941990
  C        3.1117900    -0.6733570    -0.2771830
  C        3.2058209     0.5609387     0.2224023
  C       -2.5895110     1.1608830    -0.2689850
  C       -2.5303830    -1.1922690     0.2696200
  C       -3.2626170    -0.0361670    -0.0095020
  H        1.3994420    -1.7974010    -0.8317830
  H        1.6076040     2.0422160     0.8629880
  H       -0.6712930     2.1216380    -0.5070250
  H       -0.5746270    -2.0444360     0.5668450
  H        3.8716190    -1.3816710    -0.5776140
  H        4.1315670     1.1252340     0.4699550
  H       -3.1528190     2.0640850    -0.4925600
  H       -3.0466780    -2.1247140     0.4868240
  H       -4.3493910    -0.0663800    -0.0199320
units angstrom
no_reorient  #important for SAPT in psi4, default
symmetry c1  #important for SAPT in psi4, default
}

set PROPERTIES_ORIGIN ["COM"]
properties('MP2/aug-cc-pvtz', properties = ['dipole'])
--------------------------------------------------------------------------

    Molecular point group: c1
  Charge       = 0
  Multiplicity = 1
  Basis Set: AUG-CC-PVTZ
    Blend: AUG-CC-PVTZ
  Basis Set: (AUG-CC-PVTZ AUX)
    Blend: AUG-CC-PVTZ-JKFIT

    Orbital Energies [Eh]
    ---------------------

    Doubly Occupied:

       1A    -15.603545     2A    -11.263197     3A    -11.253102
       4A    -11.249887     5A    -11.242235     6A    -11.240988
       7A    -11.240792     8A    -11.238441     9A    -11.238145
      10A    -11.212702    11A    -11.210620    12A     -1.295022
      13A     -1.156544    14A     -1.048779    15A     -1.044022
      16A     -1.017026    17A     -0.963113    18A     -0.839308
      19A     -0.832159    20A     -0.782897    21A     -0.763630
      22A     -0.735912    23A     -0.680277    24A     -0.633375
      25A     -0.629767    26A     -0.592167    27A     -0.587533
      28A     -0.583312    29A     -0.570076    30A     -0.554077
      31A     -0.531895    32A     -0.504971    33A     -0.499442
      34A     -0.493410    35A     -0.364386    36A     -0.349257
      37A     -0.341540    38A     -0.278259

  @DF-RHF Final Energy:  -438.50748938903769

   => Energetics <=

    Nuclear Repulsion Energy =            537.4300660503437257
    One-Electron Energy =               -1658.5434898964590502
    Two-Electron Energy =                 682.6059344570777512
    Total Energy =                       -438.5074893890376870
  Basis Set: (AUG-CC-PVTZ AUX)
    Blend: AUG-CC-PVTZ-RI
    Molecular point group: c1

    Geometry (in Angstrom), charge = 0, multiplicity = 1:

       Center              X                  Y                   Z               Mass
    ------------   -----------------  -----------------  -----------------  -----------------
         N            1.772116322385    -0.967129484676    -0.385037534526    14.003074004430
         C            1.002822322385     0.099702515324     0.028459465474    12.000000000000
         C           -0.455966677615     0.046731515324     0.019647465474    12.000000000000
         C            1.888711322385     1.094000515324     0.434268465474    12.000000000000
         C           -1.201353677615     1.202186515324    -0.268742534526    12.000000000000
         C           -1.141506677615    -1.148912484676     0.295483465474    12.000000000000
         C            3.106606322385    -0.669884484676    -0.275898534526    12.000000000000
         C            3.200637222385     0.564411215324     0.223686765474    12.000000000000
         C           -2.594694677615     1.164355515324    -0.267700534526    12.000000000000
         C           -2.535566677615    -1.188796484676     0.270904465474    12.000000000000
         C           -3.267800677615    -0.032694484676    -0.008217534526    12.000000000000
         H            1.394258322385    -1.793928484676    -0.830498534526     1.007825032230
         H            1.602420322385     2.045688515324     0.864272465474     1.007825032230
         H           -0.676476677615     2.125110515324    -0.505740534526     1.007825032230
         H           -0.579810677615    -2.040963484676     0.568129465474     1.007825032230
         H            3.866435322385    -1.378198484676    -0.576329534526     1.007825032230
         H            4.126383322385     1.128706515324     0.471239465474     1.007825032230
         H           -3.158002677615     2.067557515324    -0.491275534526     1.007825032230
         H           -3.051861677615    -2.121241484676     0.488108465474     1.007825032230
         H           -4.354574677615    -0.062907484676    -0.018647534526     1.007825032230

  Basis Set: AUG-CC-PVTZ
    Blend: AUG-CC-PVTZ
  Basis Set: (AUG-CC-PVTZ AUX)
    Blend: AUG-CC-PVTZ-JKFIT
	 Reference Energy          =    -438.5074893890376870 [Eh]
	 Singles Energy            =      -0.0000000000000000 [Eh]
	 Same-Spin Energy          =      -0.4945235365311051 [Eh]
	 Opposite-Spin Energy      =      -1.5242282063169892 [Eh]
	 Correlation Energy        =      -2.0187517428480941 [Eh]
	 Total Energy              =    -440.5262411318857971 [Eh]

	 ================> DF-SCS-MP2 Energies <==================
	-----------------------------------------------------------
	 SCS Same-Spin Scale       =       0.3333333333333333 [-]
	 SCS Opposite-Spin Scale   =       1.2000000000000000 [-]
	 SCS Same-Spin Energy      =      -0.1648411788437017 [Eh]
	 SCS Opposite-Spin Energy  =      -1.8290738475803869 [Eh]
	 SCS Correlation Energy    =      -1.9939150264240886 [Eh]
	 SCS Total Energy          =    -440.5014044154617636 [Eh]
	-----------------------------------------------------------

  Dipole Moment: [D]
     X:    -0.4615      Y:    -1.3070      Z:    -0.6420     Total:     1.5275

*** Psi4 exiting successfully. Buy a developer a beer!
