                               Psi4 1.3.2 release

  ==> Input File <==

--------------------------------------------------------------------------
#psi4
#
memory 32 gb

molecule  {
0 1
  N        1.7773000    -0.9706020    -0.3863220
  C        1.0051850    -0.0523614     0.0626681
  C       -0.4507830     0.0432590     0.0183630
  C        1.8938950     1.0905280     0.4329840
  C       -1.1961700     1.1987140    -0.2700270
  C       -1.1363230    -1.1523850     0.2941990
  C        3.1117900    -0.6733570    -0.2771830
  C        3.2093430     0.6071710     0.2411150
  C       -2.5895110     1.1608830    -0.2689850
  C       -2.5303830    -1.1922690     0.2696200
  C       -3.2626170    -0.0361670    -0.0095020
  H        1.3994420    -1.7974010    -0.8317830
  H        1.6076040     2.0422160     0.8629880
  H       -0.6712930     2.1216380    -0.5070250
  H       -0.5746270    -2.0444360     0.5668450
  H        3.8716190    -1.3816710    -0.5776140
  H        4.1315670     1.1252340     0.4699550
  H       -3.1528190     2.0640850    -0.4925600
  H       -3.0466780    -2.1247140     0.4868240
  H       -4.3493910    -0.0663800    -0.0199320
units angstrom
no_reorient  #important for SAPT in psi4, default
symmetry c1  #important for SAPT in psi4, default
}

set PROPERTIES_ORIGIN ["COM"]
properties('MP2/aug-cc-pvtz', properties = ['dipole'])
--------------------------------------------------------------------------

    Molecular point group: c1
  Charge       = 0
  Multiplicity = 1
  Basis Set: AUG-CC-PVTZ
    Blend: AUG-CC-PVTZ
  Basis Set: (AUG-CC-PVTZ AUX)
    Blend: AUG-CC-PVTZ-JKFIT

    Orbital Energies [Eh]
    ---------------------

    Doubly Occupied:

       1A    -15.620377     2A    -11.266707     3A    -11.255277
       4A    -11.248027     5A    -11.242884     6A    -11.242150
       7A    -11.241198     8A    -11.240112     9A    -11.239054
      10A    -11.216703    11A    -11.213343    12A     -1.324542
      13A     -1.157705    14A     -1.050661    15A     -1.040368
      16A     -1.018074    17A     -0.957912    18A     -0.839083
      19A     -0.833249    20A     -0.797808    21A     -0.770845
      22A     -0.736940    23A     -0.680098    24A     -0.638030
      25A     -0.631335    26A     -0.602394    27A     -0.593472
      28A     -0.588960    29A     -0.576667    30A     -0.541197
      31A     -0.530681    32A     -0.507664    33A     -0.501420
      34A     -0.482465    35A     -0.362869    36A     -0.349436
      37A     -0.342520    38A     -0.263644

  @DF-RHF Final Energy:  -438.48652391191149

   => Energetics <=

    Nuclear Repulsion Energy =            537.2005760921999808
    One-Electron Energy =               -1657.8824607715121147
    Two-Electron Energy =                 682.1953607674006435
    Total Energy =                       -438.4865239119114904
  Basis Set: (AUG-CC-PVTZ AUX)
    Blend: AUG-CC-PVTZ-RI
    Molecular point group: c1

    Geometry (in Angstrom), charge = 0, multiplicity = 1:

       Center              X                  Y                   Z               Mass
    ------------   -----------------  -----------------  -----------------  -----------------
         N            1.772057519042    -0.958544322462    -0.389583936223    14.003074004430
         C            0.999942519042    -0.040303722462     0.059406163777    12.000000000000
         C           -0.456025480958     0.055316677538     0.015101063777    12.000000000000
         C            1.888652519042     1.102585677538     0.429722063777    12.000000000000
         C           -1.201412480958     1.210771677538    -0.273288936223    12.000000000000
         C           -1.141565480958    -1.140327322462     0.290937063777    12.000000000000
         C            3.106547519042    -0.661299322462    -0.280444936223    12.000000000000
         C            3.204100519042     0.619228677538     0.237853063777    12.000000000000
         C           -2.594753480958     1.172940677538    -0.272246936223    12.000000000000
         C           -2.535625480958    -1.180211322462     0.266358063777    12.000000000000
         C           -3.267859480958    -0.024109322462    -0.012763936223    12.000000000000
         H            1.394199519042    -1.785343322462    -0.835044936223     1.007825032230
         H            1.602361519042     2.054273677538     0.859726063777     1.007825032230
         H           -0.676535480958     2.133695677538    -0.510286936223     1.007825032230
         H           -0.579869480958    -2.032378322462     0.563583063777     1.007825032230
         H            3.866376519042    -1.369613322462    -0.580875936223     1.007825032230
         H            4.126324519042     1.137291677538     0.466693063777     1.007825032230
         H           -3.158061480958     2.076142677538    -0.495821936223     1.007825032230
         H           -3.051920480958    -2.112656322462     0.483562063777     1.007825032230
         H           -4.354633480958    -0.054322322462    -0.023193936223     1.007825032230

  Basis Set: AUG-CC-PVTZ
    Blend: AUG-CC-PVTZ
  Basis Set: (AUG-CC-PVTZ AUX)
    Blend: AUG-CC-PVTZ-JKFIT
	 Reference Energy          =    -438.4865239119114904 [Eh]
	 Singles Energy            =      -0.0000000000000000 [Eh]
	 Same-Spin Energy          =      -0.4968440338746524 [Eh]
	 Opposite-Spin Energy      =      -1.5269246689902229 [Eh]
	 Correlation Energy        =      -2.0237687028648752 [Eh]
	 Total Energy              =    -440.5102926147763469 [Eh]

	 ================> DF-SCS-MP2 Energies <==================
	-----------------------------------------------------------
	 SCS Same-Spin Scale       =       0.3333333333333333 [-]
	 SCS Opposite-Spin Scale   =       1.2000000000000000 [-]
	 SCS Same-Spin Energy      =      -0.1656146779582175 [Eh]
	 SCS Opposite-Spin Energy  =      -1.8323096027882675 [Eh]
	 SCS Correlation Energy    =      -1.9979242807464850 [Eh]
	 SCS Total Energy          =    -440.4844481926579647 [Eh]
	-----------------------------------------------------------

  Dipole Moment: [D]
     X:    -0.4421      Y:    -1.4584      Z:    -0.7467     Total:     1.6970

*** Psi4 exiting successfully. Buy a developer a beer!
