                               Psi4 1.3.2 release

  ==> Input File <==

--------------------------------------------------------------------------
#psi4
#
memory 32 gb

molecule  {
0 1
  N        1.7773000    -0.9706020    -0.3863220
  C        1.0053911     0.1457119     0.0153032
  C       -0.4507830     0.0432590     0.0183630
  C        1.8938950     1.0905280     0.4329840
  C       -1.1961700     1.1987140    -0.2700270
  C       -1.1363230    -1.1523850     0.2941990
  C        3.1117900    -0.6733570    -0.2771830
  C        3.2093430     0.6071710     0.2411150
  C       -2.5895110     1.1608830    -0.2689850
  C       -2.5303830    -1.1922690     0.2696200
  C       -3.2626170    -0.0361670    -0.0095020
  H        1.3994420    -1.7974010    -0.8317830
  H        1.6076040     2.0422160     0.8629880
  H       -0.6712930     2.1216380    -0.5070250
  H       -0.5746270    -2.0444360     0.5668450
  H        3.8716190    -1.3816710    -0.5776140
  H        4.1315670     1.1252340     0.4699550
  H       -3.1528190     2.0640850    -0.4925600
  H       -3.0466780    -2.1247140     0.4868240
  H       -4.3493910    -0.0663800    -0.0199320
units angstrom
no_reorient  #important for SAPT in psi4, default
symmetry c1  #important for SAPT in psi4, default
}

set PROPERTIES_ORIGIN ["COM"]
properties('MP2/aug-cc-pvtz', properties = ['dipole'])
--------------------------------------------------------------------------

    Molecular point group: c1
  Charge       = 0
  Multiplicity = 1
  Basis Set: AUG-CC-PVTZ
    Blend: AUG-CC-PVTZ
  Basis Set: (AUG-CC-PVTZ AUX)
    Blend: AUG-CC-PVTZ-JKFIT

    Orbital Energies [Eh]
    ---------------------

    Doubly Occupied:

       1A    -15.604036     2A    -11.261173     3A    -11.259345
       4A    -11.253162     5A    -11.242172     6A    -11.240848
       7A    -11.240171     8A    -11.237569     9A    -11.236889
      10A    -11.213526    11A    -11.212141    12A     -1.284877
      13A     -1.155930    14A     -1.051863    15A     -1.041452
      16A     -1.016589    17A     -0.959637    18A     -0.838464
      19A     -0.831773    20A     -0.786396    21A     -0.762139
      22A     -0.734653    23A     -0.679739    24A     -0.632879
      25A     -0.629602    26A     -0.593560    27A     -0.588778
      28A     -0.577274    29A     -0.566132    30A     -0.550294
      31A     -0.538828    32A     -0.503659    33A     -0.501526
      34A     -0.494541    35A     -0.366419    36A     -0.349081
      37A     -0.341121    38A     -0.275828

  @DF-RHF Final Energy:  -438.50689824604456

   => Energetics <=

    Nuclear Repulsion Energy =            536.6733525802748090
    One-Electron Energy =               -1657.0523683206013175
    Two-Electron Energy =                 681.8721174942818379
    Total Energy =                       -438.5068982460445568
  Basis Set: (AUG-CC-PVTZ AUX)
    Blend: AUG-CC-PVTZ-RI
    Molecular point group: c1

    Geometry (in Angstrom), charge = 0, multiplicity = 1:

       Center              X                  Y                   Z               Mass
    ------------   -----------------  -----------------  -----------------  -----------------
         N            1.772040232822    -0.975157319360    -0.385611301160    14.003074004430
         C            1.000131332822     0.141156580640     0.016013898840    12.000000000000
         C           -0.456042767178     0.038703680640     0.019073698840    12.000000000000
         C            1.888635232822     1.085972680640     0.433694698840    12.000000000000
         C           -1.201429767178     1.194158680640    -0.269316301160    12.000000000000
         C           -1.141582767178    -1.156940319360     0.294909698840    12.000000000000
         C            3.106530232822    -0.677912319360    -0.276472301160    12.000000000000
         C            3.204083232822     0.602615680640     0.241825698840    12.000000000000
         C           -2.594770767178     1.156327680640    -0.268274301160    12.000000000000
         C           -2.535642767178    -1.196824319360     0.270330698840    12.000000000000
         C           -3.267876767178    -0.040722319360    -0.008791301160    12.000000000000
         H            1.394182232822    -1.801956319360    -0.831072301160     1.007825032230
         H            1.602344232822     2.037660680640     0.863698698840     1.007825032230
         H           -0.676552767178     2.117082680640    -0.506314301160     1.007825032230
         H           -0.579886767178    -2.048991319360     0.567555698840     1.007825032230
         H            3.866359232822    -1.386226319360    -0.576903301160     1.007825032230
         H            4.126307232822     1.120678680640     0.470665698840     1.007825032230
         H           -3.158078767178     2.059529680640    -0.491849301160     1.007825032230
         H           -3.051937767178    -2.129269319360     0.487534698840     1.007825032230
         H           -4.354650767178    -0.070935319360    -0.019221301160     1.007825032230

  Basis Set: AUG-CC-PVTZ
    Blend: AUG-CC-PVTZ
  Basis Set: (AUG-CC-PVTZ AUX)
    Blend: AUG-CC-PVTZ-JKFIT
	 Reference Energy          =    -438.5068982460445568 [Eh]
	 Singles Energy            =      -0.0000000000000000 [Eh]
	 Same-Spin Energy          =      -0.4948744582361498 [Eh]
	 Opposite-Spin Energy      =      -1.5252802145106448 [Eh]
	 Correlation Energy        =      -2.0201546727467945 [Eh]
	 Total Energy              =    -440.5270529187913553 [Eh]

	 ================> DF-SCS-MP2 Energies <==================
	-----------------------------------------------------------
	 SCS Same-Spin Scale       =       0.3333333333333333 [-]
	 SCS Opposite-Spin Scale   =       1.2000000000000000 [-]
	 SCS Same-Spin Energy      =      -0.1649581527453833 [Eh]
	 SCS Opposite-Spin Energy  =      -1.8303362574127737 [Eh]
	 SCS Correlation Energy    =      -1.9952944101581569 [Eh]
	 SCS Total Energy          =    -440.5021926562027375 [Eh]
	-----------------------------------------------------------

  Dipole Moment: [D]
     X:    -0.4652      Y:    -1.2644      Z:    -0.6123     Total:     1.4798

*** Psi4 exiting successfully. Buy a developer a beer!
