                               Psi4 1.3.2 release

  ==> Input File <==

--------------------------------------------------------------------------
#psi4
#
memory 32 gb

molecule  {
0 1
  N        1.7773000    -0.9706020    -0.3863220
  C        1.0080060     0.0962300     0.0271750
  C       -0.4507830     0.0432590     0.0183630
  C        1.8302609     1.0191067     0.4038344
  C       -1.1961700     1.1987140    -0.2700270
  C       -1.1363230    -1.1523850     0.2941990
  C        3.1117900    -0.6733570    -0.2771830
  C        3.2093430     0.6071710     0.2411150
  C       -2.5895110     1.1608830    -0.2689850
  C       -2.5303830    -1.1922690     0.2696200
  C       -3.2626170    -0.0361670    -0.0095020
  H        1.3994420    -1.7974010    -0.8317830
  H        1.6076040     2.0422160     0.8629880
  H       -0.6712930     2.1216380    -0.5070250
  H       -0.5746270    -2.0444360     0.5668450
  H        3.8716190    -1.3816710    -0.5776140
  H        4.1315670     1.1252340     0.4699550
  H       -3.1528190     2.0640850    -0.4925600
  H       -3.0466780    -2.1247140     0.4868240
  H       -4.3493910    -0.0663800    -0.0199320
units angstrom
no_reorient  #important for SAPT in psi4, default
symmetry c1  #important for SAPT in psi4, default
}

set PROPERTIES_ORIGIN ["COM"]
properties('MP2/aug-cc-pvtz', properties = ['dipole'])
--------------------------------------------------------------------------

    Molecular point group: c1
  Charge       = 0
  Multiplicity = 1
  Basis Set: AUG-CC-PVTZ
    Blend: AUG-CC-PVTZ
  Basis Set: (AUG-CC-PVTZ AUX)
    Blend: AUG-CC-PVTZ-JKFIT

    Orbital Energies [Eh]
    ---------------------

    Doubly Occupied:

       1A    -15.599851     2A    -11.259137     3A    -11.252662
       4A    -11.249422     5A    -11.241872     6A    -11.240635
       7A    -11.240403     8A    -11.238062     9A    -11.237749
      10A    -11.213226    11A    -11.208699    12A     -1.297459
      13A     -1.156159    14A     -1.055250    15A     -1.039004
      16A     -1.016484    17A     -0.967812    18A     -0.836930
      19A     -0.832441    20A     -0.785619    21A     -0.759209
      22A     -0.736473    23A     -0.680992    24A     -0.633919
      25A     -0.630014    26A     -0.591578    27A     -0.589104
      28A     -0.579793    29A     -0.574790    30A     -0.561130
      31A     -0.515772    32A     -0.504273    33A     -0.497908
      34A     -0.495089    35A     -0.368755    36A     -0.344523
      37A     -0.341032    38A     -0.284856

  @DF-RHF Final Energy:  -438.49900231105920

   => Energetics <=

    Nuclear Repulsion Energy =            538.6519043688740567
    One-Electron Energy =               -1660.9856360355270226
    Two-Electron Energy =                 683.8347293555937085
    Total Energy =                       -438.4990023110592574
  Basis Set: (AUG-CC-PVTZ AUX)
    Blend: AUG-CC-PVTZ-RI
    Molecular point group: c1

    Geometry (in Angstrom), charge = 0, multiplicity = 1:

       Center              X                  Y                   Z               Mass
    ------------   -----------------  -----------------  -----------------  -----------------
         N            1.777158094646    -0.965016808314    -0.384162160676    14.003074004430
         C            1.007864094646     0.101815191686     0.029334839324    12.000000000000
         C           -0.450924905354     0.048844191686     0.020522839324    12.000000000000
         C            1.830118994646     1.024691891686     0.405994239324    12.000000000000
         C           -1.196311905354     1.204299191686    -0.267867160676    12.000000000000
         C           -1.136464905354    -1.146799808314     0.296358839324    12.000000000000
         C            3.111648094646    -0.667771808314    -0.275023160676    12.000000000000
         C            3.209201094646     0.612756191686     0.243274839324    12.000000000000
         C           -2.589652905354     1.166468191686    -0.266825160676    12.000000000000
         C           -2.530524905354    -1.186683808314     0.271779839324    12.000000000000
         C           -3.262758905354    -0.030581808314    -0.007342160676    12.000000000000
         H            1.399300094646    -1.791815808314    -0.829623160676     1.007825032230
         H            1.607462094646     2.047801191686     0.865147839324     1.007825032230
         H           -0.671434905354     2.127223191686    -0.504865160676     1.007825032230
         H           -0.574768905354    -2.038850808314     0.569004839324     1.007825032230
         H            3.871477094646    -1.376085808314    -0.575454160676     1.007825032230
         H            4.131425094646     1.130819191686     0.472114839324     1.007825032230
         H           -3.152960905354     2.069670191686    -0.490400160676     1.007825032230
         H           -3.046819905354    -2.119128808314     0.488983839324     1.007825032230
         H           -4.349532905354    -0.060794808314    -0.017772160676     1.007825032230

  Basis Set: AUG-CC-PVTZ
    Blend: AUG-CC-PVTZ
  Basis Set: (AUG-CC-PVTZ AUX)
    Blend: AUG-CC-PVTZ-JKFIT
	 Reference Energy          =    -438.4990023110592006 [Eh]
	 Singles Energy            =      -0.0000000000000000 [Eh]
	 Same-Spin Energy          =      -0.4937899903585619 [Eh]
	 Opposite-Spin Energy      =      -1.5235472692368417 [Eh]
	 Correlation Energy        =      -2.0173372595954033 [Eh]
	 Total Energy              =    -440.5163395706546225 [Eh]

	 ================> DF-SCS-MP2 Energies <==================
	-----------------------------------------------------------
	 SCS Same-Spin Scale       =       0.3333333333333333 [-]
	 SCS Opposite-Spin Scale   =       1.2000000000000000 [-]
	 SCS Same-Spin Energy      =      -0.1645966634528540 [Eh]
	 SCS Opposite-Spin Energy  =      -1.8282567230842099 [Eh]
	 SCS Correlation Energy    =      -1.9928533865370639 [Eh]
	 SCS Total Energy          =    -440.4918556975962929 [Eh]
	-----------------------------------------------------------

  Dipole Moment: [D]
     X:    -0.5135      Y:    -1.2709      Z:    -0.6324     Total:     1.5096

*** Psi4 exiting successfully. Buy a developer a beer!
