                               Psi4 1.4a3.dev225

  ==> Input File <==

--------------------------------------------------------------------------
#psi4
#
memory 32 gb

molecule  {
0 1
  N        1.7773000    -0.9706020    -0.3863220
  C        1.0080060     0.0962300     0.0271750
  C       -0.4507830     0.0432590     0.0183630
  C        1.8938950     1.0905280     0.4329840
  C       -1.1961700     1.1987140    -0.2700270
  C       -1.1363230    -1.1523850     0.2941990
  C        3.1117900    -0.6733570    -0.2771830
  C        3.1907437     0.6140052     0.2438279
  C       -2.5895110     1.1608830    -0.2689850
  C       -2.5303830    -1.1922690     0.2696200
  C       -3.2626170    -0.0361670    -0.0095020
  H        1.3994420    -1.7974010    -0.8317830
  H        1.6076040     2.0422160     0.8629880
  H       -0.6712930     2.1216380    -0.5070250
  H       -0.5746270    -2.0444360     0.5668450
  H        3.8716190    -1.3816710    -0.5776140
  H        4.1315670     1.1252340     0.4699550
  H       -3.1528190     2.0640850    -0.4925600
  H       -3.0466780    -2.1247140     0.4868240
  H       -4.3493910    -0.0663800    -0.0199320
units angstrom
no_reorient  #important for SAPT in psi4, default
symmetry c1  #important for SAPT in psi4, default
}

set PROPERTIES_ORIGIN ["COM"]
properties('MP2/aug-cc-pvtz', properties = ['dipole'])
--------------------------------------------------------------------------

    Molecular point group: c1
  Charge       = 0
  Multiplicity = 1
  Basis Set: AUG-CC-PVTZ
    Blend: AUG-CC-PVTZ
  Basis Set: (AUG-CC-PVTZ AUX)
    Blend: AUG-CC-PVTZ-JKFIT

    Orbital Energies [Eh]
    ---------------------

    Doubly Occupied:

       1A    -15.609326     2A    -11.261657     3A    -11.256460
       4A    -11.253114     5A    -11.241888     6A    -11.240617
       7A    -11.240291     8A    -11.237747     9A    -11.237480
      10A    -11.213605    11A    -11.211637    12A     -1.295003
      13A     -1.156016    14A     -1.050187    15A     -1.044353
      16A     -1.016745    17A     -0.958395    18A     -0.838045
      19A     -0.832013    20A     -0.789431    21A     -0.764033
      22A     -0.735340    23A     -0.679837    24A     -0.633209
      25A     -0.629681    26A     -0.593117    27A     -0.588451
      28A     -0.583112    29A     -0.569719    30A     -0.545883
      31A     -0.540635    32A     -0.504473    33A     -0.500837
      34A     -0.494260    35A     -0.363308    36A     -0.352568
      37A     -0.341247    38A     -0.271752

  @DF-RHF Final Energy:  -438.50779109298423

   => Energetics <=

    Nuclear Repulsion Energy =            537.1136573659160831
    One-Electron Energy =               -1657.8919581794330043
    Two-Electron Energy =                 682.2705097205328002
    Total Energy =                       -438.5077910929842346
  Basis Set: (AUG-CC-PVTZ AUX)
    Blend: AUG-CC-PVTZ-RI
    Molecular point group: c1

    Geometry (in Angstrom), charge = 0, multiplicity = 1:

       Center              X                  Y                   Z               Mass
    ------------   -----------------  -----------------  -----------------  -----------------
         N            1.773380892001    -0.971580329893    -0.386834563335    14.003074004430
         C            1.004086892001     0.095251670107     0.026662436665    12.000000000000
         C           -0.454702107999     0.042280670107     0.017850436665    12.000000000000
         C            1.889975892001     1.089549670107     0.432471436665    12.000000000000
         C           -1.200089107999     1.197735670107    -0.270539563335    12.000000000000
         C           -1.140242107999    -1.153363329893     0.293686436665    12.000000000000
         C            3.107870892001    -0.674335329893    -0.277695563335    12.000000000000
         C            3.186824592001     0.613026870107     0.243315336665    12.000000000000
         C           -2.593430107999     1.159904670107    -0.269497563335    12.000000000000
         C           -2.534302107999    -1.193247329893     0.269107436665    12.000000000000
         C           -3.266536107999    -0.037145329893    -0.010014563335    12.000000000000
         H            1.395522892001    -1.798379329893    -0.832295563335     1.007825032230
         H            1.603684892001     2.041237670107     0.862475436665     1.007825032230
         H           -0.675212107999     2.120659670107    -0.507537563335     1.007825032230
         H           -0.578546107999    -2.045414329893     0.566332436665     1.007825032230
         H            3.867699892001    -1.382649329893    -0.578126563335     1.007825032230
         H            4.127647892001     1.124255670107     0.469442436665     1.007825032230
         H           -3.156738107999     2.063106670107    -0.493072563335     1.007825032230
         H           -3.050597107999    -2.125692329893     0.486311436665     1.007825032230
         H           -4.353310107999    -0.067358329893    -0.020444563335     1.007825032230

  Basis Set: AUG-CC-PVTZ
    Blend: AUG-CC-PVTZ
  Basis Set: (AUG-CC-PVTZ AUX)
    Blend: AUG-CC-PVTZ-JKFIT
	 Reference Energy          =    -438.5077910929842346 [Eh]
	 Singles Energy            =      -0.0000000000000000 [Eh]
	 Same-Spin Energy          =      -0.4956145092674057 [Eh]
	 Opposite-Spin Energy      =      -1.5256700733076740 [Eh]
	 Correlation Energy        =      -2.0212845825750798 [Eh]
	 Total Energy              =    -440.5290756755593407 [Eh]

	 ================> DF-SCS-MP2 Energies <==================
	-----------------------------------------------------------
	 SCS Same-Spin Scale       =       0.3333333333333333 [-]
	 SCS Opposite-Spin Scale   =       1.2000000000000000 [-]
	 SCS Same-Spin Energy      =      -0.1652048364224686 [Eh]
	 SCS Opposite-Spin Energy  =      -1.8308040879692087 [Eh]
	 SCS Correlation Energy    =      -1.9960089243916772 [Eh]
	 SCS Total Energy          =    -440.5038000173759087 [Eh]
	-----------------------------------------------------------

  Dipole Moment: [D]
     X:    -0.4365      Y:    -1.3204      Z:    -0.6485     Total:     1.5344

*** Psi4 exiting successfully. Buy a developer a beer!
