                               Psi4 1.3.2 release

  ==> Input File <==

--------------------------------------------------------------------------
#psi4
#
memory 32 gb

molecule  {
0 1
  N        1.7773000    -0.9706020    -0.3863220
  C        0.9006043     0.1876157     0.0638882
  C       -0.4507830     0.0432590     0.0183630
  C        1.8938950     1.0905280     0.4329840
  C       -1.1961700     1.1987140    -0.2700270
  C       -1.1363230    -1.1523850     0.2941990
  C        3.1117900    -0.6733570    -0.2771830
  C        3.2093430     0.6071710     0.2411150
  C       -2.5895110     1.1608830    -0.2689850
  C       -2.5303830    -1.1922690     0.2696200
  C       -3.2626170    -0.0361670    -0.0095020
  H        1.3994420    -1.7974010    -0.8317830
  H        1.6076040     2.0422160     0.8629880
  H       -0.6712930     2.1216380    -0.5070250
  H       -0.5746270    -2.0444360     0.5668450
  H        3.8716190    -1.3816710    -0.5776140
  H        4.1315670     1.1252340     0.4699550
  H       -3.1528190     2.0640850    -0.4925600
  H       -3.0466780    -2.1247140     0.4868240
  H       -4.3493910    -0.0663800    -0.0199320
units angstrom
no_reorient  #important for SAPT in psi4, default
symmetry c1  #important for SAPT in psi4, default
}

set PROPERTIES_ORIGIN ["COM"]
properties('MP2/aug-cc-pvtz', properties = ['dipole'])
--------------------------------------------------------------------------

    Molecular point group: c1
  Charge       = 0
  Multiplicity = 1
  Basis Set: AUG-CC-PVTZ
    Blend: AUG-CC-PVTZ
  Basis Set: (AUG-CC-PVTZ AUX)
    Blend: AUG-CC-PVTZ-JKFIT

    Orbital Energies [Eh]
    ---------------------

    Doubly Occupied:

       1A    -15.598361     2A    -11.267678     3A    -11.264585
       4A    -11.246837     5A    -11.242525     6A    -11.241220
       7A    -11.240212     8A    -11.237497     9A    -11.236930
      10A    -11.225564    11A    -11.212753    12A     -1.260587
      13A     -1.160809    14A     -1.063433    15A     -1.037189
      16A     -1.016785    17A     -0.955512    18A     -0.852269
      19A     -0.833919    20A     -0.779972    21A     -0.753038
      22A     -0.735421    23A     -0.680311    24A     -0.638305
      25A     -0.632376    26A     -0.594812    27A     -0.589654
      28A     -0.570129    29A     -0.559230    30A     -0.542751
      31A     -0.535696    32A     -0.509979    33A     -0.501659
      34A     -0.490513    35A     -0.375146    36A     -0.346178
      37A     -0.341667    38A     -0.267276

  @DF-RHF Final Energy:  -438.47930840062270

   => Energetics <=

    Nuclear Repulsion Energy =            536.4550021035189502
    One-Electron Energy =               -1656.5910642800718051
    Two-Electron Energy =                 681.6567537759302695
    Total Energy =                       -438.4793084006226991
  Basis Set: (AUG-CC-PVTZ AUX)
    Blend: AUG-CC-PVTZ-RI
    Molecular point group: c1

    Geometry (in Angstrom), charge = 0, multiplicity = 1:

       Center              X                  Y                   Z               Mass
    ------------   -----------------  -----------------  -----------------  -----------------
         N            1.780829013457    -0.978671915721    -0.389686269640    14.003074004430
         C            0.904133313457     0.179545784279     0.060523930360    12.000000000000
         C           -0.447253986543     0.035189084279     0.014998730360    12.000000000000
         C            1.897424013457     1.082458084279     0.429619730360    12.000000000000
         C           -1.192640986543     1.190644084279    -0.273391269640    12.000000000000
         C           -1.132793986543    -1.160454915721     0.290834730360    12.000000000000
         C            3.115319013457    -0.681426915721    -0.280547269640    12.000000000000
         C            3.212872013457     0.599101084279     0.237750730360    12.000000000000
         C           -2.585981986543     1.152813084279    -0.272349269640    12.000000000000
         C           -2.526853986543    -1.200338915721     0.266255730360    12.000000000000
         C           -3.259087986543    -0.044236915721    -0.012866269640    12.000000000000
         H            1.402971013457    -1.805470915721    -0.835147269640     1.007825032230
         H            1.611133013457     2.034146084279     0.859623730360     1.007825032230
         H           -0.667763986543     2.113568084279    -0.510389269640     1.007825032230
         H           -0.571097986543    -2.052505915721     0.563480730360     1.007825032230
         H            3.875148013457    -1.389740915721    -0.580978269640     1.007825032230
         H            4.135096013457     1.117164084279     0.466590730360     1.007825032230
         H           -3.149289986543     2.056015084279    -0.495924269640     1.007825032230
         H           -3.043148986543    -2.132783915721     0.483459730360     1.007825032230
         H           -4.345861986543    -0.074449915721    -0.023296269640     1.007825032230

  Basis Set: AUG-CC-PVTZ
    Blend: AUG-CC-PVTZ
  Basis Set: (AUG-CC-PVTZ AUX)
    Blend: AUG-CC-PVTZ-JKFIT
	 Reference Energy          =    -438.4793084006226991 [Eh]
	 Singles Energy            =      -0.0000000000000000 [Eh]
	 Same-Spin Energy          =      -0.4974357309258560 [Eh]
	 Opposite-Spin Energy      =      -1.5300816026314252 [Eh]
	 Correlation Energy        =      -2.0275173335572814 [Eh]
	 Total Energy              =    -440.5068257341799836 [Eh]

	 ================> DF-SCS-MP2 Energies <==================
	-----------------------------------------------------------
	 SCS Same-Spin Scale       =       0.3333333333333333 [-]
	 SCS Opposite-Spin Scale   =       1.2000000000000000 [-]
	 SCS Same-Spin Energy      =      -0.1658119103086186 [Eh]
	 SCS Opposite-Spin Energy  =      -1.8360979231577101 [Eh]
	 SCS Correlation Energy    =      -2.0019098334663288 [Eh]
	 SCS Total Energy          =    -440.4812182340890558 [Eh]
	-----------------------------------------------------------

  Dipole Moment: [D]
     X:    -0.4534      Y:    -1.1903      Z:    -0.5788     Total:     1.3991

*** Psi4 exiting successfully. Buy a developer a beer!
