                               Psi4 1.3.2 release

  ==> Input File <==

--------------------------------------------------------------------------
#psi4
#
memory 32 gb

molecule  {
0 1
  N        1.6535002    -1.0389850    -0.4150328
  C        1.0080060     0.0962300     0.0271750
  C       -0.4507830     0.0432590     0.0183630
  C        1.8938950     1.0905280     0.4329840
  C       -1.1961700     1.1987140    -0.2700270
  C       -1.1363230    -1.1523850     0.2941990
  C        3.1117900    -0.6733570    -0.2771830
  C        3.2093430     0.6071710     0.2411150
  C       -2.5895110     1.1608830    -0.2689850
  C       -2.5303830    -1.1922690     0.2696200
  C       -3.2626170    -0.0361670    -0.0095020
  H        1.3994420    -1.7974010    -0.8317830
  H        1.6076040     2.0422160     0.8629880
  H       -0.6712930     2.1216380    -0.5070250
  H       -0.5746270    -2.0444360     0.5668450
  H        3.8716190    -1.3816710    -0.5776140
  H        4.1315670     1.1252340     0.4699550
  H       -3.1528190     2.0640850    -0.4925600
  H       -3.0466780    -2.1247140     0.4868240
  H       -4.3493910    -0.0663800    -0.0199320
units angstrom
no_reorient  #important for SAPT in psi4, default
symmetry c1  #important for SAPT in psi4, default
}

set PROPERTIES_ORIGIN ["COM"]
properties('MP2/aug-cc-pvtz', properties = ['dipole'])
--------------------------------------------------------------------------

    Molecular point group: c1
  Charge       = 0
  Multiplicity = 1
  Basis Set: AUG-CC-PVTZ
    Blend: AUG-CC-PVTZ
  Basis Set: (AUG-CC-PVTZ AUX)
    Blend: AUG-CC-PVTZ-JKFIT

    Orbital Energies [Eh]
    ---------------------

    Doubly Occupied:

       1A    -15.595692     2A    -11.274045     3A    -11.264929
       4A    -11.250058     5A    -11.241431     6A    -11.240142
       7A    -11.239933     8A    -11.237917     9A    -11.237365
      10A    -11.226598    11A    -11.215479    12A     -1.272774
      13A     -1.154350    14A     -1.063156    15A     -1.042856
      16A     -1.016581    17A     -0.950552    18A     -0.842877
      19A     -0.831016    20A     -0.811302    21A     -0.757649
      22A     -0.731434    23A     -0.675271    24A     -0.634983
      25A     -0.624409    26A     -0.614306    27A     -0.589077
      28A     -0.565289    29A     -0.561028    30A     -0.544861
      31A     -0.537758    32A     -0.500594    33A     -0.498505
      34A     -0.494384    35A     -0.363371    36A     -0.356796
      37A     -0.340704    38A     -0.274387

  @DF-RHF Final Energy:  -438.47877032689377

   => Energetics <=

    Nuclear Repulsion Energy =            535.7887009148321340
    One-Electron Energy =               -1655.1872254125689778
    Two-Electron Energy =                 680.9197541708431345
    Total Energy =                       -438.4787703268937094
  Basis Set: (AUG-CC-PVTZ AUX)
    Blend: AUG-CC-PVTZ-RI
    Molecular point group: c1

    Geometry (in Angstrom), charge = 0, multiplicity = 1:

       Center              X                  Y                   Z               Mass
    ------------   -----------------  -----------------  -----------------  -----------------
         N            1.660137807036    -1.032697256058    -0.412507803904    14.003074004430
         C            1.014643607036     0.102517743942     0.029699996096    12.000000000000
         C           -0.444145392964     0.049546743942     0.020887996096    12.000000000000
         C            1.900532607036     1.096815743942     0.435508996096    12.000000000000
         C           -1.189532392964     1.205001743942    -0.267502003904    12.000000000000
         C           -1.129685392964    -1.146097256058     0.296723996096    12.000000000000
         C            3.118427607036    -0.667069256058    -0.274658003904    12.000000000000
         C            3.215980607036     0.613458743942     0.243639996096    12.000000000000
         C           -2.582873392964     1.167170743942    -0.266460003904    12.000000000000
         C           -2.523745392964    -1.185981256058     0.272144996096    12.000000000000
         C           -3.255979392964    -0.029879256058    -0.006977003904    12.000000000000
         H            1.406079607036    -1.791113256058    -0.829258003904     1.007825032230
         H            1.614241607036     2.048503743942     0.865512996096     1.007825032230
         H           -0.664655392964     2.127925743942    -0.504500003904     1.007825032230
         H           -0.567989392964    -2.038148256058     0.569369996096     1.007825032230
         H            3.878256607036    -1.375383256058    -0.575089003904     1.007825032230
         H            4.138204607036     1.131521743942     0.472479996096     1.007825032230
         H           -3.146181392964     2.070372743942    -0.490035003904     1.007825032230
         H           -3.040040392964    -2.118426256058     0.489348996096     1.007825032230
         H           -4.342753392964    -0.060092256058    -0.017407003904     1.007825032230

  Basis Set: AUG-CC-PVTZ
    Blend: AUG-CC-PVTZ
  Basis Set: (AUG-CC-PVTZ AUX)
    Blend: AUG-CC-PVTZ-JKFIT
	 Reference Energy          =    -438.4787703268937662 [Eh]
	 Singles Energy            =      -0.0000000000000000 [Eh]
	 Same-Spin Energy          =      -0.4941868213140383 [Eh]
	 Opposite-Spin Energy      =      -1.5266691103061829 [Eh]
	 Correlation Energy        =      -2.0208559316202210 [Eh]
	 Total Energy              =    -440.4996262585140130 [Eh]

	 ================> DF-SCS-MP2 Energies <==================
	-----------------------------------------------------------
	 SCS Same-Spin Scale       =       0.3333333333333333 [-]
	 SCS Opposite-Spin Scale   =       1.2000000000000000 [-]
	 SCS Same-Spin Energy      =      -0.1647289404380128 [Eh]
	 SCS Opposite-Spin Energy  =      -1.8320029323674194 [Eh]
	 SCS Correlation Energy    =      -1.9967318728054322 [Eh]
	 SCS Total Energy          =    -440.4755021996991786 [Eh]
	-----------------------------------------------------------

  Dipole Moment: [D]
     X:    -0.2286      Y:    -0.9924      Z:    -0.5217     Total:     1.1442

*** Psi4 exiting successfully. Buy a developer a beer!
