                               Psi4 1.3.2 release

  ==> Input File <==

--------------------------------------------------------------------------
#psi4
#
memory 32 gb

molecule  {
0 1
  N        1.7773000    -0.9706020    -0.3863220
  C        1.0080060     0.0962300     0.0271750
  C       -0.4507830     0.0432590     0.0183630
  C        1.8938950     1.0905280     0.4329840
  C       -1.1961700     1.1987140    -0.2700270
  C       -1.1363230    -1.1523850     0.2941990
  C        3.0156826    -0.6632001    -0.2751739
  C        3.2093430     0.6071710     0.2411150
  C       -2.5895110     1.1608830    -0.2689850
  C       -2.5303830    -1.1922690     0.2696200
  C       -3.2626170    -0.0361670    -0.0095020
  H        1.3994420    -1.7974010    -0.8317830
  H        1.6076040     2.0422160     0.8629880
  H       -0.6712930     2.1216380    -0.5070250
  H       -0.5746270    -2.0444360     0.5668450
  H        3.8716190    -1.3816710    -0.5776140
  H        4.1315670     1.1252340     0.4699550
  H       -3.1528190     2.0640850    -0.4925600
  H       -3.0466780    -2.1247140     0.4868240
  H       -4.3493910    -0.0663800    -0.0199320
units angstrom
no_reorient  #important for SAPT in psi4, default
symmetry c1  #important for SAPT in psi4, default
}

set PROPERTIES_ORIGIN ["COM"]
properties('MP2/aug-cc-pvtz', properties = ['dipole'])
--------------------------------------------------------------------------

    Molecular point group: c1
  Charge       = 0
  Multiplicity = 1
  Basis Set: AUG-CC-PVTZ
    Blend: AUG-CC-PVTZ
  Basis Set: (AUG-CC-PVTZ AUX)
    Blend: AUG-CC-PVTZ-JKFIT

    Orbital Energies [Eh]
    ---------------------

    Doubly Occupied:

       1A    -15.613532     2A    -11.259287     3A    -11.255011
       4A    -11.251911     5A    -11.240769     6A    -11.239330
       7A    -11.238523     8A    -11.235498     9A    -11.235241
      10A    -11.215616    11A    -11.207390    12A     -1.325984
      13A     -1.155231    14A     -1.055693    15A     -1.043821
      16A     -1.015460    17A     -0.957704    18A     -0.833324
      19A     -0.832099    20A     -0.800460    21A     -0.772572
      22A     -0.730728    23A     -0.677660    24A     -0.634575
      25A     -0.628930    26A     -0.605131    27A     -0.592686
      28A     -0.583311    29A     -0.575052    30A     -0.553832
      31A     -0.517925    32A     -0.502855    33A     -0.499342
      34A     -0.492717    35A     -0.367437    36A     -0.350279
      37A     -0.340088    38A     -0.269492

  @DF-RHF Final Energy:  -438.49731247404236

   => Energetics <=

    Nuclear Repulsion Energy =            538.9369515720893560
    One-Electron Energy =               -1661.4555387436867022
    Two-Electron Energy =                 684.0212746975549862
    Total Energy =                       -438.4973124740423600
  Basis Set: (AUG-CC-PVTZ AUX)
    Blend: AUG-CC-PVTZ-RI
    Molecular point group: c1

    Geometry (in Angstrom), charge = 0, multiplicity = 1:

       Center              X                  Y                   Z               Mass
    ------------   -----------------  -----------------  -----------------  -----------------
         N            1.779881726918    -0.971859014626    -0.386775533535    14.003074004430
         C            1.010587726918     0.094972985374     0.026721466465    12.000000000000
         C           -0.448201273082     0.042001985374     0.017909466465    12.000000000000
         C            1.896476726918     1.089270985374     0.432530466465    12.000000000000
         C           -1.193588273082     1.197456985374    -0.270480533535    12.000000000000
         C           -1.133741273082    -1.153642014626     0.293745466465    12.000000000000
         C            3.018264326918    -0.664457114626    -0.275627433535    12.000000000000
         C            3.211924726918     0.605913985374     0.240661466465    12.000000000000
         C           -2.586929273082     1.159625985374    -0.269438533535    12.000000000000
         C           -2.527801273082    -1.193526014626     0.269166466465    12.000000000000
         C           -3.260035273082    -0.037424014626    -0.009955533535    12.000000000000
         H            1.402023726918    -1.798658014626    -0.832236533535     1.007825032230
         H            1.610185726918     2.040958985374     0.862534466465     1.007825032230
         H           -0.668711273082     2.120380985374    -0.507478533535     1.007825032230
         H           -0.572045273082    -2.045693014626     0.566391466465     1.007825032230
         H            3.874200726918    -1.382928014626    -0.578067533535     1.007825032230
         H            4.134148726918     1.123976985374     0.469501466465     1.007825032230
         H           -3.150237273082     2.062827985374    -0.493013533535     1.007825032230
         H           -3.044096273082    -2.125971014626     0.486370466465     1.007825032230
         H           -4.346809273082    -0.067637014626    -0.020385533535     1.007825032230

  Basis Set: AUG-CC-PVTZ
    Blend: AUG-CC-PVTZ
  Basis Set: (AUG-CC-PVTZ AUX)
    Blend: AUG-CC-PVTZ-JKFIT
	 Reference Energy          =    -438.4973124740423600 [Eh]
	 Singles Energy            =      -0.0000000000000000 [Eh]
	 Same-Spin Energy          =      -0.4955560951081441 [Eh]
	 Opposite-Spin Energy      =      -1.5244326590451160 [Eh]
	 Correlation Energy        =      -2.0199887541532604 [Eh]
	 Total Energy              =    -440.5173012281956062 [Eh]

	 ================> DF-SCS-MP2 Energies <==================
	-----------------------------------------------------------
	 SCS Same-Spin Scale       =       0.3333333333333333 [-]
	 SCS Opposite-Spin Scale   =       1.2000000000000000 [-]
	 SCS Same-Spin Energy      =      -0.1651853650360480 [Eh]
	 SCS Opposite-Spin Energy  =      -1.8293191908541391 [Eh]
	 SCS Correlation Energy    =      -1.9945045558901870 [Eh]
	 SCS Total Energy          =    -440.4918170299325197 [Eh]
	-----------------------------------------------------------

  Dipole Moment: [D]
     X:    -0.3903      Y:    -1.4037      Z:    -0.6814     Total:     1.6084

*** Psi4 exiting successfully. Buy a developer a beer!
