                               Psi4 1.3.2 release

  ==> Input File <==

--------------------------------------------------------------------------
#psi4
#
memory 32 gb

molecule  {
0 1
  N        1.7773000    -0.9706020    -0.3863220
  C        1.0080060     0.0962300     0.0271750
  C       -0.4507830     0.0432590     0.0183630
  C        1.8938950     1.0905280     0.4329840
  C       -1.1961700     1.1987140    -0.2700270
  C       -1.1363230    -1.1523850     0.2941990
  C        3.1117900    -0.6733570    -0.2771830
  C        3.2093430     0.6071710     0.2411150
  C       -2.5895110     1.1608830    -0.2689850
  C       -2.5303830    -1.1922690     0.2696200
  C       -3.2626170    -0.0361670    -0.0095020
  H        1.3247907    -1.9607470    -0.9197902
  H        1.6076040     2.0422160     0.8629880
  H       -0.6712930     2.1216380    -0.5070250
  H       -0.5746270    -2.0444360     0.5668450
  H        3.8716190    -1.3816710    -0.5776140
  H        4.1315670     1.1252340     0.4699550
  H       -3.1528190     2.0640850    -0.4925600
  H       -3.0466780    -2.1247140     0.4868240
  H       -4.3493910    -0.0663800    -0.0199320
units angstrom
no_reorient  #important for SAPT in psi4, default
symmetry c1  #important for SAPT in psi4, default
}

set PROPERTIES_ORIGIN ["COM"]
properties('MP2/aug-cc-pvtz', properties = ['dipole'])
--------------------------------------------------------------------------

    Molecular point group: c1
  Charge       = 0
  Multiplicity = 1
  Basis Set: AUG-CC-PVTZ
    Blend: AUG-CC-PVTZ
  Basis Set: (AUG-CC-PVTZ AUX)
    Blend: AUG-CC-PVTZ-JKFIT

    Orbital Energies [Eh]
    ---------------------

    Doubly Occupied:

       1A    -15.623113     2A    -11.261517     3A    -11.256012
       4A    -11.252642     5A    -11.241635     6A    -11.240299
       7A    -11.239956     8A    -11.237401     9A    -11.237129
      10A    -11.213092    11A    -11.212000    12A     -1.283445
      13A     -1.155453    14A     -1.046530    15A     -1.030265
      16A     -1.015369    17A     -0.958389    18A     -0.836090
      19A     -0.831615    20A     -0.765158    21A     -0.753516
      22A     -0.730228    23A     -0.678097    24A     -0.632653
      25A     -0.627978    26A     -0.590227    27A     -0.582873
      28A     -0.574389    29A     -0.563103    30A     -0.548122
      31A     -0.534992    32A     -0.504017    33A     -0.500254
      34A     -0.493556    35A     -0.362459    36A     -0.347924
      37A     -0.340931    38A     -0.272576

  @DF-RHF Final Energy:  -438.47791086191205

   => Energetics <=

    Nuclear Repulsion Energy =            535.8032349829876466
    One-Electron Energy =               -1655.4122811028760225
    Two-Electron Energy =                 681.1311352579762115
    Total Energy =                       -438.4779108619120507
  Basis Set: (AUG-CC-PVTZ AUX)
    Blend: AUG-CC-PVTZ-RI
    Molecular point group: c1

    Geometry (in Angstrom), charge = 0, multiplicity = 1:

       Center              X                  Y                   Z               Mass
    ------------   -----------------  -----------------  -----------------  -----------------
         N            1.772346765122    -0.969856498513    -0.385987092212    14.003074004430
         C            1.003052765122     0.096975501487     0.027509907788    12.000000000000
         C           -0.455736234878     0.044004501487     0.018697907788    12.000000000000
         C            1.888941765122     1.091273501487     0.433318907788    12.000000000000
         C           -1.201123234878     1.199459501487    -0.269692092212    12.000000000000
         C           -1.141276234878    -1.151639498513     0.294533907788    12.000000000000
         C            3.106836765122    -0.672611498513    -0.276848092212    12.000000000000
         C            3.204389765122     0.607916501487     0.241449907788    12.000000000000
         C           -2.594464234878     1.161628501487    -0.268650092212    12.000000000000
         C           -2.535336234878    -1.191523498513     0.269954907788    12.000000000000
         C           -3.267570234878    -0.035421498513    -0.009167092212    12.000000000000
         H            1.319837465122    -1.960001498513    -0.919455292212     1.007825032230
         H            1.602650765122     2.042961501487     0.863322907788     1.007825032230
         H           -0.676246234878     2.122383501487    -0.506690092212     1.007825032230
         H           -0.579580234878    -2.043690498513     0.567179907788     1.007825032230
         H            3.866665765122    -1.380925498513    -0.577279092212     1.007825032230
         H            4.126613765122     1.125979501487     0.470289907788     1.007825032230
         H           -3.157772234878     2.064830501487    -0.492225092212     1.007825032230
         H           -3.051631234878    -2.123968498513     0.487158907788     1.007825032230
         H           -4.354344234878    -0.065634498513    -0.019597092212     1.007825032230

  Basis Set: AUG-CC-PVTZ
    Blend: AUG-CC-PVTZ
  Basis Set: (AUG-CC-PVTZ AUX)
    Blend: AUG-CC-PVTZ-JKFIT
	 Reference Energy          =    -438.4779108619120507 [Eh]
	 Singles Energy            =      -0.0000000000000000 [Eh]
	 Same-Spin Energy          =      -0.4971363794188818 [Eh]
	 Opposite-Spin Energy      =      -1.5298676526151647 [Eh]
	 Correlation Energy        =      -2.0270040320340463 [Eh]
	 Total Energy              =    -440.5049148939460792 [Eh]

	 ================> DF-SCS-MP2 Energies <==================
	-----------------------------------------------------------
	 SCS Same-Spin Scale       =       0.3333333333333333 [-]
	 SCS Opposite-Spin Scale   =       1.2000000000000000 [-]
	 SCS Same-Spin Energy      =      -0.1657121264729606 [Eh]
	 SCS Opposite-Spin Energy  =      -1.8358411831381976 [Eh]
	 SCS Correlation Energy    =      -2.0015533096111580 [Eh]
	 SCS Total Energy          =    -440.4794641715232046 [Eh]
	-----------------------------------------------------------

  Dipole Moment: [D]
     X:    -0.4948      Y:    -1.4873      Z:    -0.7412     Total:     1.7339

*** Psi4 exiting successfully. Buy a developer a beer!
