                               Psi4 1.3.2 release

  ==> Input File <==

--------------------------------------------------------------------------
#psi4
#
memory 32 gb

molecule  {
0 1
  N        1.7773000    -0.9706020    -0.3863220
  C        1.0080060     0.0962300     0.0271750
  C       -0.4507830     0.0432590     0.0183630
  C        1.8938950     1.0905280     0.4329840
  C       -1.1961700     1.1987140    -0.2700270
  C       -1.1363230    -1.1523850     0.2941990
  C        3.1117900    -0.6733570    -0.2771830
  C        3.2022989     0.5147063     0.2036896
  C       -2.5895110     1.1608830    -0.2689850
  C       -2.5303830    -1.1922690     0.2696200
  C       -3.2626170    -0.0361670    -0.0095020
  H        1.3994420    -1.7974010    -0.8317830
  H        1.6076040     2.0422160     0.8629880
  H       -0.6712930     2.1216380    -0.5070250
  H       -0.5746270    -2.0444360     0.5668450
  H        3.8716190    -1.3816710    -0.5776140
  H        4.1315670     1.1252340     0.4699550
  H       -3.1528190     2.0640850    -0.4925600
  H       -3.0466780    -2.1247140     0.4868240
  H       -4.3493910    -0.0663800    -0.0199320
units angstrom
no_reorient  #important for SAPT in psi4, default
symmetry c1  #important for SAPT in psi4, default
}

set PROPERTIES_ORIGIN ["COM"]
properties('MP2/aug-cc-pvtz', properties = ['dipole'])
--------------------------------------------------------------------------

    Molecular point group: c1
  Charge       = 0
  Multiplicity = 1
  Basis Set: AUG-CC-PVTZ
    Blend: AUG-CC-PVTZ
  Basis Set: (AUG-CC-PVTZ AUX)
    Blend: AUG-CC-PVTZ-JKFIT

    Orbital Energies [Eh]
    ---------------------

    Doubly Occupied:

       1A    -15.598938     2A    -11.264300     3A    -11.252980
       4A    -11.242677     5A    -11.242456     6A    -11.241262
       7A    -11.241068     8A    -11.238924     9A    -11.238597
      10A    -11.212221    11A    -11.207954    12A     -1.296397
      13A     -1.156959    14A     -1.051182    15A     -1.043656
      16A     -1.017282    17A     -0.967116    18A     -0.840909
      19A     -0.832100    20A     -0.778206    21A     -0.761169
      22A     -0.736683    23A     -0.680793    24A     -0.633557
      25A     -0.629944    26A     -0.591940    27A     -0.587453
      28A     -0.582826    29A     -0.571119    30A     -0.561646
      31A     -0.522847    32A     -0.505392    33A     -0.498086
      34A     -0.490012    35A     -0.366508    36A     -0.348421
      37A     -0.341730    38A     -0.282870

  @DF-RHF Final Energy:  -438.49836732978122

   => Energetics <=

    Nuclear Repulsion Energy =            538.0614679317948230
    One-Electron Energy =               -1659.8033153159769881
    Two-Electron Energy =                 683.2434800544009477
    Total Energy =                       -438.4983673297812174
  Basis Set: (AUG-CC-PVTZ AUX)
    Blend: AUG-CC-PVTZ-RI
    Molecular point group: c1

    Geometry (in Angstrom), charge = 0, multiplicity = 1:

       Center              X                  Y                   Z               Mass
    ------------   -----------------  -----------------  -----------------  -----------------
         N            1.772411723002    -0.963251835756    -0.383468044711    14.003074004430
         C            1.003117723002     0.103580164244     0.030028955289    12.000000000000
         C           -0.455671276998     0.050609164244     0.021216955289    12.000000000000
         C            1.889006723002     1.097878164244     0.435837955289    12.000000000000
         C           -1.201058276998     1.206064164244    -0.267173044711    12.000000000000
         C           -1.141211276998    -1.145034835756     0.297052955289    12.000000000000
         C            3.106901723002    -0.666006835756    -0.274329044711    12.000000000000
         C            3.197410623002     0.522056464244     0.206543555289    12.000000000000
         C           -2.594399276998     1.168233164244    -0.266131044711    12.000000000000
         C           -2.535271276998    -1.184918835756     0.272473955289    12.000000000000
         C           -3.267505276998    -0.028816835756    -0.006648044711    12.000000000000
         H            1.394553723002    -1.790050835756    -0.828929044711     1.007825032230
         H            1.602715723002     2.049566164244     0.865841955289     1.007825032230
         H           -0.676181276998     2.128988164244    -0.504171044711     1.007825032230
         H           -0.579515276998    -2.037085835756     0.569698955289     1.007825032230
         H            3.866730723002    -1.374320835756    -0.574760044711     1.007825032230
         H            4.126678723002     1.132584164244     0.472808955289     1.007825032230
         H           -3.157707276998     2.071435164244    -0.489706044711     1.007825032230
         H           -3.051566276998    -2.117363835756     0.489677955289     1.007825032230
         H           -4.354279276998    -0.059029835756    -0.017078044711     1.007825032230

  Basis Set: AUG-CC-PVTZ
    Blend: AUG-CC-PVTZ
  Basis Set: (AUG-CC-PVTZ AUX)
    Blend: AUG-CC-PVTZ-JKFIT
	 Reference Energy          =    -438.4983673297812174 [Eh]
	 Singles Energy            =      -0.0000000000000000 [Eh]
	 Same-Spin Energy          =      -0.4938728257392691 [Eh]
	 Opposite-Spin Energy      =      -1.5233711322300731 [Eh]
	 Correlation Energy        =      -2.0172439579693422 [Eh]
	 Total Energy              =    -440.5156112877505734 [Eh]

	 ================> DF-SCS-MP2 Energies <==================
	-----------------------------------------------------------
	 SCS Same-Spin Scale       =       0.3333333333333333 [-]
	 SCS Opposite-Spin Scale   =       1.2000000000000000 [-]
	 SCS Same-Spin Energy      =      -0.1646242752464230 [Eh]
	 SCS Opposite-Spin Energy  =      -1.8280453586760876 [Eh]
	 SCS Correlation Energy    =      -1.9926696339225107 [Eh]
	 SCS Total Energy          =    -440.4910369637037206 [Eh]
	-----------------------------------------------------------

  Dipole Moment: [D]
     X:    -0.4748      Y:    -1.2927      Z:    -0.6355     Total:     1.5168

*** Psi4 exiting successfully. Buy a developer a beer!
