                               Psi4 1.3.2 release

  ==> Input File <==

--------------------------------------------------------------------------
#psi4
#
memory 32 gb

molecule  {
0 1
  N        1.7773000    -0.9706020    -0.3863220
  C        1.0080060     0.0962300     0.0271750
  C       -0.4507830     0.0432590     0.0183630
  C        1.8938950     1.0905280     0.4329840
  C       -1.2492248     1.2809565    -0.2905539
  C       -1.1363230    -1.1523850     0.2941990
  C        3.1117900    -0.6733570    -0.2771830
  C        3.2093430     0.6071710     0.2411150
  C       -2.5895110     1.1608830    -0.2689850
  C       -2.5303830    -1.1922690     0.2696200
  C       -3.2626170    -0.0361670    -0.0095020
  H        1.3994420    -1.7974010    -0.8317830
  H        1.6076040     2.0422160     0.8629880
  H       -0.6712930     2.1216380    -0.5070250
  H       -0.5746270    -2.0444360     0.5668450
  H        3.8716190    -1.3816710    -0.5776140
  H        4.1315670     1.1252340     0.4699550
  H       -3.1528190     2.0640850    -0.4925600
  H       -3.0466780    -2.1247140     0.4868240
  H       -4.3493910    -0.0663800    -0.0199320
units angstrom
no_reorient  #important for SAPT in psi4, default
symmetry c1  #important for SAPT in psi4, default
}

set PROPERTIES_ORIGIN ["COM"]
properties('MP2/aug-cc-pvtz', properties = ['dipole'])
--------------------------------------------------------------------------

    Molecular point group: c1
  Charge       = 0
  Multiplicity = 1
  Basis Set: AUG-CC-PVTZ
    Blend: AUG-CC-PVTZ
  Basis Set: (AUG-CC-PVTZ AUX)
    Blend: AUG-CC-PVTZ-JKFIT

    Orbital Energies [Eh]
    ---------------------

    Doubly Occupied:

       1A    -15.608782     2A    -11.263183     3A    -11.261932
       4A    -11.257815     5A    -11.242414     6A    -11.239461
       7A    -11.238914     8A    -11.237481     9A    -11.234878
      10A    -11.214983    11A    -11.213871    12A     -1.294680
      13A     -1.151055    14A     -1.046057    15A     -1.042349
      16A     -1.022983    17A     -0.956847    18A     -0.842940
      19A     -0.826885    20A     -0.788494    21A     -0.766323
      22A     -0.731575    23A     -0.686724    24A     -0.635714
      25A     -0.626683    26A     -0.598963    27A     -0.590689
      28A     -0.579059    29A     -0.567166    30A     -0.552064
      31A     -0.539086    32A     -0.509797    33A     -0.499649
      34A     -0.480951    35A     -0.361375    36A     -0.351372
      37A     -0.345414    38A     -0.270243

  @DF-RHF Final Energy:  -438.49735424250366

   => Energetics <=

    Nuclear Repulsion Energy =            535.4839166897834275
    One-Electron Energy =               -1654.6048484486038888
    Two-Electron Energy =                 680.6235775163168000
    Total Energy =                       -438.4973542425036612
  Basis Set: (AUG-CC-PVTZ AUX)
    Blend: AUG-CC-PVTZ-RI
    Molecular point group: c1

    Geometry (in Angstrom), charge = 0, multiplicity = 1:

       Center              X                  Y                   Z               Mass
    ------------   -----------------  -----------------  -----------------  -----------------
         N            1.776270777284    -0.977905048338    -0.384885372175    14.003074004430
         C            1.006976777284     0.088926951662     0.028611627825    12.000000000000
         C           -0.451812222716     0.035955951662     0.019799627825    12.000000000000
         C            1.892865777284     1.083224951662     0.434420627825    12.000000000000
         C           -1.250254022716     1.273653451662    -0.289117272175    12.000000000000
         C           -1.137352222716    -1.159688048338     0.295635627825    12.000000000000
         C            3.110760777284    -0.680660048338    -0.275746372175    12.000000000000
         C            3.208313777284     0.599867951662     0.242551627825    12.000000000000
         C           -2.590540222716     1.153579951662    -0.267548372175    12.000000000000
         C           -2.531412222716    -1.199572048338     0.271056627825    12.000000000000
         C           -3.263646222716    -0.043470048338    -0.008065372175    12.000000000000
         H            1.398412777284    -1.804704048338    -0.830346372175     1.007825032230
         H            1.606574777284     2.034912951662     0.864424627825     1.007825032230
         H           -0.672322222716     2.114334951662    -0.505588372175     1.007825032230
         H           -0.575656222716    -2.051739048338     0.568281627825     1.007825032230
         H            3.870589777284    -1.388974048338    -0.576177372175     1.007825032230
         H            4.130537777284     1.117930951662     0.471391627825     1.007825032230
         H           -3.153848222716     2.056781951662    -0.491123372175     1.007825032230
         H           -3.047707222716    -2.132017048338     0.488260627825     1.007825032230
         H           -4.350420222716    -0.073683048338    -0.018495372175     1.007825032230

  Basis Set: AUG-CC-PVTZ
    Blend: AUG-CC-PVTZ
  Basis Set: (AUG-CC-PVTZ AUX)
    Blend: AUG-CC-PVTZ-JKFIT
	 Reference Energy          =    -438.4973542425036612 [Eh]
	 Singles Energy            =      -0.0000000000000000 [Eh]
	 Same-Spin Energy          =      -0.4951419624999093 [Eh]
	 Opposite-Spin Energy      =      -1.5258804983857321 [Eh]
	 Correlation Energy        =      -2.0210224608856415 [Eh]
	 Total Energy              =    -440.5183767033893218 [Eh]

	 ================> DF-SCS-MP2 Energies <==================
	-----------------------------------------------------------
	 SCS Same-Spin Scale       =       0.3333333333333333 [-]
	 SCS Opposite-Spin Scale   =       1.2000000000000000 [-]
	 SCS Same-Spin Energy      =      -0.1650473208333031 [Eh]
	 SCS Opposite-Spin Energy  =      -1.8310565980628786 [Eh]
	 SCS Correlation Energy    =      -1.9961039188961816 [Eh]
	 SCS Total Energy          =    -440.4934581613998148 [Eh]
	-----------------------------------------------------------

  Dipole Moment: [D]
     X:    -0.3578      Y:    -1.3213      Z:    -0.6473     Total:     1.5142

*** Psi4 exiting successfully. Buy a developer a beer!
