                               Psi4 1.3.2 release

  ==> Input File <==

--------------------------------------------------------------------------
#psi4
#
memory 32 gb

molecule  {
0 1
  N        1.7773000    -0.9706020    -0.3863220
  C        1.0638029     0.0188527    -0.0028159
  C       -0.4507830     0.0432590     0.0183630
  C        1.8938950     1.0905280     0.4329840
  C       -1.1961700     1.1987140    -0.2700270
  C       -1.1363230    -1.1523850     0.2941990
  C        3.1117900    -0.6733570    -0.2771830
  C        3.2093430     0.6071710     0.2411150
  C       -2.5895110     1.1608830    -0.2689850
  C       -2.5303830    -1.1922690     0.2696200
  C       -3.2626170    -0.0361670    -0.0095020
  H        1.3994420    -1.7974010    -0.8317830
  H        1.6076040     2.0422160     0.8629880
  H       -0.6712930     2.1216380    -0.5070250
  H       -0.5746270    -2.0444360     0.5668450
  H        3.8716190    -1.3816710    -0.5776140
  H        4.1315670     1.1252340     0.4699550
  H       -3.1528190     2.0640850    -0.4925600
  H       -3.0466780    -2.1247140     0.4868240
  H       -4.3493910    -0.0663800    -0.0199320
units angstrom
no_reorient  #important for SAPT in psi4, default
symmetry c1  #important for SAPT in psi4, default
}

set PROPERTIES_ORIGIN ["COM"]
properties('MP2/aug-cc-pvtz', properties = ['dipole'])
--------------------------------------------------------------------------

    Molecular point group: c1
  Charge       = 0
  Multiplicity = 1
  Basis Set: AUG-CC-PVTZ
    Blend: AUG-CC-PVTZ
  Basis Set: (AUG-CC-PVTZ AUX)
    Blend: AUG-CC-PVTZ-JKFIT

    Orbital Energies [Eh]
    ---------------------

    Doubly Occupied:

       1A    -15.615224     2A    -11.263435     3A    -11.257029
       4A    -11.247680     5A    -11.242153     6A    -11.241655
       7A    -11.240412     8A    -11.239329     9A    -11.238372
      10A    -11.215061    11A    -11.208093    12A     -1.327038
      13A     -1.155143    14A     -1.048308    15A     -1.040789
      16A     -1.017344    17A     -0.960915    18A     -0.832310
      19A     -0.831673    20A     -0.800293    21A     -0.774540
      22A     -0.733000    23A     -0.679482    24A     -0.633737
      25A     -0.629209    26A     -0.604842    27A     -0.594143
      28A     -0.587662    29A     -0.574946    30A     -0.548154
      31A     -0.531180    32A     -0.506357    33A     -0.497963
      34A     -0.486523    35A     -0.358160    36A     -0.352744
      37A     -0.341768    38A     -0.271820

  @DF-RHF Final Energy:  -438.49815004196392

   => Energetics <=

    Nuclear Repulsion Energy =            537.2791812935115559
    One-Electron Energy =               -1658.0976864979536458
    Two-Electron Energy =                 682.3203551624782222
    Total Energy =                       -438.4981500419638678
  Basis Set: (AUG-CC-PVTZ AUX)
    Blend: AUG-CC-PVTZ-RI
    Molecular point group: c1

    Geometry (in Angstrom), charge = 0, multiplicity = 1:

       Center              X                  Y                   Z               Mass
    ------------   -----------------  -----------------  -----------------  -----------------
         N            1.767141061393    -0.964517260876    -0.384091598342    14.003074004430
         C            1.053643961393     0.024937439124    -0.000585498342    12.000000000000
         C           -0.460941938607     0.049343739124     0.020593401658    12.000000000000
         C            1.883736061393     1.096612739124     0.435214401658    12.000000000000
         C           -1.206328938607     1.204798739124    -0.267796598342    12.000000000000
         C           -1.146481938607    -1.146300260876     0.296429401658    12.000000000000
         C            3.101631061393    -0.667272260876    -0.274952598342    12.000000000000
         C            3.199184061393     0.613255739124     0.243345401658    12.000000000000
         C           -2.599669938607     1.166967739124    -0.266754598342    12.000000000000
         C           -2.540541938607    -1.186184260876     0.271850401658    12.000000000000
         C           -3.272775938607    -0.030082260876    -0.007271598342    12.000000000000
         H            1.389283061393    -1.791316260876    -0.829552598342     1.007825032230
         H            1.597445061393     2.048300739124     0.865218401658     1.007825032230
         H           -0.681451938607     2.127722739124    -0.504794598342     1.007825032230
         H           -0.584785938607    -2.038351260876     0.569075401658     1.007825032230
         H            3.861460061393    -1.375586260876    -0.575383598342     1.007825032230
         H            4.121408061393     1.131318739124     0.472185401658     1.007825032230
         H           -3.162977938607     2.070169739124    -0.490329598342     1.007825032230
         H           -3.056836938607    -2.118629260876     0.489054401658     1.007825032230
         H           -4.359549938607    -0.060295260876    -0.017701598342     1.007825032230

  Basis Set: AUG-CC-PVTZ
    Blend: AUG-CC-PVTZ
  Basis Set: (AUG-CC-PVTZ AUX)
    Blend: AUG-CC-PVTZ-JKFIT
	 Reference Energy          =    -438.4981500419639247 [Eh]
	 Singles Energy            =      -0.0000000000000000 [Eh]
	 Same-Spin Energy          =      -0.4950189698721820 [Eh]
	 Opposite-Spin Energy      =      -1.5240055477650207 [Eh]
	 Correlation Energy        =      -2.0190245176372028 [Eh]
	 Total Energy              =    -440.5171745596011306 [Eh]

	 ================> DF-SCS-MP2 Energies <==================
	-----------------------------------------------------------
	 SCS Same-Spin Scale       =       0.3333333333333333 [-]
	 SCS Opposite-Spin Scale   =       1.2000000000000000 [-]
	 SCS Same-Spin Energy      =      -0.1650063232907273 [Eh]
	 SCS Opposite-Spin Energy  =      -1.8288066573180248 [Eh]
	 SCS Correlation Energy    =      -1.9938129806087521 [Eh]
	 SCS Total Energy          =    -440.4919630225726905 [Eh]
	-----------------------------------------------------------

  Dipole Moment: [D]
     X:    -0.5076      Y:    -1.4309      Z:    -0.7068     Total:     1.6748

*** Psi4 exiting successfully. Buy a developer a beer!
