                               Psi4 1.3.2 release

  ==> Input File <==

--------------------------------------------------------------------------
#psi4
#
memory 32 gb

molecule  {
0 1
  N        1.7773000    -0.9706020    -0.3863220
  C        1.0080060     0.0962300     0.0271750
  C       -0.4507830     0.0432590     0.0183630
  C        1.8938950     1.0905280     0.4329840
  C       -1.1961700     1.1987140    -0.2700270
  C       -1.1363230    -1.1523850     0.2941990
  C        3.1117900    -0.6733570    -0.2771830
  C        3.2093430     0.6071710     0.2411150
  C       -2.5895110     1.1608830    -0.2689850
  C       -2.5303830    -1.1922690     0.2696200
  C       -3.2626170    -0.0361670    -0.0095020
  H        1.3994420    -1.7974010    -0.8317830
  H        1.6076040     2.0422160     0.8629880
  H       -0.6712930     2.1216380    -0.5070250
  H       -0.5746270    -2.0444360     0.5668450
  H        3.8716190    -1.3816710    -0.5776140
  H        4.3019950     1.2209726     0.5122449
  H       -3.1528190     2.0640850    -0.4925600
  H       -3.0466780    -2.1247140     0.4868240
  H       -4.3493910    -0.0663800    -0.0199320
units angstrom
no_reorient  #important for SAPT in psi4, default
symmetry c1  #important for SAPT in psi4, default
}

set PROPERTIES_ORIGIN ["COM"]
properties('MP2/aug-cc-pvtz', properties = ['dipole'])
--------------------------------------------------------------------------

    Molecular point group: c1
  Charge       = 0
  Multiplicity = 1
  Basis Set: AUG-CC-PVTZ
    Blend: AUG-CC-PVTZ
  Basis Set: (AUG-CC-PVTZ AUX)
    Blend: AUG-CC-PVTZ-JKFIT

    Orbital Energies [Eh]
    ---------------------

    Doubly Occupied:

       1A    -15.609680     2A    -11.263677     3A    -11.258586
       4A    -11.254051     5A    -11.242605     6A    -11.241293
       7A    -11.241129     8A    -11.238570     9A    -11.238278
      10A    -11.234912    11A    -11.215541    12A     -1.295757
      13A     -1.156820    14A     -1.049802    15A     -1.041371
      16A     -1.017259    17A     -0.959195    18A     -0.838663
      19A     -0.832172    20A     -0.782311    21A     -0.756503
      22A     -0.734435    23A     -0.679847    24A     -0.633928
      25A     -0.630254    26A     -0.591568    27A     -0.583885
      28A     -0.582374    29A     -0.570624    30A     -0.540135
      31A     -0.522518    32A     -0.505256    33A     -0.498913
      34A     -0.492497    35A     -0.364314    36A     -0.351790
      37A     -0.341906    38A     -0.274540

  @DF-RHF Final Energy:  -438.48619338087713

   => Energetics <=

    Nuclear Repulsion Energy =            535.9160731658696477
    One-Electron Energy =               -1655.4706184785063670
    Two-Electron Energy =                 681.0683519317595938
    Total Energy =                       -438.4861933808771255
  Basis Set: (AUG-CC-PVTZ AUX)
    Blend: AUG-CC-PVTZ-RI
    Molecular point group: c1

    Geometry (in Angstrom), charge = 0, multiplicity = 1:

       Center              X                  Y                   Z               Mass
    ------------   -----------------  -----------------  -----------------  -----------------
         N            1.770620400319    -0.971681518147    -0.386904918921    14.003074004430
         C            1.001326400319     0.095150481853     0.026592081079    12.000000000000
         C           -0.457462599681     0.042179481853     0.017780081079    12.000000000000
         C            1.887215400319     1.089448481853     0.432401081079    12.000000000000
         C           -1.202849599681     1.197634481853    -0.270609918921    12.000000000000
         C           -1.143002599681    -1.153464518147     0.293616081079    12.000000000000
         C            3.105110400319    -0.674436518147    -0.277765918921    12.000000000000
         C            3.202663400319     0.606091481853     0.240532081079    12.000000000000
         C           -2.596190599681     1.159803481853    -0.269567918921    12.000000000000
         C           -2.537062599681    -1.193348518147     0.269037081079    12.000000000000
         C           -3.269296599681    -0.037246518147    -0.010084918921    12.000000000000
         H            1.392762400319    -1.798480518147    -0.832365918921     1.007825032230
         H            1.600924400319     2.041136481853     0.862405081079     1.007825032230
         H           -0.677972599681     2.120558481853    -0.507607918921     1.007825032230
         H           -0.581306599681    -2.045515518147     0.566262081079     1.007825032230
         H            3.864939400319    -1.382750518147    -0.578196918921     1.007825032230
         H            4.295315400319     1.219893081853     0.511661981079     1.007825032230
         H           -3.159498599681     2.063005481853    -0.493142918921     1.007825032230
         H           -3.053357599681    -2.125793518147     0.486241081079     1.007825032230
         H           -4.356070599681    -0.067459518147    -0.020514918921     1.007825032230

  Basis Set: AUG-CC-PVTZ
    Blend: AUG-CC-PVTZ
  Basis Set: (AUG-CC-PVTZ AUX)
    Blend: AUG-CC-PVTZ-JKFIT
	 Reference Energy          =    -438.4861933808771255 [Eh]
	 Singles Energy            =      -0.0000000000000000 [Eh]
	 Same-Spin Energy          =      -0.4956257418446583 [Eh]
	 Opposite-Spin Energy      =      -1.5273770774373641 [Eh]
	 Correlation Energy        =      -2.0230028192820222 [Eh]
	 Total Energy              =    -440.5091962001591241 [Eh]

	 ================> DF-SCS-MP2 Energies <==================
	-----------------------------------------------------------
	 SCS Same-Spin Scale       =       0.3333333333333333 [-]
	 SCS Opposite-Spin Scale   =       1.2000000000000000 [-]
	 SCS Same-Spin Energy      =      -0.1652085806148861 [Eh]
	 SCS Opposite-Spin Energy  =      -1.8328524929248369 [Eh]
	 SCS Correlation Energy    =      -1.9980610735397231 [Eh]
	 SCS Total Energy          =    -440.4842544544168277 [Eh]
	-----------------------------------------------------------

  Dipole Moment: [D]
     X:    -0.5399      Y:    -1.3396      Z:    -0.6560     Total:     1.5863

*** Psi4 exiting successfully. Buy a developer a beer!
