                               Psi4 1.3.2 release

  ==> Input File <==

--------------------------------------------------------------------------
#psi4
#
memory 32 gb

molecule  {
0 1
  N        1.7773000    -0.9706020    -0.3863220
  C        1.0080060     0.0962300     0.0271750
  C       -0.4507830     0.0432590     0.0183630
  C        1.8938950     1.0905280     0.4329840
  C       -1.1961700     1.1987140    -0.2700270
  C       -1.1363230    -1.1523850     0.2941990
  C        3.1117900    -0.6733570    -0.2771830
  C        3.2093430     0.6071710     0.2411150
  C       -2.5895110     1.1608830    -0.2689850
  C       -2.5303830    -1.1922690     0.2696200
  C       -3.2626170    -0.0361670    -0.0095020
  H        1.4740933    -1.6340550    -0.7437758
  H        1.6076040     2.0422160     0.8629880
  H       -0.6712930     2.1216380    -0.5070250
  H       -0.5746270    -2.0444360     0.5668450
  H        3.8716190    -1.3816710    -0.5776140
  H        4.1315670     1.1252340     0.4699550
  H       -3.1528190     2.0640850    -0.4925600
  H       -3.0466780    -2.1247140     0.4868240
  H       -4.3493910    -0.0663800    -0.0199320
units angstrom
no_reorient  #important for SAPT in psi4, default
symmetry c1  #important for SAPT in psi4, default
}

set PROPERTIES_ORIGIN ["COM"]
properties('MP2/aug-cc-pvtz', properties = ['dipole'])
--------------------------------------------------------------------------

    Molecular point group: c1
  Charge       = 0
  Multiplicity = 1
  Basis Set: AUG-CC-PVTZ
    Blend: AUG-CC-PVTZ
  Basis Set: (AUG-CC-PVTZ AUX)
    Blend: AUG-CC-PVTZ-JKFIT

    Orbital Energies [Eh]
    ---------------------

    Doubly Occupied:

       1A    -15.587207     2A    -11.263188     3A    -11.257647
       4A    -11.253760     5A    -11.242282     6A    -11.241066
       7A    -11.240863     8A    -11.238458     9A    -11.238135
      10A    -11.215152    11A    -11.213949    12A     -1.316384
      13A     -1.157022    14A     -1.072237    15A     -1.047160
      16A     -1.017634    17A     -0.960212    18A     -0.848041
      19A     -0.832716    20A     -0.825297    21A     -0.767169
      22A     -0.736959    23A     -0.681257    24A     -0.633930
      25A     -0.631771    26A     -0.604765    27A     -0.590565
      28A     -0.584426    29A     -0.572340    30A     -0.551072
      31A     -0.538557    32A     -0.505131    33A     -0.501294
      34A     -0.494951    35A     -0.364614    36A     -0.353058
      37A     -0.341621    38A     -0.274272

  @DF-RHF Final Energy:  -438.46444718796033

   => Energetics <=

    Nuclear Repulsion Energy =            538.1849391678681513
    One-Electron Energy =               -1659.7064474989786049
    Two-Electron Energy =                 683.0570611431501220
    Total Energy =                       -438.4644471879603316
  Basis Set: (AUG-CC-PVTZ AUX)
    Blend: AUG-CC-PVTZ-RI
    Molecular point group: c1

    Geometry (in Angstrom), charge = 0, multiplicity = 1:

       Center              X                  Y                   Z               Mass
    ------------   -----------------  -----------------  -----------------  -----------------
         N            1.771295061639    -0.972157751904    -0.387226956472    14.003074004430
         C            1.002001061639     0.094674248096     0.026270043528    12.000000000000
         C           -0.456787938361     0.041703248096     0.017458043528    12.000000000000
         C            1.887890061639     1.088972248096     0.432079043528    12.000000000000
         C           -1.202174938361     1.197158248096    -0.270931956472    12.000000000000
         C           -1.142327938361    -1.153940751904     0.293294043528    12.000000000000
         C            3.105785061639    -0.674912751904    -0.278087956472    12.000000000000
         C            3.203338061639     0.605615248096     0.240210043528    12.000000000000
         C           -2.595515938361     1.159327248096    -0.269889956472    12.000000000000
         C           -2.536387938361    -1.193824751904     0.268715043528    12.000000000000
         C           -3.268621938361    -0.037722751904    -0.010406956472    12.000000000000
         H            1.468088361639    -1.635610751904    -0.744680756472     1.007825032230
         H            1.601599061639     2.040660248096     0.862083043528     1.007825032230
         H           -0.677297938361     2.120082248096    -0.507929956472     1.007825032230
         H           -0.580631938361    -2.045991751904     0.565940043528     1.007825032230
         H            3.865614061639    -1.383226751904    -0.578518956472     1.007825032230
         H            4.125562061639     1.123678248096     0.469050043528     1.007825032230
         H           -3.158823938361     2.062529248096    -0.493464956472     1.007825032230
         H           -3.052682938361    -2.126269751904     0.485919043528     1.007825032230
         H           -4.355395938361    -0.067935751904    -0.020836956472     1.007825032230

  Basis Set: AUG-CC-PVTZ
    Blend: AUG-CC-PVTZ
  Basis Set: (AUG-CC-PVTZ AUX)
    Blend: AUG-CC-PVTZ-JKFIT
	 Reference Energy          =    -438.4644471879603316 [Eh]
	 Singles Energy            =      -0.0000000000000000 [Eh]
	 Same-Spin Energy          =      -0.4937129991140604 [Eh]
	 Opposite-Spin Energy      =      -1.5225275547322630 [Eh]
	 Correlation Energy        =      -2.0162405538463233 [Eh]
	 Total Energy              =    -440.4806877418066620 [Eh]

	 ================> DF-SCS-MP2 Energies <==================
	-----------------------------------------------------------
	 SCS Same-Spin Scale       =       0.3333333333333333 [-]
	 SCS Opposite-Spin Scale   =       1.2000000000000000 [-]
	 SCS Same-Spin Energy      =      -0.1645709997046868 [Eh]
	 SCS Opposite-Spin Energy  =      -1.8270330656787155 [Eh]
	 SCS Correlation Energy    =      -1.9916040653834024 [Eh]
	 SCS Total Energy          =    -440.4560512533437304 [Eh]
	-----------------------------------------------------------

  Dipole Moment: [D]
     X:    -0.4064      Y:    -1.1452      Z:    -0.5521     Total:     1.3347

*** Psi4 exiting successfully. Buy a developer a beer!
