                               Psi4 1.3.2 release

  ==> Input File <==

--------------------------------------------------------------------------
#psi4
#
memory 32 gb

molecule  {
0 1
  N        1.7773000    -0.9706020    -0.3863220
  C        1.0010033     0.1950481     0.0033484
  C       -0.4507830     0.0432590     0.0183630
  C        1.8938950     1.0905280     0.4329840
  C       -1.1961700     1.1987140    -0.2700270
  C       -1.1363230    -1.1523850     0.2941990
  C        3.1117900    -0.6733570    -0.2771830
  C        3.2093430     0.6071710     0.2411150
  C       -2.5895110     1.1608830    -0.2689850
  C       -2.5303830    -1.1922690     0.2696200
  C       -3.2626170    -0.0361670    -0.0095020
  H        1.3994420    -1.7974010    -0.8317830
  H        1.6076040     2.0422160     0.8629880
  H       -0.6712930     2.1216380    -0.5070250
  H       -0.5746270    -2.0444360     0.5668450
  H        3.8716190    -1.3816710    -0.5776140
  H        4.1315670     1.1252340     0.4699550
  H       -3.1528190     2.0640850    -0.4925600
  H       -3.0466780    -2.1247140     0.4868240
  H       -4.3493910    -0.0663800    -0.0199320
units angstrom
no_reorient  #important for SAPT in psi4, default
symmetry c1  #important for SAPT in psi4, default
}

set PROPERTIES_ORIGIN ["COM"]
properties('MP2/aug-cc-pvtz', properties = ['dipole'])
--------------------------------------------------------------------------

    Molecular point group: c1
  Charge       = 0
  Multiplicity = 1
  Basis Set: AUG-CC-PVTZ
    Blend: AUG-CC-PVTZ
  Basis Set: (AUG-CC-PVTZ AUX)
    Blend: AUG-CC-PVTZ-JKFIT

    Orbital Energies [Eh]
    ---------------------

    Doubly Occupied:

       1A    -15.599681     2A    -11.261908     3A    -11.260669
       4A    -11.253428     5A    -11.242479     6A    -11.241266
       7A    -11.239769     8A    -11.237414     9A    -11.236160
      10A    -11.213536    11A    -11.211205    12A     -1.276192
      13A     -1.155870    14A     -1.055304    15A     -1.040028
      16A     -1.016526    17A     -0.960048    18A     -0.839451
      19A     -0.831337    20A     -0.784776    21A     -0.759041
      22A     -0.733926    23A     -0.679545    24A     -0.633287
      25A     -0.629548    26A     -0.594433    27A     -0.588892
      28A     -0.571108    29A     -0.563614    30A     -0.549307
      31A     -0.540143    32A     -0.502871    33A     -0.502616
      34A     -0.493081    35A     -0.370181    36A     -0.347767
      37A     -0.341011    38A     -0.277764

  @DF-RHF Final Energy:  -438.50049688764693

   => Energetics <=

    Nuclear Repulsion Energy =            536.5008664649157026
    One-Electron Energy =               -1656.7323596412634288
    Two-Electron Energy =                 681.7309962887006805
    Total Energy =                       -438.5004968876469320
  Basis Set: (AUG-CC-PVTZ AUX)
    Blend: AUG-CC-PVTZ-RI
    Molecular point group: c1

    Geometry (in Angstrom), charge = 0, multiplicity = 1:

       Center              X                  Y                   Z               Mass
    ------------   -----------------  -----------------  -----------------  -----------------
         N            1.772408250661    -0.979295293219    -0.384608616520    14.003074004430
         C            0.996111550661     0.186354806781     0.005061783480    12.000000000000
         C           -0.455674749339     0.034565706781     0.020076383480    12.000000000000
         C            1.889003250661     1.081834706781     0.434697383480    12.000000000000
         C           -1.201061749339     1.190020706781    -0.268313616520    12.000000000000
         C           -1.141214749339    -1.161078293219     0.295912383480    12.000000000000
         C            3.106898250661    -0.682050293219    -0.275469616520    12.000000000000
         C            3.204451250661     0.598477706781     0.242828383480    12.000000000000
         C           -2.594402749339     1.152189706781    -0.267271616520    12.000000000000
         C           -2.535274749339    -1.200962293219     0.271333383480    12.000000000000
         C           -3.267508749339    -0.044860293219    -0.007788616520    12.000000000000
         H            1.394550250661    -1.806094293219    -0.830069616520     1.007825032230
         H            1.602712250661     2.033522706781     0.864701383480     1.007825032230
         H           -0.676184749339     2.112944706781    -0.505311616520     1.007825032230
         H           -0.579518749339    -2.053129293219     0.568558383480     1.007825032230
         H            3.866727250661    -1.390364293219    -0.575900616520     1.007825032230
         H            4.126675250661     1.116540706781     0.471668383480     1.007825032230
         H           -3.157710749339     2.055391706781    -0.490846616520     1.007825032230
         H           -3.051569749339    -2.133407293219     0.488537383480     1.007825032230
         H           -4.354282749339    -0.075073293219    -0.018218616520     1.007825032230

  Basis Set: AUG-CC-PVTZ
    Blend: AUG-CC-PVTZ
  Basis Set: (AUG-CC-PVTZ AUX)
    Blend: AUG-CC-PVTZ-JKFIT
	 Reference Energy          =    -438.5004968876469320 [Eh]
	 Singles Energy            =      -0.0000000000000000 [Eh]
	 Same-Spin Energy          =      -0.4946054345969415 [Eh]
	 Opposite-Spin Energy      =      -1.5254742906639460 [Eh]
	 Correlation Energy        =      -2.0200797252608873 [Eh]
	 Total Energy              =    -440.5205766129078029 [Eh]

	 ================> DF-SCS-MP2 Energies <==================
	-----------------------------------------------------------
	 SCS Same-Spin Scale       =       0.3333333333333333 [-]
	 SCS Opposite-Spin Scale   =       1.2000000000000000 [-]
	 SCS Same-Spin Energy      =      -0.1648684781989805 [Eh]
	 SCS Opposite-Spin Energy  =      -1.8305691487967350 [Eh]
	 SCS Correlation Energy    =      -1.9954376269957155 [Eh]
	 SCS Total Energy          =    -440.4959345146426699 [Eh]
	-----------------------------------------------------------

  Dipole Moment: [D]
     X:    -0.4850      Y:    -1.2069      Z:    -0.5765     Total:     1.4227

*** Psi4 exiting successfully. Buy a developer a beer!
