                               Psi4 1.3.2 release

  ==> Input File <==

--------------------------------------------------------------------------
#psi4
#
memory 32 gb

molecule  {
0 1
  N        1.7773000    -0.9706020    -0.3863220
  C        1.0080060     0.0962300     0.0271750
  C       -0.3695276     0.0963595     0.0044244
  C        1.8938950     1.0905280     0.4329840
  C       -1.1961700     1.1987140    -0.2700270
  C       -1.1363230    -1.1523850     0.2941990
  C        3.1117900    -0.6733570    -0.2771830
  C        3.2093430     0.6071710     0.2411150
  C       -2.5895110     1.1608830    -0.2689850
  C       -2.5303830    -1.1922690     0.2696200
  C       -3.2626170    -0.0361670    -0.0095020
  H        1.3994420    -1.7974010    -0.8317830
  H        1.6076040     2.0422160     0.8629880
  H       -0.6712930     2.1216380    -0.5070250
  H       -0.5746270    -2.0444360     0.5668450
  H        3.8716190    -1.3816710    -0.5776140
  H        4.1315670     1.1252340     0.4699550
  H       -3.1528190     2.0640850    -0.4925600
  H       -3.0466780    -2.1247140     0.4868240
  H       -4.3493910    -0.0663800    -0.0199320
units angstrom
no_reorient  #important for SAPT in psi4, default
symmetry c1  #important for SAPT in psi4, default
}

set PROPERTIES_ORIGIN ["COM"]
properties('MP2/aug-cc-pvtz', properties = ['dipole'])
--------------------------------------------------------------------------

    Molecular point group: c1
  Charge       = 0
  Multiplicity = 1
  Basis Set: AUG-CC-PVTZ
    Blend: AUG-CC-PVTZ
  Basis Set: (AUG-CC-PVTZ AUX)
    Blend: AUG-CC-PVTZ-JKFIT

    Orbital Energies [Eh]
    ---------------------

    Doubly Occupied:

       1A    -15.610866     2A    -11.260701     3A    -11.258144
       4A    -11.254896     5A    -11.247634     6A    -11.240423
       7A    -11.240009     8A    -11.237266     9A    -11.237000
      10A    -11.216566    11A    -11.215423    12A     -1.298063
      13A     -1.148743    14A     -1.058655    15A     -1.045357
      16A     -1.011805    17A     -0.958053    18A     -0.846837
      19A     -0.826634    20A     -0.790790    21A     -0.766803
      22A     -0.737747    23A     -0.681185    24A     -0.634556
      25A     -0.625945    26A     -0.595054    27A     -0.589644
      28A     -0.582380    29A     -0.573616    30A     -0.551111
      31A     -0.539278    32A     -0.513034    33A     -0.496775
      34A     -0.478108    35A     -0.367384    36A     -0.352460
      37A     -0.338626    38A     -0.267367

  @DF-RHF Final Energy:  -438.49411934958084

   => Energetics <=

    Nuclear Repulsion Energy =            536.8501135218242553
    One-Electron Energy =               -1657.2985903931771645
    Two-Electron Energy =                 681.9543575217719535
    Total Energy =                       -438.4941193495808420
  Basis Set: (AUG-CC-PVTZ AUX)
    Blend: AUG-CC-PVTZ-RI
    Molecular point group: c1

    Geometry (in Angstrom), charge = 0, multiplicity = 1:

       Center              X                  Y                   Z               Mass
    ------------   -----------------  -----------------  -----------------  -----------------
         N            1.765005781264    -0.975460822107    -0.385437952495    14.003074004430
         C            0.995711781264     0.091371177893     0.028059047505    12.000000000000
         C           -0.381821818736     0.091500677893     0.005308447505    12.000000000000
         C            1.881600781264     1.085669177893     0.433868047505    12.000000000000
         C           -1.208464218736     1.193855177893    -0.269142952495    12.000000000000
         C           -1.148617218736    -1.157243822107     0.295083047505    12.000000000000
         C            3.099495781264    -0.678215822107    -0.276298952495    12.000000000000
         C            3.197048781264     0.602312177893     0.241999047505    12.000000000000
         C           -2.601805218736     1.156024177893    -0.268100952495    12.000000000000
         C           -2.542677218736    -1.197127822107     0.270504047505    12.000000000000
         C           -3.274911218736    -0.041025822107    -0.008617952495    12.000000000000
         H            1.387147781264    -1.802259822107    -0.830898952495     1.007825032230
         H            1.595309781264     2.037357177893     0.863872047505     1.007825032230
         H           -0.683587218736     2.116779177893    -0.506140952495     1.007825032230
         H           -0.586921218736    -2.049294822107     0.567729047505     1.007825032230
         H            3.859324781264    -1.386529822107    -0.576729952495     1.007825032230
         H            4.119272781264     1.120375177893     0.470839047505     1.007825032230
         H           -3.165113218736     2.059226177893    -0.491675952495     1.007825032230
         H           -3.058972218736    -2.129572822107     0.487708047505     1.007825032230
         H           -4.361685218736    -0.071238822107    -0.019047952495     1.007825032230

  Basis Set: AUG-CC-PVTZ
    Blend: AUG-CC-PVTZ
  Basis Set: (AUG-CC-PVTZ AUX)
    Blend: AUG-CC-PVTZ-JKFIT
	 Reference Energy          =    -438.4941193495808420 [Eh]
	 Singles Energy            =      -0.0000000000000000 [Eh]
	 Same-Spin Energy          =      -0.4968245181906504 [Eh]
	 Opposite-Spin Energy      =      -1.5279444636628021 [Eh]
	 Correlation Energy        =      -2.0247689818534527 [Eh]
	 Total Energy              =    -440.5188883314343116 [Eh]

	 ================> DF-SCS-MP2 Energies <==================
	-----------------------------------------------------------
	 SCS Same-Spin Scale       =       0.3333333333333333 [-]
	 SCS Opposite-Spin Scale   =       1.2000000000000000 [-]
	 SCS Same-Spin Energy      =      -0.1656081727302168 [Eh]
	 SCS Opposite-Spin Energy  =      -1.8335333563953624 [Eh]
	 SCS Correlation Energy    =      -1.9991415291255792 [Eh]
	 SCS Total Energy          =    -440.4932608787063941 [Eh]
	-----------------------------------------------------------

  Dipole Moment: [D]
     X:    -0.1416      Y:    -1.3148      Z:    -0.6465     Total:     1.4719

*** Psi4 exiting successfully. Buy a developer a beer!
