                               Psi4 1.3.2 release

  ==> Input File <==

--------------------------------------------------------------------------
#psi4
#
memory 32 gb

molecule  {
0 1
  N        1.7773000    -0.9706020    -0.3863220
  C        1.0080060     0.0962300     0.0271750
  C       -0.4507830     0.0432590     0.0183630
  C        1.8938950     1.0905280     0.4329840
  C       -1.1961700     1.1987140    -0.2700270
  C       -1.1363230    -1.1523850     0.2941990
  C        3.2566951    -0.6768878    -0.2754624
  C        3.2093430     0.6071710     0.2411150
  C       -2.5895110     1.1608830    -0.2689850
  C       -2.5303830    -1.1922690     0.2696200
  C       -3.2626170    -0.0361670    -0.0095020
  H        1.3994420    -1.7974010    -0.8317830
  H        1.6076040     2.0422160     0.8629880
  H       -0.6712930     2.1216380    -0.5070250
  H       -0.5746270    -2.0444360     0.5668450
  H        3.8716190    -1.3816710    -0.5776140
  H        4.1315670     1.1252340     0.4699550
  H       -3.1528190     2.0640850    -0.4925600
  H       -3.0466780    -2.1247140     0.4868240
  H       -4.3493910    -0.0663800    -0.0199320
units angstrom
no_reorient  #important for SAPT in psi4, default
symmetry c1  #important for SAPT in psi4, default
}

set PROPERTIES_ORIGIN ["COM"]
properties('MP2/aug-cc-pvtz', properties = ['dipole'])
--------------------------------------------------------------------------

    Molecular point group: c1
  Charge       = 0
  Multiplicity = 1
  Basis Set: AUG-CC-PVTZ
    Blend: AUG-CC-PVTZ
  Basis Set: (AUG-CC-PVTZ AUX)
    Blend: AUG-CC-PVTZ-JKFIT

    Orbital Energies [Eh]
    ---------------------

    Doubly Occupied:

       1A    -15.598158     2A    -11.272400     3A    -11.256233
       4A    -11.255101     5A    -11.244194     6A    -11.243067
       7A    -11.242715     8A    -11.241413     9A    -11.240837
      10A    -11.225120    11A    -11.210879    12A     -1.259835
      13A     -1.157216    14A     -1.046463    15A     -1.038195
      16A     -1.018490    17A     -0.962386    18A     -0.845377
      19A     -0.833438    20A     -0.784405    21A     -0.763003
      22A     -0.735170    23A     -0.680846    24A     -0.638192
      25A     -0.628882    26A     -0.598597    27A     -0.592046
      28A     -0.568977    29A     -0.558012    30A     -0.551578
      31A     -0.530095    32A     -0.504765    33A     -0.501980
      34A     -0.496098    35A     -0.362805    36A     -0.348143
      37A     -0.343139    38A     -0.278305

  @DF-RHF Final Energy:  -438.48249396763759

   => Energetics <=

    Nuclear Repulsion Energy =            534.0386437477749269
    One-Electron Energy =               -1651.7291650648232917
    Two-Electron Energy =                 679.2080273494109406
    Total Energy =                       -438.4824939676375379
  Basis Set: (AUG-CC-PVTZ AUX)
    Blend: AUG-CC-PVTZ-RI
    Molecular point group: c1

    Geometry (in Angstrom), charge = 0, multiplicity = 1:

       Center              X                  Y                   Z               Mass
    ------------   -----------------  -----------------  -----------------  -----------------
         N            1.759667291581    -0.970710986509    -0.386751336182    14.003074004430
         C            0.990373291581     0.096121013491     0.026745663818    12.000000000000
         C           -0.468415708419     0.043150013491     0.017933663818    12.000000000000
         C            1.876262291581     1.090419013491     0.432554663818    12.000000000000
         C           -1.213802708419     1.198605013491    -0.270456336182    12.000000000000
         C           -1.153955708419    -1.152493986509     0.293769663818    12.000000000000
         C            3.239062391581    -0.676996786509    -0.275891736182    12.000000000000
         C            3.191710291581     0.607062013491     0.240685663818    12.000000000000
         C           -2.607143708419     1.160774013491    -0.269414336182    12.000000000000
         C           -2.548015708419    -1.192377986509     0.269190663818    12.000000000000
         C           -3.280249708419    -0.036275986509    -0.009931336182    12.000000000000
         H            1.381809291581    -1.797509986509    -0.832212336182     1.007825032230
         H            1.589971291581     2.042107013491     0.862558663818     1.007825032230
         H           -0.688925708419     2.121529013491    -0.507454336182     1.007825032230
         H           -0.592259708419    -2.044544986509     0.566415663818     1.007825032230
         H            3.853986291581    -1.381779986509    -0.578043336182     1.007825032230
         H            4.113934291581     1.125125013491     0.469525663818     1.007825032230
         H           -3.170451708419     2.063976013491    -0.492989336182     1.007825032230
         H           -3.064310708419    -2.124822986509     0.486394663818     1.007825032230
         H           -4.367023708419    -0.066488986509    -0.020361336182     1.007825032230

  Basis Set: AUG-CC-PVTZ
    Blend: AUG-CC-PVTZ
  Basis Set: (AUG-CC-PVTZ AUX)
    Blend: AUG-CC-PVTZ-JKFIT
	 Reference Energy          =    -438.4824939676375948 [Eh]
	 Singles Energy            =      -0.0000000000000000 [Eh]
	 Same-Spin Energy          =      -0.4951301719054382 [Eh]
	 Opposite-Spin Energy      =      -1.5278630516644567 [Eh]
	 Correlation Energy        =      -2.0229932235698951 [Eh]
	 Total Energy              =    -440.5054871912074645 [Eh]

	 ================> DF-SCS-MP2 Energies <==================
	-----------------------------------------------------------
	 SCS Same-Spin Scale       =       0.3333333333333333 [-]
	 SCS Opposite-Spin Scale   =       1.2000000000000000 [-]
	 SCS Same-Spin Energy      =      -0.1650433906351461 [Eh]
	 SCS Opposite-Spin Energy  =      -1.8334356619973480 [Eh]
	 SCS Correlation Energy    =      -1.9984790526324940 [Eh]
	 SCS Total Energy          =    -440.4809730202700848 [Eh]
	-----------------------------------------------------------

  Dipole Moment: [D]
     X:    -0.5407      Y:    -1.1818      Z:    -0.5937     Total:     1.4288

*** Psi4 exiting successfully. Buy a developer a beer!
