                               Psi4 1.3.2 release

  ==> Input File <==

--------------------------------------------------------------------------
#psi4
#
memory 32 gb

molecule  {
0 1
  N        1.7773000    -0.9706020    -0.3863220
  C        1.0080060     0.0962300     0.0271750
  C       -0.4716801     0.0308539     0.0216306
  C        1.8938950     1.0905280     0.4329840
  C       -1.1961700     1.1987140    -0.2700270
  C       -1.1363230    -1.1523850     0.2941990
  C        3.1117900    -0.6733570    -0.2771830
  C        3.2093430     0.6071710     0.2411150
  C       -2.5895110     1.1608830    -0.2689850
  C       -2.5303830    -1.1922690     0.2696200
  C       -3.2626170    -0.0361670    -0.0095020
  H        1.3994420    -1.7974010    -0.8317830
  H        1.6076040     2.0422160     0.8629880
  H       -0.6712930     2.1216380    -0.5070250
  H       -0.5746270    -2.0444360     0.5668450
  H        3.8716190    -1.3816710    -0.5776140
  H        4.1315670     1.1252340     0.4699550
  H       -3.1528190     2.0640850    -0.4925600
  H       -3.0466780    -2.1247140     0.4868240
  H       -4.3493910    -0.0663800    -0.0199320
units angstrom
no_reorient  #important for SAPT in psi4, default
symmetry c1  #important for SAPT in psi4, default
}

set PROPERTIES_ORIGIN ["COM"]
properties('MP2/aug-cc-pvtz', properties = ['dipole'])
--------------------------------------------------------------------------

    Molecular point group: c1
  Charge       = 0
  Multiplicity = 1
  Basis Set: AUG-CC-PVTZ
    Blend: AUG-CC-PVTZ
  Basis Set: (AUG-CC-PVTZ AUX)
    Blend: AUG-CC-PVTZ-JKFIT

    Orbital Energies [Eh]
    ---------------------

    Doubly Occupied:

       1A    -15.607648     2A    -11.262893     3A    -11.255713
       4A    -11.252701     5A    -11.242128     6A    -11.240865
       7A    -11.238716     8A    -11.238104     9A    -11.237794
      10A    -11.213332    11A    -11.212202    12A     -1.293224
      13A     -1.158403    14A     -1.047005    15A     -1.042457
      16A     -1.018120    17A     -0.959280    18A     -0.835964
      19A     -0.833596    20A     -0.788082    21A     -0.764484
      22A     -0.734719    23A     -0.679512    24A     -0.633083
      25A     -0.630885    26A     -0.593669    27A     -0.590045
      28A     -0.581202    29A     -0.568265    30A     -0.549030
      31A     -0.536434    32A     -0.505612    33A     -0.497850
      34A     -0.497731    35A     -0.362995    36A     -0.349771
      37A     -0.341793    38A     -0.274632

  @DF-RHF Final Energy:  -438.50879266210893

   => Energetics <=

    Nuclear Repulsion Energy =            536.8473861982910194
    One-Electron Energy =               -1657.3724797010511338
    Two-Electron Energy =                 682.0163008406512972
    Total Energy =                       -438.5087926621089309
  Basis Set: (AUG-CC-PVTZ AUX)
    Blend: AUG-CC-PVTZ-RI
    Molecular point group: c1

    Geometry (in Angstrom), charge = 0, multiplicity = 1:

       Center              X                  Y                   Z               Mass
    ------------   -----------------  -----------------  -----------------  -----------------
         N            1.773573615322    -0.969966672569    -0.386881087674    14.003074004430
         C            1.004279615322     0.096865327431     0.026615912326    12.000000000000
         C           -0.475406484678     0.031489227431     0.021071512326    12.000000000000
         C            1.890168615322     1.091163327431     0.432424912326    12.000000000000
         C           -1.199896384678     1.199349327431    -0.270586087674    12.000000000000
         C           -1.140049384678    -1.151749672569     0.293639912326    12.000000000000
         C            3.108063615322    -0.672721672569    -0.277742087674    12.000000000000
         C            3.205616615322     0.607806327431     0.240555912326    12.000000000000
         C           -2.593237384678     1.161518327431    -0.269544087674    12.000000000000
         C           -2.534109384678    -1.191633672569     0.269060912326    12.000000000000
         C           -3.266343384678    -0.035531672569    -0.010061087674    12.000000000000
         H            1.395715615322    -1.796765672569    -0.832342087674     1.007825032230
         H            1.603877615322     2.042851327431     0.862428912326     1.007825032230
         H           -0.675019384678     2.122273327431    -0.507584087674     1.007825032230
         H           -0.578353384678    -2.043800672569     0.566285912326     1.007825032230
         H            3.867892615322    -1.381035672569    -0.578173087674     1.007825032230
         H            4.127840615322     1.125869327431     0.469395912326     1.007825032230
         H           -3.156545384678     2.064720327431    -0.493119087674     1.007825032230
         H           -3.050404384678    -2.124078672569     0.486264912326     1.007825032230
         H           -4.353117384678    -0.065744672569    -0.020491087674     1.007825032230

  Basis Set: AUG-CC-PVTZ
    Blend: AUG-CC-PVTZ
  Basis Set: (AUG-CC-PVTZ AUX)
    Blend: AUG-CC-PVTZ-JKFIT
	 Reference Energy          =    -438.5087926621089309 [Eh]
	 Singles Energy            =      -0.0000000000000000 [Eh]
	 Same-Spin Energy          =      -0.4949631273725911 [Eh]
	 Opposite-Spin Energy      =      -1.5249174742158318 [Eh]
	 Correlation Energy        =      -2.0198806015884228 [Eh]
	 Total Energy              =    -440.5286732636973284 [Eh]

	 ================> DF-SCS-MP2 Energies <==================
	-----------------------------------------------------------
	 SCS Same-Spin Scale       =       0.3333333333333333 [-]
	 SCS Opposite-Spin Scale   =       1.2000000000000000 [-]
	 SCS Same-Spin Energy      =      -0.1649877091241970 [Eh]
	 SCS Opposite-Spin Energy  =      -1.8299009690589980 [Eh]
	 SCS Correlation Energy    =      -1.9948886781831949 [Eh]
	 SCS Total Energy          =    -440.5036813402921325 [Eh]
	-----------------------------------------------------------

  Dipole Moment: [D]
     X:    -0.5226      Y:    -1.3205      Z:    -0.6475     Total:     1.5608

*** Psi4 exiting successfully. Buy a developer a beer!
