                               Psi4 1.4a3.dev225

  ==> Input File <==

--------------------------------------------------------------------------
#psi4
#
memory 32 gb

molecule  {
0 1
  N        1.7773000    -0.9706020    -0.3863220
  C        1.0080060     0.0962300     0.0271750
  C       -0.4507830     0.0432590     0.0183630
  C        1.8938950     1.0905280     0.4329840
  C       -1.1961700     1.1987140    -0.2700270
  C       -1.1363230    -1.1523850     0.2941990
  C        3.1117900    -0.6733570    -0.2771830
  C        3.2093430     0.6071710     0.2411150
  C       -2.5895110     1.1608830    -0.2689850
  C       -2.5303830    -1.1922690     0.2696200
  C       -3.2626170    -0.0361670    -0.0095020
  H        1.3994420    -1.7974010    -0.8317830
  H        1.6076040     2.0422160     0.8629880
  H       -0.6712930     2.1216380    -0.5070250
  H       -0.5746270    -2.0444360     0.5668450
  H        3.8716190    -1.3816710    -0.5776140
  H        4.1486098     1.1348079     0.4741840
  H       -3.1528190     2.0640850    -0.4925600
  H       -3.0466780    -2.1247140     0.4868240
  H       -4.3493910    -0.0663800    -0.0199320
units angstrom
no_reorient  #important for SAPT in psi4, default
symmetry c1  #important for SAPT in psi4, default
}

set PROPERTIES_ORIGIN ["COM"]
properties('MP2/aug-cc-pvtz', properties = ['dipole'])
--------------------------------------------------------------------------

    Molecular point group: c1
  Charge       = 0
  Multiplicity = 1
  Basis Set: AUG-CC-PVTZ
    Blend: AUG-CC-PVTZ
  Basis Set: (AUG-CC-PVTZ AUX)
    Blend: AUG-CC-PVTZ-JKFIT

    Orbital Energies [Eh]
    ---------------------

    Doubly Occupied:

       1A    -15.608383     2A    -11.262234     3A    -11.256769
       4A    -11.253292     5A    -11.242059     6A    -11.240763
       7A    -11.240528     8A    -11.237983     9A    -11.237711
      10A    -11.215896    11A    -11.213336    12A     -1.294284
      13A     -1.156205    14A     -1.048975    15A     -1.042606
      16A     -1.016809    17A     -0.959154    18A     -0.837915
      19A     -0.832150    20A     -0.787369    21A     -0.764079
      22A     -0.735243    23A     -0.679861    24A     -0.633300
      25A     -0.629716    26A     -0.592708    27A     -0.588271
      28A     -0.582996    29A     -0.569419    30A     -0.547403
      31A     -0.537062    32A     -0.504634    33A     -0.500712
      34A     -0.494339    35A     -0.363510    36A     -0.350337
      37A     -0.341382    38A     -0.273469

  @DF-RHF Final Energy:  -438.50824341196284

   => Energetics <=

    Nuclear Repulsion Energy =            536.7288325378389118
    One-Electron Energy =               -1657.1284279442056686
    Two-Electron Energy =                 681.8913519944038626
    Total Energy =                       -438.5082434119627806
  Basis Set: (AUG-CC-PVTZ AUX)
    Blend: AUG-CC-PVTZ-RI
    Molecular point group: c1

    Geometry (in Angstrom), charge = 0, multiplicity = 1:

       Center              X                  Y                   Z               Mass
    ------------   -----------------  -----------------  -----------------  -----------------
         N            1.771700862074    -0.971074564784    -0.386636813870    14.003074004430
         C            1.002406862074     0.095757435216     0.026860186130    12.000000000000
         C           -0.456382137926     0.042786435216     0.018048186130    12.000000000000
         C            1.888295862074     1.090055435216     0.432669186130    12.000000000000
         C           -1.201769137926     1.198241435216    -0.270341813870    12.000000000000
         C           -1.141922137926    -1.152857564784     0.293884186130    12.000000000000
         C            3.106190862074    -0.673829564784    -0.277497813870    12.000000000000
         C            3.203743862074     0.606698435216     0.240800186130    12.000000000000
         C           -2.595110137926     1.160410435216    -0.269299813870    12.000000000000
         C           -2.535982137926    -1.192741564784     0.269305186130    12.000000000000
         C           -3.268216137926    -0.036639564784    -0.009816813870    12.000000000000
         H            1.393842862074    -1.797873564784    -0.832097813870     1.007825032230
         H            1.602004862074     2.041743435216     0.862673186130     1.007825032230
         H           -0.676892137926     2.121165435216    -0.507339813870     1.007825032230
         H           -0.580226137926    -2.044908564784     0.566530186130     1.007825032230
         H            3.866019862074    -1.382143564784    -0.577928813870     1.007825032230
         H            4.143010662074     1.134335335216     0.473869186130     1.007825032230
         H           -3.158418137926     2.063612435216    -0.492874813870     1.007825032230
         H           -3.052277137926    -2.125186564784     0.486509186130     1.007825032230
         H           -4.354990137926    -0.066852564784    -0.020246813870     1.007825032230

  Basis Set: AUG-CC-PVTZ
    Blend: AUG-CC-PVTZ
  Basis Set: (AUG-CC-PVTZ AUX)
    Blend: AUG-CC-PVTZ-JKFIT
	 Reference Energy          =    -438.5082434119628374 [Eh]
	 Singles Energy            =      -0.0000000000000000 [Eh]
	 Same-Spin Energy          =      -0.4952846365204211 [Eh]
	 Opposite-Spin Energy      =      -1.5254772551074374 [Eh]
	 Correlation Energy        =      -2.0207618916278585 [Eh]
	 Total Energy              =    -440.5290053035906794 [Eh]

	 ================> DF-SCS-MP2 Energies <==================
	-----------------------------------------------------------
	 SCS Same-Spin Scale       =       0.3333333333333333 [-]
	 SCS Opposite-Spin Scale   =       1.2000000000000000 [-]
	 SCS Same-Spin Energy      =      -0.1650948788401403 [Eh]
	 SCS Opposite-Spin Energy  =      -1.8305727061289248 [Eh]
	 SCS Correlation Energy    =      -1.9956675849690650 [Eh]
	 SCS Total Energy          =    -440.5039109969318929 [Eh]
	-----------------------------------------------------------

  Dipole Moment: [D]
     X:    -0.4574      Y:    -1.3200      Z:    -0.6479     Total:     1.5399

*** Psi4 exiting successfully. Buy a developer a beer!
