                               Psi4 1.3.2 release

  ==> Input File <==

--------------------------------------------------------------------------
#psi4
#
memory 32 gb

molecule  {
0 1
  N        1.7773000    -0.9706020    -0.3863220
  C        0.8926238     0.0151787    -0.0035586
  C       -0.4507830     0.0432590     0.0183630
  C        1.8938950     1.0905280     0.4329840
  C       -1.1961700     1.1987140    -0.2700270
  C       -1.1363230    -1.1523850     0.2941990
  C        3.1117900    -0.6733570    -0.2771830
  C        3.2093430     0.6071710     0.2411150
  C       -2.5895110     1.1608830    -0.2689850
  C       -2.5303830    -1.1922690     0.2696200
  C       -3.2626170    -0.0361670    -0.0095020
  H        1.3994420    -1.7974010    -0.8317830
  H        1.6076040     2.0422160     0.8629880
  H       -0.6712930     2.1216380    -0.5070250
  H       -0.5746270    -2.0444360     0.5668450
  H        3.8716190    -1.3816710    -0.5776140
  H        4.1315670     1.1252340     0.4699550
  H       -3.1528190     2.0640850    -0.4925600
  H       -3.0466780    -2.1247140     0.4868240
  H       -4.3493910    -0.0663800    -0.0199320
units angstrom
no_reorient  #important for SAPT in psi4, default
symmetry c1  #important for SAPT in psi4, default
}

set PROPERTIES_ORIGIN ["COM"]
properties('MP2/aug-cc-pvtz', properties = ['dipole'])
--------------------------------------------------------------------------

    Molecular point group: c1
  Charge       = 0
  Multiplicity = 1
  Basis Set: AUG-CC-PVTZ
    Blend: AUG-CC-PVTZ
  Basis Set: (AUG-CC-PVTZ AUX)
    Blend: AUG-CC-PVTZ-JKFIT

    Orbital Energies [Eh]
    ---------------------

    Doubly Occupied:

       1A    -15.618722     2A    -11.267869     3A    -11.259306
       4A    -11.245761     5A    -11.241704     6A    -11.241419
       7A    -11.239550     8A    -11.238926     9A    -11.237368
      10A    -11.226270    11A    -11.218299    12A     -1.292451
      13A     -1.162222    14A     -1.063962    15A     -1.036768
      16A     -1.017043    17A     -0.951984    18A     -0.852210
      19A     -0.835029    20A     -0.784316    21A     -0.761291
      22A     -0.741235    23A     -0.680533    24A     -0.642121
      25A     -0.633444    26A     -0.598270    27A     -0.590651
      28A     -0.585279    29A     -0.568255    30A     -0.537987
      31A     -0.533412    32A     -0.511348    33A     -0.501571
      34A     -0.483841    35A     -0.369585    36A     -0.348728
      37A     -0.342084    38A     -0.254597

  @DF-RHF Final Energy:  -438.47186758496753

   => Energetics <=

    Nuclear Repulsion Energy =            537.0545443250340440
    One-Electron Energy =               -1657.6219994446187229
    Two-Electron Energy =                 682.0955875346172661
    Total Energy =                       -438.4718675849675265
  Basis Set: (AUG-CC-PVTZ AUX)
    Blend: AUG-CC-PVTZ-RI
    Molecular point group: c1

    Geometry (in Angstrom), charge = 0, multiplicity = 1:

       Center              X                  Y                   Z               Mass
    ------------   -----------------  -----------------  -----------------  -----------------
         N            1.781498361733    -0.964209111567    -0.384029305884    14.003074004430
         C            0.896822161733     0.021571588433    -0.001265905884    12.000000000000
         C           -0.446584638267     0.049651888433     0.020655694116    12.000000000000
         C            1.898093361733     1.096920888433     0.435276694116    12.000000000000
         C           -1.191971638267     1.205106888433    -0.267734305884    12.000000000000
         C           -1.132124638267    -1.145992111567     0.296491694116    12.000000000000
         C            3.115988361733    -0.666964111567    -0.274890305884    12.000000000000
         C            3.213541361733     0.613563888433     0.243407694116    12.000000000000
         C           -2.585312638267     1.167275888433    -0.266692305884    12.000000000000
         C           -2.526184638267    -1.185876111567     0.271912694116    12.000000000000
         C           -3.258418638267    -0.029774111567    -0.007209305884    12.000000000000
         H            1.403640361733    -1.791008111567    -0.829490305884     1.007825032230
         H            1.611802361733     2.048608888433     0.865280694116     1.007825032230
         H           -0.667094638267     2.128030888433    -0.504732305884     1.007825032230
         H           -0.570428638267    -2.038043111567     0.569137694116     1.007825032230
         H            3.875817361733    -1.375278111567    -0.575321305884     1.007825032230
         H            4.135765361733     1.131626888433     0.472247694116     1.007825032230
         H           -3.148620638267     2.070477888433    -0.490267305884     1.007825032230
         H           -3.042479638267    -2.118321111567     0.489116694116     1.007825032230
         H           -4.345192638267    -0.059987111567    -0.017639305884     1.007825032230

  Basis Set: AUG-CC-PVTZ
    Blend: AUG-CC-PVTZ
  Basis Set: (AUG-CC-PVTZ AUX)
    Blend: AUG-CC-PVTZ-JKFIT
	 Reference Energy          =    -438.4718675849675265 [Eh]
	 Singles Energy            =      -0.0000000000000000 [Eh]
	 Same-Spin Energy          =      -0.4999015337526689 [Eh]
	 Opposite-Spin Energy      =      -1.5323152076339057 [Eh]
	 Correlation Energy        =      -2.0322167413865744 [Eh]
	 Total Energy              =    -440.5040843263540751 [Eh]

	 ================> DF-SCS-MP2 Energies <==================
	-----------------------------------------------------------
	 SCS Same-Spin Scale       =       0.3333333333333333 [-]
	 SCS Opposite-Spin Scale   =       1.2000000000000000 [-]
	 SCS Same-Spin Energy      =      -0.1666338445842230 [Eh]
	 SCS Opposite-Spin Energy  =      -1.8387782491606868 [Eh]
	 SCS Correlation Energy    =      -2.0054120937449098 [Eh]
	 SCS Total Energy          =    -440.4772796787124207 [Eh]
	-----------------------------------------------------------

  Dipole Moment: [D]
     X:    -0.1980      Y:    -1.3975      Z:    -0.6818     Total:     1.5676

*** Psi4 exiting successfully. Buy a developer a beer!
