                               Psi4 1.3.2 release

  ==> Input File <==

--------------------------------------------------------------------------
#psi4
#
memory 32 gb

molecule  {
0 1
  N        1.7773000    -0.9706020    -0.3863220
  C        1.0080060     0.0962300     0.0271750
  C       -0.4507830     0.0432590     0.0183630
  C        1.8938950     1.0905280     0.4329840
  C       -1.1961700     1.1987140    -0.2700270
  C       -1.1363230    -1.1523850     0.2941990
  C        3.1117900    -0.6733570    -0.2771830
  C        3.2093430     0.6071710     0.2411150
  C       -2.5895110     1.1608830    -0.2689850
  C       -2.5303830    -1.1922690     0.2696200
  C       -3.2626170    -0.0361670    -0.0095020
  H        1.3994420    -1.7974010    -0.8317830
  H        1.5811655     2.1301029     0.9026982
  H       -0.6712930     2.1216380    -0.5070250
  H       -0.5746270    -2.0444360     0.5668450
  H        3.8716190    -1.3816710    -0.5776140
  H        4.1315670     1.1252340     0.4699550
  H       -3.1528190     2.0640850    -0.4925600
  H       -3.0466780    -2.1247140     0.4868240
  H       -4.3493910    -0.0663800    -0.0199320
units angstrom
no_reorient  #important for SAPT in psi4, default
symmetry c1  #important for SAPT in psi4, default
}

set PROPERTIES_ORIGIN ["COM"]
properties('MP2/aug-cc-pvtz', properties = ['dipole'])
--------------------------------------------------------------------------

    Molecular point group: c1
  Charge       = 0
  Multiplicity = 1
  Basis Set: AUG-CC-PVTZ
    Blend: AUG-CC-PVTZ
  Basis Set: (AUG-CC-PVTZ AUX)
    Blend: AUG-CC-PVTZ-JKFIT

    Orbital Energies [Eh]
    ---------------------

    Doubly Occupied:

       1A    -15.608976     2A    -11.263070     3A    -11.257382
       4A    -11.253234     5A    -11.241974     6A    -11.240633
       7A    -11.240471     8A    -11.237865     9A    -11.237579
      10A    -11.224496    11A    -11.214555    12A     -1.294924
      13A     -1.156120    14A     -1.048279    15A     -1.042588
      16A     -1.016702    17A     -0.958887    18A     -0.837031
      19A     -0.832106    20A     -0.787528    21A     -0.756767
      22A     -0.735074    23A     -0.679954    24A     -0.633216
      25A     -0.628923    26A     -0.591382    27A     -0.588093
      28A     -0.581955    29A     -0.569469    30A     -0.546424
      31A     -0.527195    32A     -0.504598    33A     -0.500942
      34A     -0.494115    35A     -0.363625    36A     -0.350939
      37A     -0.341243    38A     -0.273864

  @DF-RHF Final Energy:  -438.50134554636361

   => Energetics <=

    Nuclear Repulsion Energy =            536.3625784207778224
    One-Electron Energy =               -1656.4034918593736165
    Two-Electron Energy =                 681.5395678922322986
    Total Energy =                       -438.5013455463636092
  Basis Set: (AUG-CC-PVTZ AUX)
    Blend: AUG-CC-PVTZ-RI
    Molecular point group: c1

    Geometry (in Angstrom), charge = 0, multiplicity = 1:

       Center              X                  Y                   Z               Mass
    ------------   -----------------  -----------------  -----------------  -----------------
         N            1.772007149002    -0.971626209933    -0.386886747238    14.003074004430
         C            1.002713149002     0.095205790067     0.026610252762    12.000000000000
         C           -0.456075850998     0.042234790067     0.017798252762    12.000000000000
         C            1.888602149002     1.089503790067     0.432419252762    12.000000000000
         C           -1.201462850998     1.197689790067    -0.270591747238    12.000000000000
         C           -1.141615850998    -1.153409209933     0.293634252762    12.000000000000
         C            3.106497149002    -0.674381209933    -0.277747747238    12.000000000000
         C            3.204050149002     0.606146790067     0.240550252762    12.000000000000
         C           -2.594803850998     1.159858790067    -0.269549747238    12.000000000000
         C           -2.535675850998    -1.193293209933     0.269055252762    12.000000000000
         C           -3.267909850998    -0.037191209933    -0.010066747238    12.000000000000
         H            1.394149149002    -1.798425209933    -0.832347747238     1.007825032230
         H            1.575872649002     2.129078690067     0.902133452762     1.007825032230
         H           -0.676585850998     2.120613790067    -0.507589747238     1.007825032230
         H           -0.579919850998    -2.045460209933     0.566280252762     1.007825032230
         H            3.866326149002    -1.382695209933    -0.578178747238     1.007825032230
         H            4.126274149002     1.124209790067     0.469390252762     1.007825032230
         H           -3.158111850998     2.063060790067    -0.493124747238     1.007825032230
         H           -3.051970850998    -2.125738209933     0.486259252762     1.007825032230
         H           -4.354683850998    -0.067404209933    -0.020496747238     1.007825032230

  Basis Set: AUG-CC-PVTZ
    Blend: AUG-CC-PVTZ
  Basis Set: (AUG-CC-PVTZ AUX)
    Blend: AUG-CC-PVTZ-JKFIT
	 Reference Energy          =    -438.5013455463636092 [Eh]
	 Singles Energy            =      -0.0000000000000000 [Eh]
	 Same-Spin Energy          =      -0.4954638420315116 [Eh]
	 Opposite-Spin Energy      =      -1.5262747966301056 [Eh]
	 Correlation Energy        =      -2.0217386386616170 [Eh]
	 Total Energy              =    -440.5230841850252546 [Eh]

	 ================> DF-SCS-MP2 Energies <==================
	-----------------------------------------------------------
	 SCS Same-Spin Scale       =       0.3333333333333333 [-]
	 SCS Opposite-Spin Scale   =       1.2000000000000000 [-]
	 SCS Same-Spin Energy      =      -0.1651546140105039 [Eh]
	 SCS Opposite-Spin Energy  =      -1.8315297559561265 [Eh]
	 SCS Correlation Energy    =      -1.9966843699666303 [Eh]
	 SCS Total Energy          =    -440.4980299163302675 [Eh]
	-----------------------------------------------------------

  Dipole Moment: [D]
     X:    -0.4354      Y:    -1.3338      Z:    -0.6541     Total:     1.5481

*** Psi4 exiting successfully. Buy a developer a beer!
