                               Psi4 1.3.2 release

  ==> Input File <==

--------------------------------------------------------------------------
#psi4
#
memory 32 gb

molecule  {
0 1
  N        1.7773000    -0.9706020    -0.3863220
  C        1.0080060     0.0962300     0.0271750
  C       -0.4507830     0.0432590     0.0183630
  C        1.8938950     1.0905280     0.4329840
  C       -1.1961700     1.1987140    -0.2700270
  C       -1.1363230    -1.1523850     0.2941990
  C        3.1359095    -0.6749227    -0.2772908
  C        3.2093430     0.6071710     0.2411150
  C       -2.5895110     1.1608830    -0.2689850
  C       -2.5303830    -1.1922690     0.2696200
  C       -3.2626170    -0.0361670    -0.0095020
  H        1.3994420    -1.7974010    -0.8317830
  H        1.6076040     2.0422160     0.8629880
  H       -0.6712930     2.1216380    -0.5070250
  H       -0.5746270    -2.0444360     0.5668450
  H        3.8716190    -1.3816710    -0.5776140
  H        4.1315670     1.1252340     0.4699550
  H       -3.1528190     2.0640850    -0.4925600
  H       -3.0466780    -2.1247140     0.4868240
  H       -4.3493910    -0.0663800    -0.0199320
units angstrom
no_reorient  #important for SAPT in psi4, default
symmetry c1  #important for SAPT in psi4, default
}

set PROPERTIES_ORIGIN ["COM"]
properties('MP2/aug-cc-pvtz', properties = ['dipole'])
--------------------------------------------------------------------------

    Molecular point group: c1
  Charge       = 0
  Multiplicity = 1
  Basis Set: AUG-CC-PVTZ
    Blend: AUG-CC-PVTZ
  Basis Set: (AUG-CC-PVTZ AUX)
    Blend: AUG-CC-PVTZ-JKFIT

    Orbital Energies [Eh]
    ---------------------

    Doubly Occupied:

       1A    -15.606803     2A    -11.263893     3A    -11.256241
       4A    -11.253560     5A    -11.242353     6A    -11.241102
       7A    -11.240920     8A    -11.238547     9A    -11.238242
      10A    -11.215321    11A    -11.212681    12A     -1.287388
      13A     -1.156369    14A     -1.047937    15A     -1.042356
      16A     -1.017100    17A     -0.959679    18A     -0.839072
      19A     -0.832367    20A     -0.786605    21A     -0.763889
      22A     -0.735988    23A     -0.680291    24A     -0.633843
      25A     -0.629576    26A     -0.592579    27A     -0.587188
      28A     -0.583975    29A     -0.566271    30A     -0.547575
      31A     -0.540837    32A     -0.504718    33A     -0.501122
      34A     -0.494715    35A     -0.362884    36A     -0.350070
      37A     -0.341656    38A     -0.274290

  @DF-RHF Final Energy:  -438.50772839106850

   => Energetics <=

    Nuclear Repulsion Energy =            536.3351601063640146
    One-Electron Energy =               -1656.3457680177614293
    Two-Electron Energy =                 681.5028795203290883
    Total Energy =                       -438.5077283910684400
  Basis Set: (AUG-CC-PVTZ AUX)
    Blend: AUG-CC-PVTZ-RI
    Molecular point group: c1

    Geometry (in Angstrom), charge = 0, multiplicity = 1:

       Center              X                  Y                   Z               Mass
    ------------   -----------------  -----------------  -----------------  -----------------
         N            1.769797939165    -0.970875805292    -0.386597982835    14.003074004430
         C            1.000503939165     0.095956194708     0.026899017165    12.000000000000
         C           -0.458285060835     0.042985194708     0.018087017165    12.000000000000
         C            1.886392939165     1.090254194708     0.432708017165    12.000000000000
         C           -1.203672060835     1.198440194708    -0.270302982835    12.000000000000
         C           -1.143825060835    -1.152658805292     0.293923017165    12.000000000000
         C            3.128407439165    -0.675196505292    -0.277566782835    12.000000000000
         C            3.201840939165     0.606897194708     0.240839017165    12.000000000000
         C           -2.597013060835     1.160609194708    -0.269260982835    12.000000000000
         C           -2.537885060835    -1.192542805292     0.269344017165    12.000000000000
         C           -3.270119060835    -0.036440805292    -0.009777982835    12.000000000000
         H            1.391939939165    -1.797674805292    -0.832058982835     1.007825032230
         H            1.600101939165     2.041942194708     0.862712017165     1.007825032230
         H           -0.678795060835     2.121364194708    -0.507300982835     1.007825032230
         H           -0.582129060835    -2.044709805292     0.566569017165     1.007825032230
         H            3.864116939165    -1.381944805292    -0.577889982835     1.007825032230
         H            4.124064939165     1.124960194708     0.469679017165     1.007825032230
         H           -3.160321060835     2.063811194708    -0.492835982835     1.007825032230
         H           -3.054180060835    -2.124987805292     0.486548017165     1.007825032230
         H           -4.356893060835    -0.066653805292    -0.020207982835     1.007825032230

  Basis Set: AUG-CC-PVTZ
    Blend: AUG-CC-PVTZ
  Basis Set: (AUG-CC-PVTZ AUX)
    Blend: AUG-CC-PVTZ-JKFIT
	 Reference Energy          =    -438.5077283910684969 [Eh]
	 Singles Energy            =      -0.0000000000000000 [Eh]
	 Same-Spin Energy          =      -0.4952035907855604 [Eh]
	 Opposite-Spin Energy      =      -1.5256645938580791 [Eh]
	 Correlation Energy        =      -2.0208681846436396 [Eh]
	 Total Energy              =    -440.5285965757121289 [Eh]

	 ================> DF-SCS-MP2 Energies <==================
	-----------------------------------------------------------
	 SCS Same-Spin Scale       =       0.3333333333333333 [-]
	 SCS Opposite-Spin Scale   =       1.2000000000000000 [-]
	 SCS Same-Spin Energy      =      -0.1650678635951868 [Eh]
	 SCS Opposite-Spin Energy  =      -1.8307975126296947 [Eh]
	 SCS Correlation Energy    =      -1.9958653762248815 [Eh]
	 SCS Total Energy          =    -440.5035937672933528 [Eh]
	-----------------------------------------------------------

  Dipole Moment: [D]
     X:    -0.4672      Y:    -1.2965      Z:    -0.6386     Total:     1.5188

*** Psi4 exiting successfully. Buy a developer a beer!
