                               Psi4 1.3.2 release

  ==> Input File <==

--------------------------------------------------------------------------
#psi4
#
memory 32 gb

molecule  {
0 1
  N        1.7773000    -0.9706020    -0.3863220
  C        0.9893985     0.1107301     0.0329954
  C       -0.4507830     0.0432590     0.0183630
  C        1.8938950     1.0905280     0.4329840
  C       -1.1961700     1.1987140    -0.2700270
  C       -1.1363230    -1.1523850     0.2941990
  C        3.1117900    -0.6733570    -0.2771830
  C        3.2093430     0.6071710     0.2411150
  C       -2.5895110     1.1608830    -0.2689850
  C       -2.5303830    -1.1922690     0.2696200
  C       -3.2626170    -0.0361670    -0.0095020
  H        1.3994420    -1.7974010    -0.8317830
  H        1.6076040     2.0422160     0.8629880
  H       -0.6712930     2.1216380    -0.5070250
  H       -0.5746270    -2.0444360     0.5668450
  H        3.8716190    -1.3816710    -0.5776140
  H        4.1315670     1.1252340     0.4699550
  H       -3.1528190     2.0640850    -0.4925600
  H       -3.0466780    -2.1247140     0.4868240
  H       -4.3493910    -0.0663800    -0.0199320
units angstrom
no_reorient  #important for SAPT in psi4, default
symmetry c1  #important for SAPT in psi4, default
}

set PROPERTIES_ORIGIN ["COM"]
properties('MP2/aug-cc-pvtz', properties = ['dipole'])
--------------------------------------------------------------------------

    Molecular point group: c1
  Charge       = 0
  Multiplicity = 1
  Basis Set: AUG-CC-PVTZ
    Blend: AUG-CC-PVTZ
  Basis Set: (AUG-CC-PVTZ AUX)
    Blend: AUG-CC-PVTZ-JKFIT

    Orbital Energies [Eh]
    ---------------------

    Doubly Occupied:

       1A    -15.606932     2A    -11.262318     3A    -11.258608
       4A    -11.252129     5A    -11.242056     6A    -11.240652
       7A    -11.240510     8A    -11.237810     9A    -11.237523
      10A    -11.215354    11A    -11.213188    12A     -1.287587
      13A     -1.156767    14A     -1.051052    15A     -1.041888
      16A     -1.016746    17A     -0.958579    18A     -0.840131
      19A     -0.832460    20A     -0.786594    21A     -0.762359
      22A     -0.735947    23A     -0.680010    24A     -0.633868
      25A     -0.630083    26A     -0.592257    27A     -0.588549
      28A     -0.581312    29A     -0.567281    30A     -0.548435
      31A     -0.538156    32A     -0.504633    33A     -0.502226
      34A     -0.494443    35A     -0.365359    36A     -0.349440
      37A     -0.341351    38A     -0.272523

  @DF-RHF Final Energy:  -438.50714261360815

   => Energetics <=

    Nuclear Repulsion Energy =            536.7480300992150433
    One-Electron Energy =               -1657.1761101456161214
    Two-Electron Energy =                 681.9209374327930391
    Total Energy =                       -438.5071426136081527
  Basis Set: (AUG-CC-PVTZ AUX)
    Blend: AUG-CC-PVTZ-RI
    Molecular point group: c1

    Geometry (in Angstrom), charge = 0, multiplicity = 1:

       Center              X                  Y                   Z               Mass
    ------------   -----------------  -----------------  -----------------  -----------------
         N            1.773381579759    -0.972223291730    -0.387095198604    14.003074004430
         C            0.985480079759     0.109108808270     0.032222201396    12.000000000000
         C           -0.454701420241     0.041637708270     0.017589801396    12.000000000000
         C            1.889976579759     1.088906708270     0.432210801396    12.000000000000
         C           -1.200088420241     1.197092708270    -0.270800198604    12.000000000000
         C           -1.140241420241    -1.154006291730     0.293425801396    12.000000000000
         C            3.107871579759    -0.674978291730    -0.277956198604    12.000000000000
         C            3.205424579759     0.605549708270     0.240341801396    12.000000000000
         C           -2.593429420241     1.159261708270    -0.269758198604    12.000000000000
         C           -2.534301420241    -1.193890291730     0.268846801396    12.000000000000
         C           -3.266535420241    -0.037788291730    -0.010275198604    12.000000000000
         H            1.395523579759    -1.799022291730    -0.832556198604     1.007825032230
         H            1.603685579759     2.040594708270     0.862214801396     1.007825032230
         H           -0.675211420241     2.120016708270    -0.507798198604     1.007825032230
         H           -0.578545420241    -2.046057291730     0.566071801396     1.007825032230
         H            3.867700579759    -1.383292291730    -0.578387198604     1.007825032230
         H            4.127648579759     1.123612708270     0.469181801396     1.007825032230
         H           -3.156737420241     2.062463708270    -0.493333198604     1.007825032230
         H           -3.050596420241    -2.126335291730     0.486050801396     1.007825032230
         H           -4.353309420241    -0.068001291730    -0.020705198604     1.007825032230

  Basis Set: AUG-CC-PVTZ
    Blend: AUG-CC-PVTZ
  Basis Set: (AUG-CC-PVTZ AUX)
    Blend: AUG-CC-PVTZ-JKFIT
	 Reference Energy          =    -438.5071426136081527 [Eh]
	 Singles Energy            =      -0.0000000000000000 [Eh]
	 Same-Spin Energy          =      -0.4955399343518589 [Eh]
	 Opposite-Spin Energy      =      -1.5259985786044870 [Eh]
	 Correlation Energy        =      -2.0215385129563459 [Eh]
	 Total Energy              =    -440.5286811265644928 [Eh]

	 ================> DF-SCS-MP2 Energies <==================
	-----------------------------------------------------------
	 SCS Same-Spin Scale       =       0.3333333333333333 [-]
	 SCS Opposite-Spin Scale   =       1.2000000000000000 [-]
	 SCS Same-Spin Energy      =      -0.1651799781172863 [Eh]
	 SCS Opposite-Spin Energy  =      -1.8311982943253842 [Eh]
	 SCS Correlation Energy    =      -1.9963782724426704 [Eh]
	 SCS Total Energy          =    -440.5035208860508078 [Eh]
	-----------------------------------------------------------

  Dipole Moment: [D]
     X:    -0.4407      Y:    -1.2980      Z:    -0.6361     Total:     1.5112

*** Psi4 exiting successfully. Buy a developer a beer!
