                               Psi4 1.4a3.dev225

  ==> Input File <==

--------------------------------------------------------------------------
#psi4
#
memory 32 gb

molecule  {
0 1
  N        1.7773000    -0.9706020    -0.3863220
  C        1.0080060     0.0962300     0.0271750
  C       -0.4507830     0.0432590     0.0183630
  C        1.8938950     1.0905280     0.4329840
  C       -1.1961700     1.1987140    -0.2700270
  C       -1.1363230    -1.1523850     0.2941990
  C        3.1117900    -0.6733570    -0.2771830
  C        3.2558412     0.5900854     0.2343328
  C       -2.5895110     1.1608830    -0.2689850
  C       -2.5303830    -1.1922690     0.2696200
  C       -3.2626170    -0.0361670    -0.0095020
  H        1.3994420    -1.7974010    -0.8317830
  H        1.6076040     2.0422160     0.8629880
  H       -0.6712930     2.1216380    -0.5070250
  H       -0.5746270    -2.0444360     0.5668450
  H        3.8716190    -1.3816710    -0.5776140
  H        4.1315670     1.1252340     0.4699550
  H       -3.1528190     2.0640850    -0.4925600
  H       -3.0466780    -2.1247140     0.4868240
  H       -4.3493910    -0.0663800    -0.0199320
units angstrom
no_reorient  #important for SAPT in psi4, default
symmetry c1  #important for SAPT in psi4, default
}

set PROPERTIES_ORIGIN ["COM"]
properties('MP2/aug-cc-pvtz', properties = ['dipole'])
--------------------------------------------------------------------------

    Molecular point group: c1
  Charge       = 0
  Multiplicity = 1
  Basis Set: AUG-CC-PVTZ
    Blend: AUG-CC-PVTZ
  Basis Set: (AUG-CC-PVTZ AUX)
    Blend: AUG-CC-PVTZ-JKFIT

    Orbital Energies [Eh]
    ---------------------

    Doubly Occupied:

       1A    -15.605926     2A    -11.263231     3A    -11.257244
       4A    -11.253516     5A    -11.242328     6A    -11.241024
       7A    -11.240860     8A    -11.238386     9A    -11.238090
      10A    -11.216597    11A    -11.213712    12A     -1.292233
      13A     -1.156488    14A     -1.048432    15A     -1.037760
      16A     -1.016813    17A     -0.961090    18A     -0.837737
      19A     -0.832568    20A     -0.787809    21A     -0.766569
      22A     -0.735077    23A     -0.679966    24A     -0.633453
      25A     -0.629718    26A     -0.597201    27A     -0.590011
      28A     -0.582560    29A     -0.568443    30A     -0.558074
      31A     -0.525573    32A     -0.504852    33A     -0.499854
      34A     -0.494263    35A     -0.364171    36A     -0.344908
      37A     -0.341542    38A     -0.277206

  @DF-RHF Final Energy:  -438.50746584595697

   => Energetics <=

    Nuclear Repulsion Energy =            536.1376704821759631
    One-Electron Energy =               -1655.9397047609024867
    Two-Electron Energy =                 681.2945684327695517
    Total Energy =                       -438.5074658459569719
  Basis Set: (AUG-CC-PVTZ AUX)
    Blend: AUG-CC-PVTZ-RI
    Molecular point group: c1

    Geometry (in Angstrom), charge = 0, multiplicity = 1:

       Center              X                  Y                   Z               Mass
    ------------   -----------------  -----------------  -----------------  -----------------
         N            1.767920971024    -0.969574105110    -0.386038181052    14.003074004430
         C            0.998626971024     0.097257894890     0.027458818948    12.000000000000
         C           -0.460162028976     0.044286894890     0.018646818948    12.000000000000
         C            1.884515971024     1.091555894890     0.433267818948    12.000000000000
         C           -1.205549028976     1.199741894890    -0.269743181052    12.000000000000
         C           -1.145702028976    -1.151357105110     0.294482818948    12.000000000000
         C            3.102410971024    -0.672329105110    -0.276899181052    12.000000000000
         C            3.246462171024     0.591113294890     0.234616618948    12.000000000000
         C           -2.598890028976     1.161910894890    -0.268701181052    12.000000000000
         C           -2.539762028976    -1.191241105110     0.269903818948    12.000000000000
         C           -3.271996028976    -0.035139105110    -0.009218181052    12.000000000000
         H            1.390062971024    -1.796373105110    -0.831499181052     1.007825032230
         H            1.598224971024     2.043243894890     0.863271818948     1.007825032230
         H           -0.680672028976     2.122665894890    -0.506741181052     1.007825032230
         H           -0.584006028976    -2.043408105110     0.567128818948     1.007825032230
         H            3.862239971024    -1.380643105110    -0.577330181052     1.007825032230
         H            4.122187971024     1.126261894890     0.470238818948     1.007825032230
         H           -3.162198028976     2.065112894890    -0.492276181052     1.007825032230
         H           -3.056057028976    -2.123686105110     0.487107818948     1.007825032230
         H           -4.358770028976    -0.065352105110    -0.019648181052     1.007825032230

  Basis Set: AUG-CC-PVTZ
    Blend: AUG-CC-PVTZ
  Basis Set: (AUG-CC-PVTZ AUX)
    Blend: AUG-CC-PVTZ-JKFIT
	 Reference Energy          =    -438.5074658459569719 [Eh]
	 Singles Energy            =      -0.0000000000000000 [Eh]
	 Same-Spin Energy          =      -0.4944422495610989 [Eh]
	 Opposite-Spin Energy      =      -1.5247526533551956 [Eh]
	 Correlation Energy        =      -2.0191949029162943 [Eh]
	 Total Energy              =    -440.5266607488732689 [Eh]

	 ================> DF-SCS-MP2 Energies <==================
	-----------------------------------------------------------
	 SCS Same-Spin Scale       =       0.3333333333333333 [-]
	 SCS Opposite-Spin Scale   =       1.2000000000000000 [-]
	 SCS Same-Spin Energy      =      -0.1648140831870329 [Eh]
	 SCS Opposite-Spin Energy  =      -1.8297031840262346 [Eh]
	 SCS Correlation Energy    =      -1.9945172672132676 [Eh]
	 SCS Total Energy          =    -440.5019831131702404 [Eh]
	-----------------------------------------------------------

  Dipole Moment: [D]
     X:    -0.4893      Y:    -1.3132      Z:    -0.6440     Total:     1.5423

*** Psi4 exiting successfully. Buy a developer a beer!
