                               Psi4 1.3.2 release

  ==> Input File <==

--------------------------------------------------------------------------
#psi4
#
memory 32 gb

molecule  {
0 1
  N        1.7773000    -0.9706020    -0.3863220
  C        1.0080060     0.0962300     0.0271750
  C       -0.4507830     0.0432590     0.0183630
  C        1.9333750     1.1743798     0.4670156
  C       -1.1961700     1.1987140    -0.2700270
  C       -1.1363230    -1.1523850     0.2941990
  C        3.1117900    -0.6733570    -0.2771830
  C        3.2093430     0.6071710     0.2411150
  C       -2.5895110     1.1608830    -0.2689850
  C       -2.5303830    -1.1922690     0.2696200
  C       -3.2626170    -0.0361670    -0.0095020
  H        1.3994420    -1.7974010    -0.8317830
  H        1.6076040     2.0422160     0.8629880
  H       -0.6712930     2.1216380    -0.5070250
  H       -0.5746270    -2.0444360     0.5668450
  H        3.8716190    -1.3816710    -0.5776140
  H        4.1315670     1.1252340     0.4699550
  H       -3.1528190     2.0640850    -0.4925600
  H       -3.0466780    -2.1247140     0.4868240
  H       -4.3493910    -0.0663800    -0.0199320
units angstrom
no_reorient  #important for SAPT in psi4, default
symmetry c1  #important for SAPT in psi4, default
}

set PROPERTIES_ORIGIN ["COM"]
properties('MP2/aug-cc-pvtz', properties = ['dipole'])
--------------------------------------------------------------------------

    Molecular point group: c1
  Charge       = 0
  Multiplicity = 1
  Basis Set: AUG-CC-PVTZ
    Blend: AUG-CC-PVTZ
  Basis Set: (AUG-CC-PVTZ AUX)
    Blend: AUG-CC-PVTZ-JKFIT

    Orbital Energies [Eh]
    ---------------------

    Doubly Occupied:

       1A    -15.615737     2A    -11.273712     3A    -11.254801
       4A    -11.253492     5A    -11.242277     6A    -11.240963
       7A    -11.240725     8A    -11.238112     9A    -11.237828
      10A    -11.218389    11A    -11.217084    12A     -1.291770
      13A     -1.156368    14A     -1.046216    15A     -1.041761
      16A     -1.017022    17A     -0.953372    18A     -0.840602
      19A     -0.832187    20A     -0.793087    21A     -0.771006
      22A     -0.734463    23A     -0.679210    24A     -0.635055
      25A     -0.628968    26A     -0.599323    27A     -0.589389
      28A     -0.583855    29A     -0.566202    30A     -0.561883
      31A     -0.531206    32A     -0.504886    33A     -0.498429
      34A     -0.489433    35A     -0.361126    36A     -0.351990
      37A     -0.341674    38A     -0.264981

  @DF-RHF Final Energy:  -438.49246106244993

   => Energetics <=

    Nuclear Repulsion Energy =            534.9734014983879433
    One-Electron Energy =               -1653.5345568951695441
    Two-Electron Energy =                 680.0686943343315534
    Total Energy =                       -438.4924610624499337
  Basis Set: (AUG-CC-PVTZ AUX)
    Blend: AUG-CC-PVTZ-RI
    Molecular point group: c1

    Geometry (in Angstrom), charge = 0, multiplicity = 1:

       Center              X                  Y                   Z               Mass
    ------------   -----------------  -----------------  -----------------  -----------------
         N            1.768509608336    -0.978040025116    -0.389461355871    14.003074004430
         C            0.999215608336     0.088791974884     0.024035644129    12.000000000000
         C           -0.459573391664     0.035820974884     0.015223644129    12.000000000000
         C            1.924584608336     1.166941774884     0.463876244129    12.000000000000
         C           -1.204960391664     1.191275974884    -0.273166355871    12.000000000000
         C           -1.145113391664    -1.159823025116     0.291059644129    12.000000000000
         C            3.102999608336    -0.680795025116    -0.280322355871    12.000000000000
         C            3.200552608336     0.599732974884     0.237975644129    12.000000000000
         C           -2.598301391664     1.153444974884    -0.272124355871    12.000000000000
         C           -2.539173391664    -1.199707025116     0.266480644129    12.000000000000
         C           -3.271407391664    -0.043605025116    -0.012641355871    12.000000000000
         H            1.390651608336    -1.804839025116    -0.834922355871     1.007825032230
         H            1.598813608336     2.034777974884     0.859848644129     1.007825032230
         H           -0.680083391664     2.114199974884    -0.510164355871     1.007825032230
         H           -0.583417391664    -2.051874025116     0.563705644129     1.007825032230
         H            3.862828608336    -1.389109025116    -0.580753355871     1.007825032230
         H            4.122776608336     1.117795974884     0.466815644129     1.007825032230
         H           -3.161609391664     2.056646974884    -0.495699355871     1.007825032230
         H           -3.055468391664    -2.132152025116     0.483684644129     1.007825032230
         H           -4.358181391664    -0.073818025116    -0.023071355871     1.007825032230

  Basis Set: AUG-CC-PVTZ
    Blend: AUG-CC-PVTZ
  Basis Set: (AUG-CC-PVTZ AUX)
    Blend: AUG-CC-PVTZ-JKFIT
	 Reference Energy          =    -438.4924610624499337 [Eh]
	 Singles Energy            =      -0.0000000000000000 [Eh]
	 Same-Spin Energy          =      -0.4965789394375124 [Eh]
	 Opposite-Spin Energy      =      -1.5278322518462761 [Eh]
	 Correlation Energy        =      -2.0244111912837885 [Eh]
	 Total Energy              =    -440.5168722537337089 [Eh]

	 ================> DF-SCS-MP2 Energies <==================
	-----------------------------------------------------------
	 SCS Same-Spin Scale       =       0.3333333333333333 [-]
	 SCS Opposite-Spin Scale   =       1.2000000000000000 [-]
	 SCS Same-Spin Energy      =      -0.1655263131458375 [Eh]
	 SCS Opposite-Spin Energy  =      -1.8333987022155314 [Eh]
	 SCS Correlation Energy    =      -1.9989250153613689 [Eh]
	 SCS Total Energy          =    -440.4913860778112848 [Eh]
	-----------------------------------------------------------

  Dipole Moment: [D]
     X:    -0.3862      Y:    -1.3763      Z:    -0.6647     Total:     1.5765

*** Psi4 exiting successfully. Buy a developer a beer!
