                               Psi4 1.3.2 release

  ==> Input File <==

--------------------------------------------------------------------------
#psi4
#
memory 32 gb

molecule  {
0 1
  N        1.7773000    -0.9706020    -0.3863220
  C        1.0080060     0.0962300     0.0271750
  C       -0.4507830     0.0432590     0.0183630
  C        1.9575291     1.1619493     0.4621336
  C       -1.1961700     1.1987140    -0.2700270
  C       -1.1363230    -1.1523850     0.2941990
  C        3.1117900    -0.6733570    -0.2771830
  C        3.2093430     0.6071710     0.2411150
  C       -2.5895110     1.1608830    -0.2689850
  C       -2.5303830    -1.1922690     0.2696200
  C       -3.2626170    -0.0361670    -0.0095020
  H        1.3994420    -1.7974010    -0.8317830
  H        1.6076040     2.0422160     0.8629880
  H       -0.6712930     2.1216380    -0.5070250
  H       -0.5746270    -2.0444360     0.5668450
  H        3.8716190    -1.3816710    -0.5776140
  H        4.1315670     1.1252340     0.4699550
  H       -3.1528190     2.0640850    -0.4925600
  H       -3.0466780    -2.1247140     0.4868240
  H       -4.3493910    -0.0663800    -0.0199320
units angstrom
no_reorient  #important for SAPT in psi4, default
symmetry c1  #important for SAPT in psi4, default
}

set PROPERTIES_ORIGIN ["COM"]
properties('MP2/aug-cc-pvtz', properties = ['dipole'])
--------------------------------------------------------------------------

    Molecular point group: c1
  Charge       = 0
  Multiplicity = 1
  Basis Set: AUG-CC-PVTZ
    Blend: AUG-CC-PVTZ
  Basis Set: (AUG-CC-PVTZ AUX)
    Blend: AUG-CC-PVTZ-JKFIT

    Orbital Energies [Eh]
    ---------------------

    Doubly Occupied:

       1A    -15.616691     2A    -11.272376     3A    -11.254047
       4A    -11.253862     5A    -11.242269     6A    -11.240928
       7A    -11.240703     8A    -11.238025     9A    -11.237726
      10A    -11.217895    11A    -11.214801    12A     -1.292517
      13A     -1.156327    14A     -1.046713    15A     -1.045458
      16A     -1.017159    17A     -0.952339    18A     -0.840537
      19A     -0.832081    20A     -0.793538    21A     -0.768659
      22A     -0.734623    23A     -0.679441    24A     -0.634904
      25A     -0.628910    26A     -0.598113    27A     -0.589357
      28A     -0.583890    29A     -0.566438    30A     -0.560609
      31A     -0.532026    32A     -0.504887    33A     -0.498704
      34A     -0.489661    35A     -0.361125    36A     -0.355712
      37A     -0.341665    38A     -0.262908

  @DF-RHF Final Energy:  -438.49340684609371

   => Energetics <=

    Nuclear Repulsion Energy =            535.1378942292756165
    One-Electron Energy =               -1653.8673606576860493
    Two-Electron Energy =                 680.2360595823167841
    Total Energy =                       -438.4934068460936487
  Basis Set: (AUG-CC-PVTZ AUX)
    Blend: AUG-CC-PVTZ-RI
    Molecular point group: c1

    Geometry (in Angstrom), charge = 0, multiplicity = 1:

       Center              X                  Y                   Z               Mass
    ------------   -----------------  -----------------  -----------------  -----------------
         N            1.766483732115    -0.976997442103    -0.389051888008    14.003074004430
         C            0.997189732115     0.089834557897     0.024445111992    12.000000000000
         C           -0.461599267885     0.036863557897     0.015633111992    12.000000000000
         C            1.946712832115     1.155553857897     0.459403711992    12.000000000000
         C           -1.206986267885     1.192318557897    -0.272756888008    12.000000000000
         C           -1.147139267885    -1.158780442103     0.291469111992    12.000000000000
         C            3.100973732115    -0.679752442103    -0.279912888008    12.000000000000
         C            3.198526732115     0.600775557897     0.238385111992    12.000000000000
         C           -2.600327267885     1.154487557897    -0.271714888008    12.000000000000
         C           -2.541199267885    -1.198664442103     0.266890111992    12.000000000000
         C           -3.273433267885    -0.042562442103    -0.012231888008    12.000000000000
         H            1.388625732115    -1.803796442103    -0.834512888008     1.007825032230
         H            1.596787732115     2.035820557897     0.860258111992     1.007825032230
         H           -0.682109267885     2.115242557897    -0.509754888008     1.007825032230
         H           -0.585443267885    -2.050831442103     0.564115111992     1.007825032230
         H            3.860802732115    -1.388066442103    -0.580343888008     1.007825032230
         H            4.120750732115     1.118838557897     0.467225111992     1.007825032230
         H           -3.163635267885     2.057689557897    -0.495289888008     1.007825032230
         H           -3.057494267885    -2.131109442103     0.484094111992     1.007825032230
         H           -4.360207267885    -0.072775442103    -0.022661888008     1.007825032230

  Basis Set: AUG-CC-PVTZ
    Blend: AUG-CC-PVTZ
  Basis Set: (AUG-CC-PVTZ AUX)
    Blend: AUG-CC-PVTZ-JKFIT
	 Reference Energy          =    -438.4934068460937056 [Eh]
	 Singles Energy            =      -0.0000000000000000 [Eh]
	 Same-Spin Energy          =      -0.4969716842419862 [Eh]
	 Opposite-Spin Energy      =      -1.5280735479827903 [Eh]
	 Correlation Energy        =      -2.0250452322247767 [Eh]
	 Total Energy              =    -440.5184520783184894 [Eh]

	 ================> DF-SCS-MP2 Energies <==================
	-----------------------------------------------------------
	 SCS Same-Spin Scale       =       0.3333333333333333 [-]
	 SCS Opposite-Spin Scale   =       1.2000000000000000 [-]
	 SCS Same-Spin Energy      =      -0.1656572280806621 [Eh]
	 SCS Opposite-Spin Energy  =      -1.8336882575793483 [Eh]
	 SCS Correlation Energy    =      -1.9993454856600104 [Eh]
	 SCS Total Energy          =    -440.4927523317537066 [Eh]
	-----------------------------------------------------------

  Dipole Moment: [D]
     X:    -0.3706      Y:    -1.3616      Z:    -0.6599     Total:     1.5578

*** Psi4 exiting successfully. Buy a developer a beer!
