                               Psi4 1.3.2 release

  ==> Input File <==

--------------------------------------------------------------------------
#psi4
#
memory 32 gb

molecule  {
0 1
  N        1.7773000    -0.9706020    -0.3863220
  C        1.0889238     0.1383722     0.0577928
  C       -0.4507830     0.0432590     0.0183630
  C        1.8938950     1.0905280     0.4329840
  C       -1.1961700     1.1987140    -0.2700270
  C       -1.1363230    -1.1523850     0.2941990
  C        3.1117900    -0.6733570    -0.2771830
  C        3.2093430     0.6071710     0.2411150
  C       -2.5895110     1.1608830    -0.2689850
  C       -2.5303830    -1.1922690     0.2696200
  C       -3.2626170    -0.0361670    -0.0095020
  H        1.3994420    -1.7974010    -0.8317830
  H        1.6076040     2.0422160     0.8629880
  H       -0.6712930     2.1216380    -0.5070250
  H       -0.5746270    -2.0444360     0.5668450
  H        3.8716190    -1.3816710    -0.5776140
  H        4.1315670     1.1252340     0.4699550
  H       -3.1528190     2.0640850    -0.4925600
  H       -3.0466780    -2.1247140     0.4868240
  H       -4.3493910    -0.0663800    -0.0199320
units angstrom
no_reorient  #important for SAPT in psi4, default
symmetry c1  #important for SAPT in psi4, default
}

set PROPERTIES_ORIGIN ["COM"]
properties('MP2/aug-cc-pvtz', properties = ['dipole'])
--------------------------------------------------------------------------

    Molecular point group: c1
  Charge       = 0
  Multiplicity = 1
  Basis Set: AUG-CC-PVTZ
    Blend: AUG-CC-PVTZ
  Basis Set: (AUG-CC-PVTZ AUX)
    Blend: AUG-CC-PVTZ-JKFIT

    Orbital Energies [Eh]
    ---------------------

    Doubly Occupied:

       1A    -15.602288     2A    -11.257836     3A    -11.256419
       4A    -11.255665     5A    -11.241712     6A    -11.240385
       7A    -11.239903     8A    -11.237403     9A    -11.236694
      10A    -11.211234    11A    -11.202990    12A     -1.297360
      13A     -1.153082    14A     -1.059063    15A     -1.035443
      16A     -1.016195    17A     -0.962452    18A     -0.830279
      19A     -0.829414    20A     -0.790905    21A     -0.769950
      22A     -0.729692    23A     -0.678765    24A     -0.629583
      25A     -0.628079    26A     -0.604635    27A     -0.589350
      28A     -0.576956    29A     -0.566874    30A     -0.554403
      31A     -0.537069    32A     -0.502982    33A     -0.494697
      34A     -0.490354    35A     -0.364642    36A     -0.349812
      37A     -0.340493    38A     -0.284395

  @DF-RHF Final Energy:  -438.50061029963797

   => Energetics <=

    Nuclear Repulsion Energy =            536.8970879784295676
    One-Electron Energy =               -1657.4964936893820777
    Two-Electron Energy =                 682.0987954113144269
    Total Energy =                       -438.5006102996379695
  Basis Set: (AUG-CC-PVTZ AUX)
    Blend: AUG-CC-PVTZ-RI
    Molecular point group: c1

    Geometry (in Angstrom), charge = 0, multiplicity = 1:

       Center              X                  Y                   Z               Mass
    ------------   -----------------  -----------------  -----------------  -----------------
         N            1.765034096781    -0.974541716887    -0.389175030309    14.003074004430
         C            1.076657896781     0.134432483113     0.054939769691    12.000000000000
         C           -0.463048903219     0.039319283113     0.015509969691    12.000000000000
         C            1.881629096781     1.086588283113     0.430130969691    12.000000000000
         C           -1.208435903219     1.194774283113    -0.272880030309    12.000000000000
         C           -1.148588903219    -1.156324716887     0.291345969691    12.000000000000
         C            3.099524096781    -0.677296716887    -0.280036030309    12.000000000000
         C            3.197077096781     0.603231283113     0.238261969691    12.000000000000
         C           -2.601776903219     1.156943283113    -0.271838030309    12.000000000000
         C           -2.542648903219    -1.196208716887     0.266766969691    12.000000000000
         C           -3.274882903219    -0.040106716887    -0.012355030309    12.000000000000
         H            1.387176096781    -1.801340716887    -0.834636030309     1.007825032230
         H            1.595338096781     2.038276283113     0.860134969691     1.007825032230
         H           -0.683558903219     2.117698283113    -0.509878030309     1.007825032230
         H           -0.586892903219    -2.048375716887     0.563991969691     1.007825032230
         H            3.859353096781    -1.385610716887    -0.580467030309     1.007825032230
         H            4.119301096781     1.121294283113     0.467101969691     1.007825032230
         H           -3.165084903219     2.060145283113    -0.495413030309     1.007825032230
         H           -3.058943903219    -2.128653716887     0.483970969691     1.007825032230
         H           -4.361656903219    -0.070319716887    -0.022785030309     1.007825032230

  Basis Set: AUG-CC-PVTZ
    Blend: AUG-CC-PVTZ
  Basis Set: (AUG-CC-PVTZ AUX)
    Blend: AUG-CC-PVTZ-JKFIT
	 Reference Energy          =    -438.5006102996379695 [Eh]
	 Singles Energy            =      -0.0000000000000000 [Eh]
	 Same-Spin Energy          =      -0.4932034267907028 [Eh]
	 Opposite-Spin Energy      =      -1.5227254490592568 [Eh]
	 Correlation Energy        =      -2.0159288758499594 [Eh]
	 Total Energy              =    -440.5165391754879352 [Eh]

	 ================> DF-SCS-MP2 Energies <==================
	-----------------------------------------------------------
	 SCS Same-Spin Scale       =       0.3333333333333333 [-]
	 SCS Opposite-Spin Scale   =       1.2000000000000000 [-]
	 SCS Same-Spin Energy      =      -0.1644011422635676 [Eh]
	 SCS Opposite-Spin Energy  =      -1.8272705388711081 [Eh]
	 SCS Correlation Energy    =      -1.9916716811346757 [Eh]
	 SCS Total Energy          =    -440.4922819807726455 [Eh]
	-----------------------------------------------------------

  Dipole Moment: [D]
     X:    -0.5413      Y:    -1.2447      Z:    -0.6162     Total:     1.4907

*** Psi4 exiting successfully. Buy a developer a beer!
