                               Psi4 1.3.2 release

  ==> Input File <==

--------------------------------------------------------------------------
#psi4
#
memory 32 gb

molecule  {
0 1
  N        1.7773000    -0.9706020    -0.3863220
  C        1.0080060     0.0962300     0.0271750
  C       -0.4507830     0.0432590     0.0183630
  C        1.8938950     1.0905280     0.4329840
  C       -1.1961700     1.1987140    -0.2700270
  C       -1.1363230    -1.1523850     0.2941990
  C        3.1117900    -0.6733570    -0.2771830
  C        3.1127526     0.6097905     0.2438093
  C       -2.5895110     1.1608830    -0.2689850
  C       -2.5303830    -1.1922690     0.2696200
  C       -3.2626170    -0.0361670    -0.0095020
  H        1.3994420    -1.7974010    -0.8317830
  H        1.6076040     2.0422160     0.8629880
  H       -0.6712930     2.1216380    -0.5070250
  H       -0.5746270    -2.0444360     0.5668450
  H        3.8716190    -1.3816710    -0.5776140
  H        4.1315670     1.1252340     0.4699550
  H       -3.1528190     2.0640850    -0.4925600
  H       -3.0466780    -2.1247140     0.4868240
  H       -4.3493910    -0.0663800    -0.0199320
units angstrom
no_reorient  #important for SAPT in psi4, default
symmetry c1  #important for SAPT in psi4, default
}

set PROPERTIES_ORIGIN ["COM"]
properties('MP2/aug-cc-pvtz', properties = ['dipole'])
--------------------------------------------------------------------------

    Molecular point group: c1
  Charge       = 0
  Multiplicity = 1
  Basis Set: AUG-CC-PVTZ
    Blend: AUG-CC-PVTZ
  Basis Set: (AUG-CC-PVTZ AUX)
    Blend: AUG-CC-PVTZ-JKFIT

    Orbital Energies [Eh]
    ---------------------

    Doubly Occupied:

       1A    -15.610978     2A    -11.260914     3A    -11.252743
       4A    -11.252286     5A    -11.241649     6A    -11.240507
       7A    -11.239856     8A    -11.237465     9A    -11.237155
      10A    -11.211766    11A    -11.205138    12A     -1.299808
      13A     -1.155839    14A     -1.061365    15A     -1.046232
      16A     -1.016776    17A     -0.957566    18A     -0.840389
      19A     -0.831318    20A     -0.791713    21A     -0.758894
      22A     -0.735147    23A     -0.679720    24A     -0.633315
      25A     -0.629830    26A     -0.592728    27A     -0.587862
      28A     -0.584866    29A     -0.572162    30A     -0.559183
      31A     -0.524013    32A     -0.504440    33A     -0.498779
      34A     -0.492322    35A     -0.365619    36A     -0.360012
      37A     -0.341123    38A     -0.268356

  @DF-RHF Final Energy:  -438.49374688664454

   => Energetics <=

    Nuclear Repulsion Energy =            538.7127483514937012
    One-Electron Energy =               -1661.0533176355504565
    Two-Electron Energy =                 683.8468223974122111
    Total Energy =                       -438.4937468866445442
  Basis Set: (AUG-CC-PVTZ AUX)
    Blend: AUG-CC-PVTZ-RI
    Molecular point group: c1

    Geometry (in Angstrom), charge = 0, multiplicity = 1:

       Center              X                  Y                   Z               Mass
    ------------   -----------------  -----------------  -----------------  -----------------
         N            1.779922237565    -0.971226830466    -0.386833003298    14.003074004430
         C            1.010628237565     0.095605169534     0.026663996702    12.000000000000
         C           -0.448160762435     0.042634169534     0.017851996702    12.000000000000
         C            1.896517237565     1.089903169534     0.432472996702    12.000000000000
         C           -1.193547762435     1.198089169534    -0.270538003298    12.000000000000
         C           -1.133700762435    -1.153009830466     0.293687996702    12.000000000000
         C            3.114412237565    -0.673981830466    -0.277694003298    12.000000000000
         C            3.115374837565     0.609165669534     0.243298296702    12.000000000000
         C           -2.586888762435     1.160258169534    -0.269496003298    12.000000000000
         C           -2.527760762435    -1.192893830466     0.269108996702    12.000000000000
         C           -3.259994762435    -0.036791830466    -0.010013003298    12.000000000000
         H            1.402064237565    -1.798025830466    -0.832294003298     1.007825032230
         H            1.610226237565     2.041591169534     0.862476996702     1.007825032230
         H           -0.668670762435     2.121013169534    -0.507536003298     1.007825032230
         H           -0.572004762435    -2.045060830466     0.566333996702     1.007825032230
         H            3.874241237565    -1.382295830466    -0.578125003298     1.007825032230
         H            4.134189237565     1.124609169534     0.469443996702     1.007825032230
         H           -3.150196762435     2.063460169534    -0.493071003298     1.007825032230
         H           -3.044055762435    -2.125338830466     0.486312996702     1.007825032230
         H           -4.346768762435    -0.067004830466    -0.020443003298     1.007825032230

  Basis Set: AUG-CC-PVTZ
    Blend: AUG-CC-PVTZ
  Basis Set: (AUG-CC-PVTZ AUX)
    Blend: AUG-CC-PVTZ-JKFIT
	 Reference Energy          =    -438.4937468866445442 [Eh]
	 Singles Energy            =      -0.0000000000000000 [Eh]
	 Same-Spin Energy          =      -0.4967645452707472 [Eh]
	 Opposite-Spin Energy      =      -1.5268096640762505 [Eh]
	 Correlation Energy        =      -2.0235742093469975 [Eh]
	 Total Energy              =    -440.5173210959915195 [Eh]

	 ================> DF-SCS-MP2 Energies <==================
	-----------------------------------------------------------
	 SCS Same-Spin Scale       =       0.3333333333333333 [-]
	 SCS Opposite-Spin Scale   =       1.2000000000000000 [-]
	 SCS Same-Spin Energy      =      -0.1655881817569157 [Eh]
	 SCS Opposite-Spin Energy  =      -1.8321715968915004 [Eh]
	 SCS Correlation Energy    =      -1.9977597786484163 [Eh]
	 SCS Total Energy          =    -440.4915066652929454 [Eh]
	-----------------------------------------------------------

  Dipole Moment: [D]
     X:    -0.4075      Y:    -1.3252      Z:    -0.6539     Total:     1.5329

*** Psi4 exiting successfully. Buy a developer a beer!
