                               Psi4 1.3.2 release

  ==> Input File <==

--------------------------------------------------------------------------
#psi4
#
memory 32 gb

molecule  {
0 1
  N        1.7773000    -0.9706020    -0.3863220
  C        1.0080060     0.0962300     0.0271750
  C       -0.4507830     0.0432590     0.0183630
  C        1.8938950     1.0905280     0.4329840
  C       -1.1961700     1.1987140    -0.2700270
  C       -1.1363230    -1.1523850     0.2941990
  C        3.1117900    -0.6733570    -0.2771830
  C        3.1163466     0.6413422     0.2546793
  C       -2.5895110     1.1608830    -0.2689850
  C       -2.5303830    -1.1922690     0.2696200
  C       -3.2626170    -0.0361670    -0.0095020
  H        1.3994420    -1.7974010    -0.8317830
  H        1.6076040     2.0422160     0.8629880
  H       -0.6712930     2.1216380    -0.5070250
  H       -0.5746270    -2.0444360     0.5668450
  H        3.8716190    -1.3816710    -0.5776140
  H        4.1315670     1.1252340     0.4699550
  H       -3.1528190     2.0640850    -0.4925600
  H       -3.0466780    -2.1247140     0.4868240
  H       -4.3493910    -0.0663800    -0.0199320
units angstrom
no_reorient  #important for SAPT in psi4, default
symmetry c1  #important for SAPT in psi4, default
}

set PROPERTIES_ORIGIN ["COM"]
properties('MP2/aug-cc-pvtz', properties = ['dipole'])
--------------------------------------------------------------------------

    Molecular point group: c1
  Charge       = 0
  Multiplicity = 1
  Basis Set: AUG-CC-PVTZ
    Blend: AUG-CC-PVTZ
  Basis Set: (AUG-CC-PVTZ AUX)
    Blend: AUG-CC-PVTZ-JKFIT

    Orbital Energies [Eh]
    ---------------------

    Doubly Occupied:

       1A    -15.614136     2A    -11.259939     3A    -11.256182
       4A    -11.252721     5A    -11.241408     6A    -11.240239
       7A    -11.239490     8A    -11.236994     9A    -11.236691
      10A    -11.213335    11A    -11.205302    12A     -1.298859
      13A     -1.155464    14A     -1.063082    15A     -1.045028
      16A     -1.016507    17A     -0.954675    18A     -0.839578
      19A     -0.830988    20A     -0.794547    21A     -0.759656
      22A     -0.734725    23A     -0.679420    24A     -0.633128
      25A     -0.629726    26A     -0.594036    27A     -0.588719
      28A     -0.584267    29A     -0.571583    30A     -0.558551
      31A     -0.523595    32A     -0.504067    33A     -0.499308
      34A     -0.492967    35A     -0.367843    36A     -0.359035
      37A     -0.340885    38A     -0.264856

  @DF-RHF Final Energy:  -438.49239384363256

   => Energetics <=

    Nuclear Repulsion Energy =            538.2979908586071360
    One-Electron Energy =               -1660.2177079316020354
    Two-Electron Energy =                 683.4273232293624005
    Total Energy =                       -438.4923938436324988
  Basis Set: (AUG-CC-PVTZ AUX)
    Blend: AUG-CC-PVTZ-RI
    Molecular point group: c1

    Geometry (in Angstrom), charge = 0, multiplicity = 1:

       Center              X                  Y                   Z               Mass
    ------------   -----------------  -----------------  -----------------  -----------------
         N            1.779620798094    -0.973873165405    -0.387744702534    14.003074004430
         C            1.010326798094     0.092958834595     0.025752297466    12.000000000000
         C           -0.448462201906     0.039987834595     0.016940297466    12.000000000000
         C            1.896215798094     1.087256834595     0.431561297466    12.000000000000
         C           -1.193849201906     1.195442834595    -0.271449702534    12.000000000000
         C           -1.134002201906    -1.155656165405     0.292776297466    12.000000000000
         C            3.114110798094    -0.676628165405    -0.278605702534    12.000000000000
         C            3.118667398094     0.638071034595     0.253256597466    12.000000000000
         C           -2.587190201906     1.157611834595    -0.270407702534    12.000000000000
         C           -2.528062201906    -1.195540165405     0.268197297466    12.000000000000
         C           -3.260296201906    -0.039438165405    -0.010924702534    12.000000000000
         H            1.401762798094    -1.800672165405    -0.833205702534     1.007825032230
         H            1.609924798094     2.038944834595     0.861565297466     1.007825032230
         H           -0.668972201906     2.118366834595    -0.508447702534     1.007825032230
         H           -0.572306201906    -2.047707165405     0.565422297466     1.007825032230
         H            3.873939798094    -1.384942165405    -0.579036702534     1.007825032230
         H            4.133887798094     1.121962834595     0.468532297466     1.007825032230
         H           -3.150498201906     2.060813834595    -0.493982702534     1.007825032230
         H           -3.044357201906    -2.127985165405     0.485401297466     1.007825032230
         H           -4.347070201906    -0.069651165405    -0.021354702534     1.007825032230

  Basis Set: AUG-CC-PVTZ
    Blend: AUG-CC-PVTZ
  Basis Set: (AUG-CC-PVTZ AUX)
    Blend: AUG-CC-PVTZ-JKFIT
	 Reference Energy          =    -438.4923938436325557 [Eh]
	 Singles Energy            =      -0.0000000000000000 [Eh]
	 Same-Spin Energy          =      -0.4972084694709610 [Eh]
	 Opposite-Spin Energy      =      -1.5275783466772002 [Eh]
	 Correlation Energy        =      -2.0247868161481613 [Eh]
	 Total Energy              =    -440.5171806597807063 [Eh]

	 ================> DF-SCS-MP2 Energies <==================
	-----------------------------------------------------------
	 SCS Same-Spin Scale       =       0.3333333333333333 [-]
	 SCS Opposite-Spin Scale   =       1.2000000000000000 [-]
	 SCS Same-Spin Energy      =      -0.1657361564903203 [Eh]
	 SCS Opposite-Spin Energy  =      -1.8330940160126401 [Eh]
	 SCS Correlation Energy    =      -1.9988301725029605 [Eh]
	 SCS Total Energy          =    -440.4912240161355044 [Eh]
	-----------------------------------------------------------

  Dipole Moment: [D]
     X:    -0.3844      Y:    -1.3207      Z:    -0.6505     Total:     1.5216

*** Psi4 exiting successfully. Buy a developer a beer!
