                               Psi4 1.3.2 release

  ==> Input File <==

--------------------------------------------------------------------------
#psi4
#
memory 32 gb

molecule  {
0 1
  N        1.7773000    -0.9706020    -0.3863220
  C        1.0080060     0.0962300     0.0271750
  C       -0.4507830     0.0432590     0.0183630
  C        1.8938950     1.0905280     0.4329840
  C       -1.2774142     1.1450373    -0.2584261
  C       -1.1363230    -1.1523850     0.2941990
  C        3.1117900    -0.6733570    -0.2771830
  C        3.2093430     0.6071710     0.2411150
  C       -2.5895110     1.1608830    -0.2689850
  C       -2.5303830    -1.1922690     0.2696200
  C       -3.2626170    -0.0361670    -0.0095020
  H        1.3994420    -1.7974010    -0.8317830
  H        1.6076040     2.0422160     0.8629880
  H       -0.6712930     2.1216380    -0.5070250
  H       -0.5746270    -2.0444360     0.5668450
  H        3.8716190    -1.3816710    -0.5776140
  H        4.1315670     1.1252340     0.4699550
  H       -3.1528190     2.0640850    -0.4925600
  H       -3.0466780    -2.1247140     0.4868240
  H       -4.3493910    -0.0663800    -0.0199320
units angstrom
no_reorient  #important for SAPT in psi4, default
symmetry c1  #important for SAPT in psi4, default
}

set PROPERTIES_ORIGIN ["COM"]
properties('MP2/aug-cc-pvtz', properties = ['dipole'])
--------------------------------------------------------------------------

    Molecular point group: c1
  Charge       = 0
  Multiplicity = 1
  Basis Set: AUG-CC-PVTZ
    Blend: AUG-CC-PVTZ
  Basis Set: (AUG-CC-PVTZ AUX)
    Blend: AUG-CC-PVTZ-JKFIT

    Orbital Energies [Eh]
    ---------------------

    Doubly Occupied:

       1A    -15.609529     2A    -11.264220     3A    -11.257861
       4A    -11.252928     5A    -11.240755     6A    -11.239295
       7A    -11.237796     8A    -11.235957     9A    -11.229811
      10A    -11.214838    11A    -11.213736    12A     -1.295182
      13A     -1.164679    14A     -1.049132    15A     -1.044883
      16A     -1.023407    17A     -0.960251    18A     -0.843036
      19A     -0.824896    20A     -0.790038    21A     -0.765617
      22A     -0.738260    23A     -0.678093    24A     -0.636946
      25A     -0.626178    26A     -0.592839    27A     -0.590293
      28A     -0.577841    29A     -0.571775    30A     -0.549614
      31A     -0.537102    32A     -0.512420    33A     -0.507698
      34A     -0.473279    35A     -0.363064    36A     -0.351388
      37A     -0.349384    38A     -0.273242

  @DF-RHF Final Energy:  -438.49645911313127

   => Energetics <=

    Nuclear Repulsion Energy =            537.7742180909783656
    One-Electron Energy =               -1659.1668321602787728
    Two-Electron Energy =                 682.8961549561690845
    Total Energy =                       -438.4964591131313227
  Basis Set: (AUG-CC-PVTZ AUX)
    Blend: AUG-CC-PVTZ-RI
    Molecular point group: c1

    Geometry (in Angstrom), charge = 0, multiplicity = 1:

       Center              X                  Y                   Z               Mass
    ------------   -----------------  -----------------  -----------------  -----------------
         N            1.778635106119    -0.966505100702    -0.387580026335    14.003074004430
         C            1.009341106119     0.100326899298     0.025916973665    12.000000000000
         C           -0.449447893881     0.047355899298     0.017104973665    12.000000000000
         C            1.895230106119     1.094624899298     0.431725973665    12.000000000000
         C           -1.276079093881     1.149134199298    -0.259684126335    12.000000000000
         C           -1.134987893881    -1.148288100702     0.292940973665    12.000000000000
         C            3.113125106119    -0.669260100702    -0.278441026335    12.000000000000
         C            3.210678106119     0.611267899298     0.239856973665    12.000000000000
         C           -2.588175893881     1.164979899298    -0.270243026335    12.000000000000
         C           -2.529047893881    -1.188172100702     0.268361973665    12.000000000000
         C           -3.261281893881    -0.032070100702    -0.010760026335    12.000000000000
         H            1.400777106119    -1.793304100702    -0.833041026335     1.007825032230
         H            1.608939106119     2.046312899298     0.861729973665     1.007825032230
         H           -0.669957893881     2.125734899298    -0.508283026335     1.007825032230
         H           -0.573291893881    -2.040339100702     0.565586973665     1.007825032230
         H            3.872954106119    -1.377574100702    -0.578872026335     1.007825032230
         H            4.132902106119     1.129330899298     0.468696973665     1.007825032230
         H           -3.151483893881     2.068181899298    -0.493818026335     1.007825032230
         H           -3.045342893881    -2.120617100702     0.485565973665     1.007825032230
         H           -4.348055893881    -0.062283100702    -0.021190026335     1.007825032230

  Basis Set: AUG-CC-PVTZ
    Blend: AUG-CC-PVTZ
  Basis Set: (AUG-CC-PVTZ AUX)
    Blend: AUG-CC-PVTZ-JKFIT
	 Reference Energy          =    -438.4964591131312659 [Eh]
	 Singles Energy            =      -0.0000000000000000 [Eh]
	 Same-Spin Energy          =      -0.4955159303144002 [Eh]
	 Opposite-Spin Energy      =      -1.5256475349023209 [Eh]
	 Correlation Energy        =      -2.0211634652167212 [Eh]
	 Total Energy              =    -440.5176225783479822 [Eh]

	 ================> DF-SCS-MP2 Energies <==================
	-----------------------------------------------------------
	 SCS Same-Spin Scale       =       0.3333333333333333 [-]
	 SCS Opposite-Spin Scale   =       1.2000000000000000 [-]
	 SCS Same-Spin Energy      =      -0.1651719767714667 [Eh]
	 SCS Opposite-Spin Energy  =      -1.8307770418827849 [Eh]
	 SCS Correlation Energy    =      -1.9959490186542517 [Eh]
	 SCS Total Energy          =    -440.4924081317855098 [Eh]
	-----------------------------------------------------------

  Dipole Moment: [D]
     X:    -0.3940      Y:    -1.3511      Z:    -0.6333     Total:     1.5433

*** Psi4 exiting successfully. Buy a developer a beer!
