                               Psi4 1.3.2 release

  ==> Input File <==

--------------------------------------------------------------------------
#psi4
#
memory 32 gb

molecule  {
0 1
  N        1.7773000    -0.9706020    -0.3863220
  C        1.0080060     0.0962300     0.0271750
  C       -0.3303861     0.1254235    -0.0011170
  C        1.8938950     1.0905280     0.4329840
  C       -1.1961700     1.1987140    -0.2700270
  C       -1.1363230    -1.1523850     0.2941990
  C        3.1117900    -0.6733570    -0.2771830
  C        3.2093430     0.6071710     0.2411150
  C       -2.5895110     1.1608830    -0.2689850
  C       -2.5303830    -1.1922690     0.2696200
  C       -3.2626170    -0.0361670    -0.0095020
  H        1.3994420    -1.7974010    -0.8317830
  H        1.6076040     2.0422160     0.8629880
  H       -0.6712930     2.1216380    -0.5070250
  H       -0.5746270    -2.0444360     0.5668450
  H        3.8716190    -1.3816710    -0.5776140
  H        4.1315670     1.1252340     0.4699550
  H       -3.1528190     2.0640850    -0.4925600
  H       -3.0466780    -2.1247140     0.4868240
  H       -4.3493910    -0.0663800    -0.0199320
units angstrom
no_reorient  #important for SAPT in psi4, default
symmetry c1  #important for SAPT in psi4, default
}

set PROPERTIES_ORIGIN ["COM"]
properties('MP2/aug-cc-pvtz', properties = ['dipole'])
--------------------------------------------------------------------------

    Molecular point group: c1
  Charge       = 0
  Multiplicity = 1
  Basis Set: AUG-CC-PVTZ
    Blend: AUG-CC-PVTZ
  Basis Set: (AUG-CC-PVTZ AUX)
    Blend: AUG-CC-PVTZ-JKFIT

    Orbital Energies [Eh]
    ---------------------

    Doubly Occupied:

       1A    -15.612259     2A    -11.263060     3A    -11.256410
       4A    -11.254912     5A    -11.250137     6A    -11.239778
       7A    -11.239550     8A    -11.236934     9A    -11.236528
      10A    -11.218136    11A    -11.216832    12A     -1.300153
      13A     -1.145935    14A     -1.064550    15A     -1.046787
      16A     -1.009796    17A     -0.956955    18A     -0.851483
      19A     -0.824560    20A     -0.791913    21A     -0.767908
      22A     -0.738619    23A     -0.681599    24A     -0.635568
      25A     -0.624839    26A     -0.595945    27A     -0.592308
      28A     -0.580505    29A     -0.574847    30A     -0.551847
      31A     -0.540416    32A     -0.516341    33A     -0.494046
      34A     -0.468397    35A     -0.370067    36A     -0.353775
      37A     -0.337107    38A     -0.263901

  @DF-RHF Final Energy:  -438.47802744105013

   => Energetics <=

    Nuclear Repulsion Energy =            536.9085430348551427
    One-Electron Energy =               -1657.3637379102347040
    Two-Electron Energy =                 681.9771674343295444
    Total Energy =                       -438.4780274410501306
  Basis Set: (AUG-CC-PVTZ AUX)
    Blend: AUG-CC-PVTZ-RI
    Molecular point group: c1

    Geometry (in Angstrom), charge = 0, multiplicity = 1:

       Center              X                  Y                   Z               Mass
    ------------   -----------------  -----------------  -----------------  -----------------
         N            1.761722867222    -0.977898506246    -0.384973178793    14.003074004430
         C            0.992428867222     0.088933493754     0.028523821207    12.000000000000
         C           -0.345963232778     0.118126993754     0.000231821207    12.000000000000
         C            1.878317867222     1.083231493754     0.434332821207    12.000000000000
         C           -1.211747132778     1.191417493754    -0.268678178793    12.000000000000
         C           -1.151900132778    -1.159681506246     0.295547821207    12.000000000000
         C            3.096212867222    -0.680653506246    -0.275834178793    12.000000000000
         C            3.193765867222     0.599874493754     0.242463821207    12.000000000000
         C           -2.605088132778     1.153586493754    -0.267636178793    12.000000000000
         C           -2.545960132778    -1.199565506246     0.270968821207    12.000000000000
         C           -3.278194132778    -0.043463506246    -0.008153178793    12.000000000000
         H            1.383864867222    -1.804697506246    -0.830434178793     1.007825032230
         H            1.592026867222     2.034919493754     0.864336821207     1.007825032230
         H           -0.686870132778     2.114341493754    -0.505676178793     1.007825032230
         H           -0.590204132778    -2.051732506246     0.568193821207     1.007825032230
         H            3.856041867222    -1.388967506246    -0.576265178793     1.007825032230
         H            4.115989867222     1.117937493754     0.471303821207     1.007825032230
         H           -3.168396132778     2.056788493754    -0.491211178793     1.007825032230
         H           -3.062255132778    -2.132010506246     0.488172821207     1.007825032230
         H           -4.364968132778    -0.073676506246    -0.018583178793     1.007825032230

  Basis Set: AUG-CC-PVTZ
    Blend: AUG-CC-PVTZ
  Basis Set: (AUG-CC-PVTZ AUX)
    Blend: AUG-CC-PVTZ-JKFIT
	 Reference Energy          =    -438.4780274410501306 [Eh]
	 Singles Energy            =      -0.0000000000000000 [Eh]
	 Same-Spin Energy          =      -0.4978433226310677 [Eh]
	 Opposite-Spin Energy      =      -1.5297730210230411 [Eh]
	 Correlation Energy        =      -2.0276163436541088 [Eh]
	 Total Energy              =    -440.5056437847042616 [Eh]

	 ================> DF-SCS-MP2 Energies <==================
	-----------------------------------------------------------
	 SCS Same-Spin Scale       =       0.3333333333333333 [-]
	 SCS Opposite-Spin Scale   =       1.2000000000000000 [-]
	 SCS Same-Spin Energy      =      -0.1659477742103559 [Eh]
	 SCS Opposite-Spin Energy  =      -1.8357276252276493 [Eh]
	 SCS Correlation Energy    =      -2.0016753994380050 [Eh]
	 SCS Total Energy          =    -440.4797028404881303 [Eh]
	-----------------------------------------------------------

  Dipole Moment: [D]
     X:     0.0269      Y:    -1.3136      Z:    -0.6455     Total:     1.4639

*** Psi4 exiting successfully. Buy a developer a beer!
