                               Psi4 1.3.2 release

  ==> Input File <==

--------------------------------------------------------------------------
#psi4
#
memory 32 gb

molecule  {
0 1
  N        1.7773000    -0.9706020    -0.3863220
  C        0.9522091     0.1736073     0.0571659
  C       -0.4507830     0.0432590     0.0183630
  C        1.8938950     1.0905280     0.4329840
  C       -1.1961700     1.1987140    -0.2700270
  C       -1.1363230    -1.1523850     0.2941990
  C        3.1117900    -0.6733570    -0.2771830
  C        3.2093430     0.6071710     0.2411150
  C       -2.5895110     1.1608830    -0.2689850
  C       -2.5303830    -1.1922690     0.2696200
  C       -3.2626170    -0.0361670    -0.0095020
  H        1.3994420    -1.7974010    -0.8317830
  H        1.6076040     2.0422160     0.8629880
  H       -0.6712930     2.1216380    -0.5070250
  H       -0.5746270    -2.0444360     0.5668450
  H        3.8716190    -1.3816710    -0.5776140
  H        4.1315670     1.1252340     0.4699550
  H       -3.1528190     2.0640850    -0.4925600
  H       -3.0466780    -2.1247140     0.4868240
  H       -4.3493910    -0.0663800    -0.0199320
units angstrom
no_reorient  #important for SAPT in psi4, default
symmetry c1  #important for SAPT in psi4, default
}

set PROPERTIES_ORIGIN ["COM"]
properties('MP2/aug-cc-pvtz', properties = ['dipole'])
--------------------------------------------------------------------------

    Molecular point group: c1
  Charge       = 0
  Multiplicity = 1
  Basis Set: AUG-CC-PVTZ
    Blend: AUG-CC-PVTZ
  Basis Set: (AUG-CC-PVTZ AUX)
    Blend: AUG-CC-PVTZ-JKFIT

    Orbital Energies [Eh]
    ---------------------

    Doubly Occupied:

       1A    -15.599983     2A    -11.264002     3A    -11.262544
       4A    -11.250387     5A    -11.242485     6A    -11.241215
       7A    -11.240261     8A    -11.237738     9A    -11.237007
      10A    -11.218746    11A    -11.211926    12A     -1.269455
      13A     -1.158167    14A     -1.057291    15A     -1.039620
      16A     -1.016818    17A     -0.957946    18A     -0.845396
      19A     -0.832890    20A     -0.782525    21A     -0.755703
      22A     -0.735720    23A     -0.680110    24A     -0.635563
      25A     -0.630994    26A     -0.593368    27A     -0.589303
      28A     -0.571079    29A     -0.562246    30A     -0.544918
      31A     -0.539858    32A     -0.507117    33A     -0.502183
      34A     -0.493260    35A     -0.371489    36A     -0.347333
      37A     -0.341453    38A     -0.272558

  @DF-RHF Final Energy:  -438.49592734556973

   => Energetics <=

    Nuclear Repulsion Energy =            536.4998164732656960
    One-Electron Energy =               -1656.7101726506771229
    Two-Electron Energy =                 681.7144288318418148
    Total Energy =                       -438.4959273455697257
  Basis Set: (AUG-CC-PVTZ AUX)
    Blend: AUG-CC-PVTZ-RI
    Molecular point group: c1

    Geometry (in Angstrom), charge = 0, multiplicity = 1:

       Center              X                  Y                   Z               Mass
    ------------   -----------------  -----------------  -----------------  -----------------
         N            1.776500765368    -0.977496989541    -0.389122450341    14.003074004430
         C            0.951409865368     0.166712310459     0.054365449659    12.000000000000
         C           -0.451582234632     0.036364010459     0.015562549659    12.000000000000
         C            1.893095765368     1.083633010459     0.430183549659    12.000000000000
         C           -1.196969234632     1.191819010459    -0.272827450341    12.000000000000
         C           -1.137122234632    -1.159279989541     0.291398549659    12.000000000000
         C            3.110990765368    -0.680251989541    -0.279983450341    12.000000000000
         C            3.208543765368     0.600276010459     0.238314549659    12.000000000000
         C           -2.590310234632     1.153988010459    -0.271785450341    12.000000000000
         C           -2.531182234632    -1.199163989541     0.266819549659    12.000000000000
         C           -3.263416234632    -0.043061989541    -0.012302450341    12.000000000000
         H            1.398642765368    -1.804295989541    -0.834583450341     1.007825032230
         H            1.606804765368     2.035321010459     0.860187549659     1.007825032230
         H           -0.672092234632     2.114743010459    -0.509825450341     1.007825032230
         H           -0.575426234632    -2.051330989541     0.564044549659     1.007825032230
         H            3.870819765368    -1.388565989541    -0.580414450341     1.007825032230
         H            4.130767765368     1.118339010459     0.467154549659     1.007825032230
         H           -3.153618234632     2.057190010459    -0.495360450341     1.007825032230
         H           -3.047477234632    -2.131608989541     0.484023549659     1.007825032230
         H           -4.350190234632    -0.073274989541    -0.022732450341     1.007825032230

  Basis Set: AUG-CC-PVTZ
    Blend: AUG-CC-PVTZ
  Basis Set: (AUG-CC-PVTZ AUX)
    Blend: AUG-CC-PVTZ-JKFIT
	 Reference Energy          =    -438.4959273455697257 [Eh]
	 Singles Energy            =      -0.0000000000000000 [Eh]
	 Same-Spin Energy          =      -0.4958597660532862 [Eh]
	 Opposite-Spin Energy      =      -1.5273778083895813 [Eh]
	 Correlation Energy        =      -2.0232375744428674 [Eh]
	 Total Energy              =    -440.5191649200125994 [Eh]

	 ================> DF-SCS-MP2 Energies <==================
	-----------------------------------------------------------
	 SCS Same-Spin Scale       =       0.3333333333333333 [-]
	 SCS Opposite-Spin Scale   =       1.2000000000000000 [-]
	 SCS Same-Spin Energy      =      -0.1652865886844287 [Eh]
	 SCS Opposite-Spin Energy  =      -1.8328533700674974 [Eh]
	 SCS Correlation Energy    =      -1.9981399587519262 [Eh]
	 SCS Total Energy          =    -440.4940673043216748 [Eh]
	-----------------------------------------------------------

  Dipole Moment: [D]
     X:    -0.4776      Y:    -1.2095      Z:    -0.5897     Total:     1.4278

*** Psi4 exiting successfully. Buy a developer a beer!
