                               Psi4 1.3.2 release

  ==> Input File <==

--------------------------------------------------------------------------
#psi4
#
memory 32 gb

molecule  {
0 1
  N        1.7773000    -0.9706020    -0.3863220
  C        1.0080060     0.0962300     0.0271750
  C       -0.4507830     0.0432590     0.0183630
  C        1.9554594     1.2152945     0.4836288
  C       -1.1961700     1.1987140    -0.2700270
  C       -1.1363230    -1.1523850     0.2941990
  C        3.1117900    -0.6733570    -0.2771830
  C        3.2093430     0.6071710     0.2411150
  C       -2.5895110     1.1608830    -0.2689850
  C       -2.5303830    -1.1922690     0.2696200
  C       -3.2626170    -0.0361670    -0.0095020
  H        1.3994420    -1.7974010    -0.8317830
  H        1.6076040     2.0422160     0.8629880
  H       -0.6712930     2.1216380    -0.5070250
  H       -0.5746270    -2.0444360     0.5668450
  H        3.8716190    -1.3816710    -0.5776140
  H        4.1315670     1.1252340     0.4699550
  H       -3.1528190     2.0640850    -0.4925600
  H       -3.0466780    -2.1247140     0.4868240
  H       -4.3493910    -0.0663800    -0.0199320
units angstrom
no_reorient  #important for SAPT in psi4, default
symmetry c1  #important for SAPT in psi4, default
}

set PROPERTIES_ORIGIN ["COM"]
properties('MP2/aug-cc-pvtz', properties = ['dipole'])
--------------------------------------------------------------------------

    Molecular point group: c1
  Charge       = 0
  Multiplicity = 1
  Basis Set: AUG-CC-PVTZ
    Blend: AUG-CC-PVTZ
  Basis Set: (AUG-CC-PVTZ AUX)
    Blend: AUG-CC-PVTZ-JKFIT

    Orbital Energies [Eh]
    ---------------------

    Doubly Occupied:

       1A    -15.619413     2A    -11.278759     3A    -11.253898
       4A    -11.253705     5A    -11.242494     6A    -11.241160
       7A    -11.240970     8A    -11.238323     9A    -11.238029
      10A    -11.220878    11A    -11.219533    12A     -1.291271
      13A     -1.156575    14A     -1.045922    15A     -1.040788
      16A     -1.017233    17A     -0.951283    18A     -0.842834
      19A     -0.832336    20A     -0.796477    21A     -0.773342
      22A     -0.734251    23A     -0.679233    24A     -0.637088
      25A     -0.628618    26A     -0.602698    27A     -0.589748
      28A     -0.583767    29A     -0.569282    30A     -0.564912
      31A     -0.525989    32A     -0.505122    33A     -0.498029
      34A     -0.483246    35A     -0.360819    36A     -0.352641
      37A     -0.341905    38A     -0.261151

  @DF-RHF Final Energy:  -438.47557944837905

   => Energetics <=

    Nuclear Repulsion Energy =            534.0932073644353295
    One-Electron Energy =               -1651.7101316862672320
    Two-Electron Energy =                 679.1413448734527947
    Total Energy =                       -438.4755794483791078
  Basis Set: (AUG-CC-PVTZ AUX)
    Blend: AUG-CC-PVTZ-RI
    Molecular point group: c1

    Geometry (in Angstrom), charge = 0, multiplicity = 1:

       Center              X                  Y                   Z               Mass
    ------------   -----------------  -----------------  -----------------  -----------------
         N            1.766657324011    -0.981471662718    -0.390854754376    14.003074004430
         C            0.997363324011     0.085360337282     0.022642245624    12.000000000000
         C           -0.461425675989     0.032389337282     0.013830245624    12.000000000000
         C            1.944816724011     1.204424837282     0.479096045624    12.000000000000
         C           -1.206812675989     1.187844337282    -0.274559754376    12.000000000000
         C           -1.146965675989    -1.163254662718     0.289666245624    12.000000000000
         C            3.101147324011    -0.684226662718    -0.281715754376    12.000000000000
         C            3.198700324011     0.596301337282     0.236582245624    12.000000000000
         C           -2.600153675989     1.150013337282    -0.273517754376    12.000000000000
         C           -2.541025675989    -1.203138662718     0.265087245624    12.000000000000
         C           -3.273259675989    -0.047036662718    -0.014034754376    12.000000000000
         H            1.388799324011    -1.808270662718    -0.836315754376     1.007825032230
         H            1.596961324011     2.031346337282     0.858455245624     1.007825032230
         H           -0.681935675989     2.110768337282    -0.511557754376     1.007825032230
         H           -0.585269675989    -2.055305662718     0.562312245624     1.007825032230
         H            3.860976324011    -1.392540662718    -0.582146754376     1.007825032230
         H            4.120924324011     1.114364337282     0.465422245624     1.007825032230
         H           -3.163461675989     2.053215337282    -0.497092754376     1.007825032230
         H           -3.057320675989    -2.135583662718     0.482291245624     1.007825032230
         H           -4.360033675989    -0.077249662718    -0.024464754376     1.007825032230

  Basis Set: AUG-CC-PVTZ
    Blend: AUG-CC-PVTZ
  Basis Set: (AUG-CC-PVTZ AUX)
    Blend: AUG-CC-PVTZ-JKFIT
	 Reference Energy          =    -438.4755794483790510 [Eh]
	 Singles Energy            =      -0.0000000000000000 [Eh]
	 Same-Spin Energy          =      -0.4973709721829905 [Eh]
	 Opposite-Spin Energy      =      -1.5295119521651084 [Eh]
	 Correlation Energy        =      -2.0268829243480990 [Eh]
	 Total Energy              =    -440.5024623727271660 [Eh]

	 ================> DF-SCS-MP2 Energies <==================
	-----------------------------------------------------------
	 SCS Same-Spin Scale       =       0.3333333333333333 [-]
	 SCS Opposite-Spin Scale   =       1.2000000000000000 [-]
	 SCS Same-Spin Energy      =      -0.1657903240609968 [Eh]
	 SCS Opposite-Spin Energy  =      -1.8354143425981300 [Eh]
	 SCS Correlation Energy    =      -2.0012046666591266 [Eh]
	 SCS Total Energy          =    -440.4767841150381855 [Eh]
	-----------------------------------------------------------

  Dipole Moment: [D]
     X:    -0.3445      Y:    -1.4086      Z:    -0.6749     Total:     1.5995

*** Psi4 exiting successfully. Buy a developer a beer!
