                               Psi4 1.3.2 release

  ==> Input File <==

--------------------------------------------------------------------------
#psi4
#
memory 32 gb

molecule  {
0 1
  N        1.7670714    -0.9274150    -0.3683741
  C        1.0080060     0.0962300     0.0271750
  C       -0.4507830     0.0432590     0.0183630
  C        1.8938950     1.0905280     0.4329840
  C       -1.1961700     1.1987140    -0.2700270
  C       -1.1363230    -1.1523850     0.2941990
  C        3.1117900    -0.6733570    -0.2771830
  C        3.2093430     0.6071710     0.2411150
  C       -2.5895110     1.1608830    -0.2689850
  C       -2.5303830    -1.1922690     0.2696200
  C       -3.2626170    -0.0361670    -0.0095020
  H        1.3994420    -1.7974010    -0.8317830
  H        1.6076040     2.0422160     0.8629880
  H       -0.6712930     2.1216380    -0.5070250
  H       -0.5746270    -2.0444360     0.5668450
  H        3.8716190    -1.3816710    -0.5776140
  H        4.1315670     1.1252340     0.4699550
  H       -3.1528190     2.0640850    -0.4925600
  H       -3.0466780    -2.1247140     0.4868240
  H       -4.3493910    -0.0663800    -0.0199320
units angstrom
no_reorient  #important for SAPT in psi4, default
symmetry c1  #important for SAPT in psi4, default
}

set PROPERTIES_ORIGIN ["COM"]
properties('MP2/aug-cc-pvtz', properties = ['dipole'])
--------------------------------------------------------------------------

    Molecular point group: c1
  Charge       = 0
  Multiplicity = 1
  Basis Set: AUG-CC-PVTZ
    Blend: AUG-CC-PVTZ
  Basis Set: (AUG-CC-PVTZ AUX)
    Blend: AUG-CC-PVTZ-JKFIT

    Orbital Energies [Eh]
    ---------------------

    Doubly Occupied:

       1A    -15.611778     2A    -11.258921     3A    -11.253770
       4A    -11.252908     5A    -11.242642     6A    -11.241345
       7A    -11.241134     8A    -11.238633     9A    -11.238338
      10A    -11.212804    11A    -11.208627    12A     -1.305102
      13A     -1.156749    14A     -1.048626    15A     -1.039356
      16A     -1.017076    17A     -0.963776    18A     -0.837854
      19A     -0.832882    20A     -0.779952    21A     -0.768691
      22A     -0.736745    23A     -0.681081    24A     -0.635937
      25A     -0.629934    26A     -0.592756    27A     -0.588254
      28A     -0.585089    29A     -0.570956    30A     -0.548570
      31A     -0.535044    32A     -0.505770    33A     -0.501241
      34A     -0.494697    35A     -0.362489    36A     -0.348245
      37A     -0.341830    38A     -0.274205

  @DF-RHF Final Energy:  -438.50498844781299

   => Energetics <=

    Nuclear Repulsion Energy =            537.8412929663504656
    One-Electron Energy =               -1659.3249443846962095
    Two-Electron Energy =                 682.9786629705326959
    Total Energy =                       -438.5049884478130480
  Basis Set: (AUG-CC-PVTZ AUX)
    Blend: AUG-CC-PVTZ-RI
    Molecular point group: c1

    Geometry (in Angstrom), charge = 0, multiplicity = 1:

       Center              X                  Y                   Z               Mass
    ------------   -----------------  -----------------  -----------------  -----------------
         N            1.762593420109    -0.932046978959    -0.370415744353    14.003074004430
         C            1.003528020109     0.091598021041     0.025133355647    12.000000000000
         C           -0.455260979891     0.038627021041     0.016321355647    12.000000000000
         C            1.889417020109     1.085896021041     0.430942355647    12.000000000000
         C           -1.200647979891     1.194082021041    -0.272068644353    12.000000000000
         C           -1.140800979891    -1.157016978959     0.292157355647    12.000000000000
         C            3.107312020109    -0.677988978959    -0.279224644353    12.000000000000
         C            3.204865020109     0.602539021041     0.239073355647    12.000000000000
         C           -2.593988979891     1.156251021041    -0.271026644353    12.000000000000
         C           -2.534860979891    -1.196900978959     0.267578355647    12.000000000000
         C           -3.267094979891    -0.040798978959    -0.011543644353    12.000000000000
         H            1.394964020109    -1.802032978959    -0.833824644353     1.007825032230
         H            1.603126020109     2.037584021041     0.860946355647     1.007825032230
         H           -0.675770979891     2.117006021041    -0.509066644353     1.007825032230
         H           -0.579104979891    -2.049067978959     0.564803355647     1.007825032230
         H            3.867141020109    -1.386302978959    -0.579655644353     1.007825032230
         H            4.127089020109     1.120602021041     0.467913355647     1.007825032230
         H           -3.157296979891     2.059453021041    -0.494601644353     1.007825032230
         H           -3.051155979891    -2.129345978959     0.484782355647     1.007825032230
         H           -4.353868979891    -0.071011978959    -0.021973644353     1.007825032230

  Basis Set: AUG-CC-PVTZ
    Blend: AUG-CC-PVTZ
  Basis Set: (AUG-CC-PVTZ AUX)
    Blend: AUG-CC-PVTZ-JKFIT
	 Reference Energy          =    -438.5049884478129911 [Eh]
	 Singles Energy            =      -0.0000000000000000 [Eh]
	 Same-Spin Energy          =      -0.4958005679054709 [Eh]
	 Opposite-Spin Energy      =      -1.5255769062649240 [Eh]
	 Correlation Energy        =      -2.0213774741703947 [Eh]
	 Total Energy              =    -440.5263659219833698 [Eh]

	 ================> DF-SCS-MP2 Energies <==================
	-----------------------------------------------------------
	 SCS Same-Spin Scale       =       0.3333333333333333 [-]
	 SCS Opposite-Spin Scale   =       1.2000000000000000 [-]
	 SCS Same-Spin Energy      =      -0.1652668559684903 [Eh]
	 SCS Opposite-Spin Energy  =      -1.8306922875179088 [Eh]
	 SCS Correlation Energy    =      -1.9959591434863990 [Eh]
	 SCS Total Energy          =    -440.5009475912993935 [Eh]
	-----------------------------------------------------------

  Dipole Moment: [D]
     X:    -0.4991      Y:    -1.4213      Z:    -0.6862     Total:     1.6553

*** Psi4 exiting successfully. Buy a developer a beer!
