                               Psi4 1.3.2 release

  ==> Input File <==

--------------------------------------------------------------------------
#psi4
#
memory 32 gb

molecule  {
0 1
  N        1.7773000    -0.9706020    -0.3863220
  C        1.0080060     0.0962300     0.0271750
  C       -0.4096762     0.0692822     0.0122109
  C        1.8938950     1.0905280     0.4329840
  C       -1.1961700     1.1987140    -0.2700270
  C       -1.1363230    -1.1523850     0.2941990
  C        3.1117900    -0.6733570    -0.2771830
  C        3.2093430     0.6071710     0.2411150
  C       -2.5895110     1.1608830    -0.2689850
  C       -2.5303830    -1.1922690     0.2696200
  C       -3.2626170    -0.0361670    -0.0095020
  H        1.3994420    -1.7974010    -0.8317830
  H        1.6076040     2.0422160     0.8629880
  H       -0.6712930     2.1216380    -0.5070250
  H       -0.5746270    -2.0444360     0.5668450
  H        3.8716190    -1.3816710    -0.5776140
  H        4.1315670     1.1252340     0.4699550
  H       -3.1528190     2.0640850    -0.4925600
  H       -3.0466780    -2.1247140     0.4868240
  H       -4.3493910    -0.0663800    -0.0199320
units angstrom
no_reorient  #important for SAPT in psi4, default
symmetry c1  #important for SAPT in psi4, default
}

set PROPERTIES_ORIGIN ["COM"]
properties('MP2/aug-cc-pvtz', properties = ['dipole'])
--------------------------------------------------------------------------

    Molecular point group: c1
  Charge       = 0
  Multiplicity = 1
  Basis Set: AUG-CC-PVTZ
    Blend: AUG-CC-PVTZ
  Basis Set: (AUG-CC-PVTZ AUX)
    Blend: AUG-CC-PVTZ-JKFIT

    Orbital Energies [Eh]
    ---------------------

    Doubly Occupied:

       1A    -15.609558     2A    -11.260245     3A    -11.258570
       4A    -11.254171     5A    -11.244541     6A    -11.241015
       7A    -11.240355     8A    -11.237619     9A    -11.237340
      10A    -11.215173    11A    -11.214087    12A     -1.296070
      13A     -1.152140    14A     -1.053406    15A     -1.044037
      16A     -1.014156    17A     -0.958826    18A     -0.842258
      19A     -0.829229    20A     -0.789698    21A     -0.765861
      22A     -0.736577    23A     -0.680599    24A     -0.633800
      25A     -0.627570    26A     -0.594219    27A     -0.586649
      28A     -0.585326    29A     -0.571493    30A     -0.550317
      31A     -0.538117    32A     -0.508558    33A     -0.499645
      34A     -0.486780    35A     -0.365079    36A     -0.351267
      37A     -0.340089    38A     -0.270553

  @DF-RHF Final Energy:  -438.50447276773463

   => Energetics <=

    Nuclear Repulsion Energy =            536.8222172613769771
    One-Electron Energy =               -1657.2833908173975033
    Two-Electron Energy =                 681.9567007882860707
    Total Energy =                       -438.5044727677345691
  Basis Set: (AUG-CC-PVTZ AUX)
    Blend: AUG-CC-PVTZ-RI
    Molecular point group: c1

    Geometry (in Angstrom), charge = 0, multiplicity = 1:

       Center              X                  Y                   Z               Mass
    ------------   -----------------  -----------------  -----------------  -----------------
         N            1.768373163780    -0.973189768406    -0.386091029413    14.003074004430
         C            0.999079163780     0.093642231594     0.027405970587    12.000000000000
         C           -0.418603036220     0.066694431594     0.012441870587    12.000000000000
         C            1.884968163780     1.087940231594     0.433214970587    12.000000000000
         C           -1.205096836220     1.196126231594    -0.269796029413    12.000000000000
         C           -1.145249836220    -1.154972768406     0.294429970587    12.000000000000
         C            3.102863163780    -0.675944768406    -0.276952029413    12.000000000000
         C            3.200416163780     0.604583231594     0.241345970587    12.000000000000
         C           -2.598437836220     1.158295231594    -0.268754029413    12.000000000000
         C           -2.539309836220    -1.194856768406     0.269850970587    12.000000000000
         C           -3.271543836220    -0.038754768406    -0.009271029413    12.000000000000
         H            1.390515163780    -1.799988768406    -0.831552029413     1.007825032230
         H            1.598677163780     2.039628231594     0.863218970587     1.007825032230
         H           -0.680219836220     2.119050231594    -0.506794029413     1.007825032230
         H           -0.583553836220    -2.047023768406     0.567075970587     1.007825032230
         H            3.862692163780    -1.384258768406    -0.577383029413     1.007825032230
         H            4.122640163780     1.122646231594     0.470185970587     1.007825032230
         H           -3.161745836220     2.061497231594    -0.492329029413     1.007825032230
         H           -3.055604836220    -2.127301768406     0.487054970587     1.007825032230
         H           -4.358317836220    -0.068967768406    -0.019701029413     1.007825032230

  Basis Set: AUG-CC-PVTZ
    Blend: AUG-CC-PVTZ
  Basis Set: (AUG-CC-PVTZ AUX)
    Blend: AUG-CC-PVTZ-JKFIT
	 Reference Energy          =    -438.5044727677346259 [Eh]
	 Singles Energy            =      -0.0000000000000000 [Eh]
	 Same-Spin Energy          =      -0.4959603554624643 [Eh]
	 Opposite-Spin Energy      =      -1.5264569699820068 [Eh]
	 Correlation Energy        =      -2.0224173254444713 [Eh]
	 Total Energy              =    -440.5268900931790768 [Eh]

	 ================> DF-SCS-MP2 Energies <==================
	-----------------------------------------------------------
	 SCS Same-Spin Scale       =       0.3333333333333333 [-]
	 SCS Opposite-Spin Scale   =       1.2000000000000000 [-]
	 SCS Same-Spin Energy      =      -0.1653201184874881 [Eh]
	 SCS Opposite-Spin Energy  =      -1.8317483639784080 [Eh]
	 SCS Correlation Energy    =      -1.9970684824658962 [Eh]
	 SCS Total Energy          =    -440.5015412502005461 [Eh]
	-----------------------------------------------------------

  Dipole Moment: [D]
     X:    -0.3010      Y:    -1.3165      Z:    -0.6472     Total:     1.4976

*** Psi4 exiting successfully. Buy a developer a beer!
