                               Psi4 1.3.2 release

  ==> Input File <==

--------------------------------------------------------------------------
#psi4
#
memory 32 gb

molecule  {
0 1
  N        1.7773000    -0.9706020    -0.3863220
  C        1.0850062     0.0430865     0.0009260
  C       -0.4507830     0.0432590     0.0183630
  C        1.8938950     1.0905280     0.4329840
  C       -1.1961700     1.1987140    -0.2700270
  C       -1.1363230    -1.1523850     0.2941990
  C        3.1117900    -0.6733570    -0.2771830
  C        3.2093430     0.6071710     0.2411150
  C       -2.5895110     1.1608830    -0.2689850
  C       -2.5303830    -1.1922690     0.2696200
  C       -3.2626170    -0.0361670    -0.0095020
  H        1.3994420    -1.7974010    -0.8317830
  H        1.6076040     2.0422160     0.8629880
  H       -0.6712930     2.1216380    -0.5070250
  H       -0.5746270    -2.0444360     0.5668450
  H        3.8716190    -1.3816710    -0.5776140
  H        4.1315670     1.1252340     0.4699550
  H       -3.1528190     2.0640850    -0.4925600
  H       -3.0466780    -2.1247140     0.4868240
  H       -4.3493910    -0.0663800    -0.0199320
units angstrom
no_reorient  #important for SAPT in psi4, default
symmetry c1  #important for SAPT in psi4, default
}

set PROPERTIES_ORIGIN ["COM"]
properties('MP2/aug-cc-pvtz', properties = ['dipole'])
--------------------------------------------------------------------------

    Molecular point group: c1
  Charge       = 0
  Multiplicity = 1
  Basis Set: AUG-CC-PVTZ
    Blend: AUG-CC-PVTZ
  Basis Set: (AUG-CC-PVTZ AUX)
    Blend: AUG-CC-PVTZ-JKFIT

    Orbital Energies [Eh]
    ---------------------

    Doubly Occupied:

       1A    -15.612725     2A    -11.262036     3A    -11.257208
       4A    -11.248538     5A    -11.241903     6A    -11.241110
       7A    -11.240237     8A    -11.238542     9A    -11.237953
      10A    -11.214357    11A    -11.206062    12A     -1.324881
      13A     -1.154112    14A     -1.050624    15A     -1.038703
      16A     -1.016901    17A     -0.961752    18A     -0.831262
      19A     -0.829636    20A     -0.800191    21A     -0.775420
      22A     -0.731305    23A     -0.679178    24A     -0.632122
      25A     -0.628337    26A     -0.606950    27A     -0.593490
      28A     -0.586659    29A     -0.572932    30A     -0.550702
      31A     -0.531923    32A     -0.505189    33A     -0.496633
      34A     -0.486537    35A     -0.356531    36A     -0.353914
      37A     -0.341301    38A     -0.275819

  @DF-RHF Final Energy:  -438.49994760989017

   => Energetics <=

    Nuclear Repulsion Energy =            537.2562458122420139
    One-Electron Energy =               -1658.0850369642084843
    Two-Electron Energy =                 682.3288435420762426
    Total Energy =                       -438.4999476098902278
  Basis Set: (AUG-CC-PVTZ AUX)
    Blend: AUG-CC-PVTZ-RI
    Molecular point group: c1

    Geometry (in Angstrom), charge = 0, multiplicity = 1:

       Center              X                  Y                   Z               Mass
    ------------   -----------------  -----------------  -----------------  -----------------
         N            1.765362677547    -0.966549821773    -0.384405442626    14.003074004430
         C            1.073068877547     0.047138678227     0.002842557374    12.000000000000
         C           -0.462720322453     0.047311178227     0.020279557374    12.000000000000
         C            1.881957677547     1.094580178227     0.434900557374    12.000000000000
         C           -1.208107322453     1.202766178227    -0.268110442626    12.000000000000
         C           -1.148260322453    -1.148332821773     0.296115557374    12.000000000000
         C            3.099852677547    -0.669304821773    -0.275266442626    12.000000000000
         C            3.197405677547     0.611223178227     0.243031557374    12.000000000000
         C           -2.601448322453     1.164935178227    -0.267068442626    12.000000000000
         C           -2.542320322453    -1.188216821773     0.271536557374    12.000000000000
         C           -3.274554322453    -0.032114821773    -0.007585442626    12.000000000000
         H            1.387504677547    -1.793348821773    -0.829866442626     1.007825032230
         H            1.595666677547     2.046268178227     0.864904557374     1.007825032230
         H           -0.683230322453     2.125690178227    -0.505108442626     1.007825032230
         H           -0.586564322453    -2.040383821773     0.568761557374     1.007825032230
         H            3.859681677547    -1.377618821773    -0.575697442626     1.007825032230
         H            4.119629677547     1.129286178227     0.471871557374     1.007825032230
         H           -3.164756322453     2.068137178227    -0.490643442626     1.007825032230
         H           -3.058615322453    -2.120661821773     0.488740557374     1.007825032230
         H           -4.361328322453    -0.062327821773    -0.018015442626     1.007825032230

  Basis Set: AUG-CC-PVTZ
    Blend: AUG-CC-PVTZ
  Basis Set: (AUG-CC-PVTZ AUX)
    Blend: AUG-CC-PVTZ-JKFIT
	 Reference Energy          =    -438.4999476098901710 [Eh]
	 Singles Energy            =      -0.0000000000000000 [Eh]
	 Same-Spin Energy          =      -0.4944408729001316 [Eh]
	 Opposite-Spin Energy      =      -1.5232879042271268 [Eh]
	 Correlation Energy        =      -2.0177287771272585 [Eh]
	 Total Energy              =    -440.5176763870174454 [Eh]

	 ================> DF-SCS-MP2 Energies <==================
	-----------------------------------------------------------
	 SCS Same-Spin Scale       =       0.3333333333333333 [-]
	 SCS Opposite-Spin Scale   =       1.2000000000000000 [-]
	 SCS Same-Spin Energy      =      -0.1648136243000439 [Eh]
	 SCS Opposite-Spin Energy  =      -1.8279454850725521 [Eh]
	 SCS Correlation Energy    =      -1.9927591093725958 [Eh]
	 SCS Total Energy          =    -440.4927067192627419 [Eh]
	-----------------------------------------------------------

  Dipole Moment: [D]
     X:    -0.5190      Y:    -1.4033      Z:    -0.6924     Total:     1.6486

*** Psi4 exiting successfully. Buy a developer a beer!
