                               Psi4 1.3.2 release

  ==> Input File <==

--------------------------------------------------------------------------
#psi4
#
memory 32 gb

molecule  {
0 1
  N        1.7773000    -0.9706020    -0.3863220
  C        1.0080060     0.0962300     0.0271750
  C       -0.4507830     0.0432590     0.0183630
  C        1.8938950     1.0905280     0.4329840
  C       -1.1961700     1.1987140    -0.2700270
  C       -1.1363230    -1.1523850     0.2941990
  C        3.1117900    -0.6733570    -0.2771830
  C        3.2093430     0.6071710     0.2411150
  C       -2.5895110     1.1608830    -0.2689850
  C       -2.5303830    -1.1922690     0.2696200
  C       -3.2626170    -0.0361670    -0.0095020
  H        1.3994420    -1.7974010    -0.8317830
  H        1.6340425     1.9543291     0.8232778
  H       -0.6712930     2.1216380    -0.5070250
  H       -0.5746270    -2.0444360     0.5668450
  H        3.8716190    -1.3816710    -0.5776140
  H        4.1315670     1.1252340     0.4699550
  H       -3.1528190     2.0640850    -0.4925600
  H       -3.0466780    -2.1247140     0.4868240
  H       -4.3493910    -0.0663800    -0.0199320
units angstrom
no_reorient  #important for SAPT in psi4, default
symmetry c1  #important for SAPT in psi4, default
}

set PROPERTIES_ORIGIN ["COM"]
properties('MP2/aug-cc-pvtz', properties = ['dipole'])
--------------------------------------------------------------------------

    Molecular point group: c1
  Charge       = 0
  Multiplicity = 1
  Basis Set: AUG-CC-PVTZ
    Blend: AUG-CC-PVTZ
  Basis Set: (AUG-CC-PVTZ AUX)
    Blend: AUG-CC-PVTZ-JKFIT

    Orbital Energies [Eh]
    ---------------------

    Doubly Occupied:

       1A    -15.607746     2A    -11.261438     3A    -11.256002
       4A    -11.253262     5A    -11.242087     6A    -11.240838
       7A    -11.240517     8A    -11.238057     9A    -11.237766
      10A    -11.212630    11A    -11.201336    12A     -1.293566
      13A     -1.156230    14A     -1.050425    15A     -1.043538
      16A     -1.016915    17A     -0.960062    18A     -0.839708
      19A     -0.832369    20A     -0.792874    21A     -0.773386
      22A     -0.735461    23A     -0.679915    24A     -0.633708
      25A     -0.630747    26A     -0.598770    27A     -0.589447
      28A     -0.583549    29A     -0.569463    30A     -0.555237
      31A     -0.539795    32A     -0.504606    33A     -0.500713
      34A     -0.494512    35A     -0.363345    36A     -0.349744
      37A     -0.341451    38A     -0.273058

  @DF-RHF Final Energy:  -438.50279337112352

   => Energetics <=

    Nuclear Repulsion Energy =            537.3562090454582858
    One-Electron Energy =               -1658.3294553859591360
    Two-Electron Energy =                 682.4704529693772201
    Total Energy =                       -438.5027933711235164
  Basis Set: (AUG-CC-PVTZ AUX)
    Blend: AUG-CC-PVTZ-RI
    Molecular point group: c1

    Geometry (in Angstrom), charge = 0, multiplicity = 1:

       Center              X                  Y                   Z               Mass
    ------------   -----------------  -----------------  -----------------  -----------------
         N            1.771634677759    -0.970388040485    -0.386327301445    14.003074004430
         C            1.002340677759     0.096443959515     0.027169698555    12.000000000000
         C           -0.456448322241     0.043472959515     0.018357698555    12.000000000000
         C            1.888229677759     1.090741959515     0.432978698555    12.000000000000
         C           -1.201835322241     1.198927959515    -0.270032301445    12.000000000000
         C           -1.141988322241    -1.152171040485     0.294193698555    12.000000000000
         C            3.106124677759    -0.673143040485    -0.277188301445    12.000000000000
         C            3.203677677759     0.607384959515     0.241109698555    12.000000000000
         C           -2.595176322241     1.161096959515    -0.268990301445    12.000000000000
         C           -2.536048322241    -1.192055040485     0.269614698555    12.000000000000
         C           -3.268282322241    -0.035953040485    -0.009507301445    12.000000000000
         H            1.393776677759    -1.797187040485    -0.831788301445     1.007825032230
         H            1.628377177759     1.954543059515     0.823272498555     1.007825032230
         H           -0.676958322241     2.121851959515    -0.507030301445     1.007825032230
         H           -0.580292322241    -2.044222040485     0.566839698555     1.007825032230
         H            3.865953677759    -1.381457040485    -0.577619301445     1.007825032230
         H            4.125901677759     1.125447959515     0.469949698555     1.007825032230
         H           -3.158484322241     2.064298959515    -0.492565301445     1.007825032230
         H           -3.052343322241    -2.124500040485     0.486818698555     1.007825032230
         H           -4.355056322241    -0.066166040485    -0.019937301445     1.007825032230

  Basis Set: AUG-CC-PVTZ
    Blend: AUG-CC-PVTZ
  Basis Set: (AUG-CC-PVTZ AUX)
    Blend: AUG-CC-PVTZ-JKFIT
	 Reference Energy          =    -438.5027933711235164 [Eh]
	 Singles Energy            =      -0.0000000000000000 [Eh]
	 Same-Spin Energy          =      -0.4951068132046391 [Eh]
	 Opposite-Spin Energy      =      -1.5248084634995283 [Eh]
	 Correlation Energy        =      -2.0199152767041673 [Eh]
	 Total Energy              =    -440.5227086478276988 [Eh]

	 ================> DF-SCS-MP2 Energies <==================
	-----------------------------------------------------------
	 SCS Same-Spin Scale       =       0.3333333333333333 [-]
	 SCS Opposite-Spin Scale   =       1.2000000000000000 [-]
	 SCS Same-Spin Energy      =      -0.1650356044015464 [Eh]
	 SCS Opposite-Spin Energy  =      -1.8297701561994337 [Eh]
	 SCS Correlation Energy    =      -1.9948057606009801 [Eh]
	 SCS Total Energy          =    -440.4975991317244848 [Eh]
	-----------------------------------------------------------

  Dipole Moment: [D]
     X:    -0.4653      Y:    -1.3131      Z:    -0.6451     Total:     1.5353

*** Psi4 exiting successfully. Buy a developer a beer!
