                               Psi4 1.3.2 release

  ==> Input File <==

--------------------------------------------------------------------------
#psi4
#
memory 32 gb

molecule  {
0 1
  N        1.8176899    -1.0981526    -0.4383753
  C        1.0080060     0.0962300     0.0271750
  C       -0.4507830     0.0432590     0.0183630
  C        1.8938950     1.0905280     0.4329840
  C       -1.1961700     1.1987140    -0.2700270
  C       -1.1363230    -1.1523850     0.2941990
  C        3.1117900    -0.6733570    -0.2771830
  C        3.2093430     0.6071710     0.2411150
  C       -2.5895110     1.1608830    -0.2689850
  C       -2.5303830    -1.1922690     0.2696200
  C       -3.2626170    -0.0361670    -0.0095020
  H        1.3994420    -1.7974010    -0.8317830
  H        1.6076040     2.0422160     0.8629880
  H       -0.6712930     2.1216380    -0.5070250
  H       -0.5746270    -2.0444360     0.5668450
  H        3.8716190    -1.3816710    -0.5776140
  H        4.1315670     1.1252340     0.4699550
  H       -3.1528190     2.0640850    -0.4925600
  H       -3.0466780    -2.1247140     0.4868240
  H       -4.3493910    -0.0663800    -0.0199320
units angstrom
no_reorient  #important for SAPT in psi4, default
symmetry c1  #important for SAPT in psi4, default
}

set PROPERTIES_ORIGIN ["COM"]
properties('MP2/aug-cc-pvtz', properties = ['dipole'])
--------------------------------------------------------------------------

    Molecular point group: c1
  Charge       = 0
  Multiplicity = 1
  Basis Set: AUG-CC-PVTZ
    Blend: AUG-CC-PVTZ
  Basis Set: (AUG-CC-PVTZ AUX)
    Blend: AUG-CC-PVTZ-JKFIT

    Orbital Energies [Eh]
    ---------------------

    Doubly Occupied:

       1A    -15.597724     2A    -11.271195     3A    -11.268761
       4A    -11.252555     5A    -11.240744     6A    -11.239835
       7A    -11.238672     8A    -11.236741     9A    -11.236297
      10A    -11.226518    11A    -11.216069    12A     -1.271069
      13A     -1.155192    14A     -1.065150    15A     -1.041773
      16A     -1.016024    17A     -0.950661    18A     -0.845722
      19A     -0.830973    20A     -0.808929    21A     -0.754058
      22A     -0.731205    23A     -0.678296    24A     -0.636178
      25A     -0.627994    26A     -0.609654    27A     -0.588444
      28A     -0.561859    29A     -0.558411    30A     -0.552014
      31A     -0.536059    32A     -0.501127    33A     -0.499047
      34A     -0.492980    35A     -0.371960    36A     -0.352318
      37A     -0.340357    38A     -0.270738

  @DF-RHF Final Energy:  -438.47981943653053

   => Energetics <=

    Nuclear Repulsion Energy =            533.9735295219110185
    One-Electron Energy =               -1651.5600941270333806
    Two-Electron Energy =                 679.1067451685919423
    Total Energy =                       -438.4798194365305335
  Basis Set: (AUG-CC-PVTZ AUX)
    Blend: AUG-CC-PVTZ-RI
    Molecular point group: c1

    Geometry (in Angstrom), charge = 0, multiplicity = 1:

       Center              X                  Y                   Z               Mass
    ------------   -----------------  -----------------  -----------------  -----------------
         N            1.808257721008    -1.086073928419    -0.433565696646    14.003074004430
         C            0.998573821008     0.108308671581     0.031984603354    12.000000000000
         C           -0.460215178992     0.055337671581     0.023172603354    12.000000000000
         C            1.884462821008     1.102606671581     0.437793603354    12.000000000000
         C           -1.205602178992     1.210792671581    -0.265217396646    12.000000000000
         C           -1.145755178992    -1.140306328419     0.299008603354    12.000000000000
         C            3.102357821008    -0.661278328419    -0.272373396646    12.000000000000
         C            3.199910821008     0.619249671581     0.245924603354    12.000000000000
         C           -2.598943178992     1.172961671581    -0.264175396646    12.000000000000
         C           -2.539815178992    -1.180190328419     0.274429603354    12.000000000000
         C           -3.272049178992    -0.024088328419    -0.004692396646    12.000000000000
         H            1.390009821008    -1.785322328419    -0.826973396646     1.007825032230
         H            1.598171821008     2.054294671581     0.867797603354     1.007825032230
         H           -0.680725178992     2.133716671581    -0.502215396646     1.007825032230
         H           -0.584059178992    -2.032357328419     0.571654603354     1.007825032230
         H            3.862186821008    -1.369592328419    -0.572804396646     1.007825032230
         H            4.122134821008     1.137312671581     0.474764603354     1.007825032230
         H           -3.162251178992     2.076163671581    -0.487750396646     1.007825032230
         H           -3.056110178992    -2.112635328419     0.491633603354     1.007825032230
         H           -4.358823178992    -0.054301328419    -0.015122396646     1.007825032230

  Basis Set: AUG-CC-PVTZ
    Blend: AUG-CC-PVTZ
  Basis Set: (AUG-CC-PVTZ AUX)
    Blend: AUG-CC-PVTZ-JKFIT
	 Reference Energy          =    -438.4798194365305335 [Eh]
	 Singles Energy            =      -0.0000000000000000 [Eh]
	 Same-Spin Energy          =      -0.4943540917779453 [Eh]
	 Opposite-Spin Energy      =      -1.5266327752287712 [Eh]
	 Correlation Energy        =      -2.0209868670067164 [Eh]
	 Total Energy              =    -440.5008063035372743 [Eh]

	 ================> DF-SCS-MP2 Energies <==================
	-----------------------------------------------------------
	 SCS Same-Spin Scale       =       0.3333333333333333 [-]
	 SCS Opposite-Spin Scale   =       1.2000000000000000 [-]
	 SCS Same-Spin Energy      =      -0.1647846972593151 [Eh]
	 SCS Opposite-Spin Energy  =      -1.8319593302745254 [Eh]
	 SCS Correlation Energy    =      -1.9967440275338406 [Eh]
	 SCS Total Energy          =    -440.4765634640643839 [Eh]
	-----------------------------------------------------------

  Dipole Moment: [D]
     X:    -0.3894      Y:    -0.9781      Z:    -0.5164     Total:     1.1726

*** Psi4 exiting successfully. Buy a developer a beer!
