                               Psi4 1.3.2 release

  ==> Input File <==

--------------------------------------------------------------------------
#psi4
#
memory 32 gb

molecule  {
0 1
  N        1.7773000    -0.9706020    -0.3863220
  C        1.0069209     0.1209776     0.0212178
  C       -0.4507830     0.0432590     0.0183630
  C        1.8938950     1.0905280     0.4329840
  C       -1.1961700     1.1987140    -0.2700270
  C       -1.1363230    -1.1523850     0.2941990
  C        3.1117900    -0.6733570    -0.2771830
  C        3.2093430     0.6071710     0.2411150
  C       -2.5895110     1.1608830    -0.2689850
  C       -2.5303830    -1.1922690     0.2696200
  C       -3.2626170    -0.0361670    -0.0095020
  H        1.3994420    -1.7974010    -0.8317830
  H        1.6076040     2.0422160     0.8629880
  H       -0.6712930     2.1216380    -0.5070250
  H       -0.5746270    -2.0444360     0.5668450
  H        3.8716190    -1.3816710    -0.5776140
  H        4.1315670     1.1252340     0.4699550
  H       -3.1528190     2.0640850    -0.4925600
  H       -3.0466780    -2.1247140     0.4868240
  H       -4.3493910    -0.0663800    -0.0199320
units angstrom
no_reorient  #important for SAPT in psi4, default
symmetry c1  #important for SAPT in psi4, default
}

set PROPERTIES_ORIGIN ["COM"]
properties('MP2/aug-cc-pvtz', properties = ['dipole'])
--------------------------------------------------------------------------

    Molecular point group: c1
  Charge       = 0
  Multiplicity = 1
  Basis Set: AUG-CC-PVTZ
    Blend: AUG-CC-PVTZ
  Basis Set: (AUG-CC-PVTZ AUX)
    Blend: AUG-CC-PVTZ-JKFIT

    Orbital Energies [Eh]
    ---------------------

    Doubly Occupied:

       1A    -15.606171     2A    -11.261591     3A    -11.258001
       4A    -11.253152     5A    -11.242075     6A    -11.240677
       7A    -11.240403     8A    -11.237701     9A    -11.237294
      10A    -11.213661    11A    -11.212534    12A     -1.289450
      13A     -1.156021    14A     -1.050299    15A     -1.042201
      16A     -1.016668    17A     -0.959432    18A     -0.838110
      19A     -0.831994    20A     -0.787432    21A     -0.763592
      22A     -0.734993    23A     -0.679822    24A     -0.632969
      25A     -0.629634    26A     -0.593404    27A     -0.588760
      28A     -0.580267    29A     -0.567690    30A     -0.550078
      31A     -0.537949    32A     -0.504107    33A     -0.501082
      34A     -0.494687    35A     -0.364803    36A     -0.349697
      37A     -0.341216    38A     -0.274666

  @DF-RHF Final Energy:  -438.50846340603346

   => Energetics <=

    Nuclear Repulsion Energy =            536.7535874100600495
    One-Electron Energy =               -1657.1955334699007381
    Two-Electron Energy =                 681.9334826538071184
    Total Energy =                       -438.5084634060334565
  Basis Set: (AUG-CC-PVTZ AUX)
    Blend: AUG-CC-PVTZ-RI
    Molecular point group: c1

    Geometry (in Angstrom), charge = 0, multiplicity = 1:

       Center              X                  Y                   Z               Mass
    ------------   -----------------  -----------------  -----------------  -----------------
         N            1.771911923945    -0.973082780040    -0.386107376256    14.003074004430
         C            1.001532823945     0.118496819960     0.021432423744    12.000000000000
         C           -0.456171076055     0.040778219960     0.018577623744    12.000000000000
         C            1.888506923945     1.088047219960     0.433198623744    12.000000000000
         C           -1.201558076055     1.196233219960    -0.269812376256    12.000000000000
         C           -1.141711076055    -1.154865780040     0.294413623744    12.000000000000
         C            3.106401923945    -0.675837780040    -0.276968376256    12.000000000000
         C            3.203954923945     0.604690219960     0.241329623744    12.000000000000
         C           -2.594899076055     1.158402219960    -0.268770376256    12.000000000000
         C           -2.535771076055    -1.194749780040     0.269834623744    12.000000000000
         C           -3.268005076055    -0.038647780040    -0.009287376256    12.000000000000
         H            1.394053923945    -1.799881780040    -0.831568376256     1.007825032230
         H            1.602215923945     2.039735219960     0.863202623744     1.007825032230
         H           -0.676681076055     2.119157219960    -0.506810376256     1.007825032230
         H           -0.580015076055    -2.046916780040     0.567059623744     1.007825032230
         H            3.866230923945    -1.384151780040    -0.577399376256     1.007825032230
         H            4.126178923945     1.122753219960     0.470169623744     1.007825032230
         H           -3.158207076055     2.061604219960    -0.492345376256     1.007825032230
         H           -3.052066076055    -2.127194780040     0.487038623744     1.007825032230
         H           -4.354779076055    -0.068860780040    -0.019717376256     1.007825032230

  Basis Set: AUG-CC-PVTZ
    Blend: AUG-CC-PVTZ
  Basis Set: (AUG-CC-PVTZ AUX)
    Blend: AUG-CC-PVTZ-JKFIT
	 Reference Energy          =    -438.5084634060334565 [Eh]
	 Singles Energy            =      -0.0000000000000000 [Eh]
	 Same-Spin Energy          =      -0.4950524353523353 [Eh]
	 Opposite-Spin Energy      =      -1.5252766824067683 [Eh]
	 Correlation Energy        =      -2.0203291177591036 [Eh]
	 Total Energy              =    -440.5287925237925606 [Eh]

	 ================> DF-SCS-MP2 Energies <==================
	-----------------------------------------------------------
	 SCS Same-Spin Scale       =       0.3333333333333333 [-]
	 SCS Opposite-Spin Scale   =       1.2000000000000000 [-]
	 SCS Same-Spin Energy      =      -0.1650174784507784 [Eh]
	 SCS Opposite-Spin Energy  =      -1.8303320188881218 [Eh]
	 SCS Correlation Energy    =      -1.9953494973389003 [Eh]
	 SCS Total Energy          =    -440.5038129033723635 [Eh]
	-----------------------------------------------------------

  Dipole Moment: [D]
     X:    -0.4574      Y:    -1.2921      Z:    -0.6300     Total:     1.5085

*** Psi4 exiting successfully. Buy a developer a beer!
