                               Psi4 1.3.2 release

  ==> Input File <==

--------------------------------------------------------------------------
#psi4
#
memory 32 gb

molecule  {
0 1
  N        1.7773000    -0.9706020    -0.3863220
  C        1.0080060     0.0962300     0.0271750
  C       -0.4507830     0.0432590     0.0183630
  C        1.8938950     1.0905280     0.4329840
  C       -1.1961700     1.1987140    -0.2700270
  C       -1.1363230    -1.1523850     0.2941990
  C        3.1117900    -0.6733570    -0.2771830
  C        3.0644262     0.6087556     0.2442049
  C       -2.5895110     1.1608830    -0.2689850
  C       -2.5303830    -1.1922690     0.2696200
  C       -3.2626170    -0.0361670    -0.0095020
  H        1.3994420    -1.7974010    -0.8317830
  H        1.6076040     2.0422160     0.8629880
  H       -0.6712930     2.1216380    -0.5070250
  H       -0.5746270    -2.0444360     0.5668450
  H        3.8716190    -1.3816710    -0.5776140
  H        4.1315670     1.1252340     0.4699550
  H       -3.1528190     2.0640850    -0.4925600
  H       -3.0466780    -2.1247140     0.4868240
  H       -4.3493910    -0.0663800    -0.0199320
units angstrom
no_reorient  #important for SAPT in psi4, default
symmetry c1  #important for SAPT in psi4, default
}

set PROPERTIES_ORIGIN ["COM"]
properties('MP2/aug-cc-pvtz', properties = ['dipole'])
--------------------------------------------------------------------------

    Molecular point group: c1
  Charge       = 0
  Multiplicity = 1
  Basis Set: AUG-CC-PVTZ
    Blend: AUG-CC-PVTZ
  Basis Set: (AUG-CC-PVTZ AUX)
    Blend: AUG-CC-PVTZ-JKFIT

    Orbital Energies [Eh]
    ---------------------

    Doubly Occupied:

       1A    -15.612676     2A    -11.260743     3A    -11.252663
       4A    -11.250562     5A    -11.241592     6A    -11.240529
       7A    -11.239663     8A    -11.237383     9A    -11.237005
      10A    -11.211108    11A    -11.200983    12A     -1.303563
      13A     -1.155822    14A     -1.070880    15A     -1.046304
      16A     -1.016835    17A     -0.956911    18A     -0.842391
      19A     -0.831006    20A     -0.794696    21A     -0.756253
      22A     -0.734189    23A     -0.679555    24A     -0.633515
      25A     -0.630058    26A     -0.594157    27A     -0.589728
      28A     -0.586424    29A     -0.574236    30A     -0.567463
      31A     -0.513957    32A     -0.504532    33A     -0.496983
      34A     -0.486225    35A     -0.372096    36A     -0.360777
      37A     -0.341133    38A     -0.266015

  @DF-RHF Final Energy:  -438.47537347834191

   => Energetics <=

    Nuclear Repulsion Energy =            539.7284722999456790
    One-Electron Energy =               -1663.0264686059188080
    Two-Electron Energy =                 684.8226228276312213
    Total Energy =                       -438.4753734783419077
  Basis Set: (AUG-CC-PVTZ AUX)
    Blend: AUG-CC-PVTZ-RI
    Molecular point group: c1

    Geometry (in Angstrom), charge = 0, multiplicity = 1:

       Center              X                  Y                   Z               Mass
    ------------   -----------------  -----------------  -----------------  -----------------
         N            1.783975516494    -0.971140030324    -0.386866183446    14.003074004430
         C            1.014681516494     0.095691969676     0.026630816554    12.000000000000
         C           -0.444107483506     0.042720969676     0.017818816554    12.000000000000
         C            1.900570516494     1.089989969676     0.432439816554    12.000000000000
         C           -1.189494483506     1.198175969676    -0.270571183446    12.000000000000
         C           -1.129647483506    -1.152923030324     0.293654816554    12.000000000000
         C            3.118465516494    -0.673895030324    -0.277727183446    12.000000000000
         C            3.071101716494     0.608217569676     0.243660716554    12.000000000000
         C           -2.582835483506     1.160344969676    -0.269529183446    12.000000000000
         C           -2.523707483506    -1.192807030324     0.269075816554    12.000000000000
         C           -3.255941483506    -0.036705030324    -0.010046183446    12.000000000000
         H            1.406117516494    -1.797939030324    -0.832327183446     1.007825032230
         H            1.614279516494     2.041677969676     0.862443816554     1.007825032230
         H           -0.664617483506     2.121099969676    -0.507569183446     1.007825032230
         H           -0.567951483506    -2.044974030324     0.566300816554     1.007825032230
         H            3.878294516494    -1.382209030324    -0.578158183446     1.007825032230
         H            4.138242516494     1.124695969676     0.469410816554     1.007825032230
         H           -3.146143483506     2.063546969676    -0.493104183446     1.007825032230
         H           -3.040002483506    -2.125252030324     0.486279816554     1.007825032230
         H           -4.342715483506    -0.066918030324    -0.020476183446     1.007825032230

  Basis Set: AUG-CC-PVTZ
    Blend: AUG-CC-PVTZ
  Basis Set: (AUG-CC-PVTZ AUX)
    Blend: AUG-CC-PVTZ-JKFIT
	 Reference Energy          =    -438.4753734783419077 [Eh]
	 Singles Energy            =      -0.0000000000000000 [Eh]
	 Same-Spin Energy          =      -0.4976548345780791 [Eh]
	 Opposite-Spin Energy      =      -1.5280086240569879 [Eh]
	 Correlation Energy        =      -2.0256634586350670 [Eh]
	 Total Energy              =    -440.5010369369769592 [Eh]

	 ================> DF-SCS-MP2 Energies <==================
	-----------------------------------------------------------
	 SCS Same-Spin Scale       =       0.3333333333333333 [-]
	 SCS Opposite-Spin Scale   =       1.2000000000000000 [-]
	 SCS Same-Spin Energy      =      -0.1658849448593597 [Eh]
	 SCS Opposite-Spin Energy  =      -1.8336103488683855 [Eh]
	 SCS Correlation Energy    =      -1.9994952937277453 [Eh]
	 SCS Total Energy          =    -440.4748687720696694 [Eh]
	-----------------------------------------------------------

  Dipole Moment: [D]
     X:    -0.4116      Y:    -1.3333      Z:    -0.6590     Total:     1.5432

*** Psi4 exiting successfully. Buy a developer a beer!
