                               Psi4 1.3.2 release

  ==> Input File <==

--------------------------------------------------------------------------
#psi4
#
memory 32 gb

molecule  {
0 1
  N        1.7773000    -0.9706020    -0.3863220
  C        1.0080060     0.0962300     0.0271750
  C       -0.4507830     0.0432590     0.0183630
  C        1.8467429     0.9604658     0.3802370
  C       -1.1961700     1.1987140    -0.2700270
  C       -1.1363230    -1.1523850     0.2941990
  C        3.1117900    -0.6733570    -0.2771830
  C        3.2093430     0.6071710     0.2411150
  C       -2.5895110     1.1608830    -0.2689850
  C       -2.5303830    -1.1922690     0.2696200
  C       -3.2626170    -0.0361670    -0.0095020
  H        1.3994420    -1.7974010    -0.8317830
  H        1.6076040     2.0422160     0.8629880
  H       -0.6712930     2.1216380    -0.5070250
  H       -0.5746270    -2.0444360     0.5668450
  H        3.8716190    -1.3816710    -0.5776140
  H        4.1315670     1.1252340     0.4699550
  H       -3.1528190     2.0640850    -0.4925600
  H       -3.0466780    -2.1247140     0.4868240
  H       -4.3493910    -0.0663800    -0.0199320
units angstrom
no_reorient  #important for SAPT in psi4, default
symmetry c1  #important for SAPT in psi4, default
}

set PROPERTIES_ORIGIN ["COM"]
properties('MP2/aug-cc-pvtz', properties = ['dipole'])
--------------------------------------------------------------------------

    Molecular point group: c1
  Charge       = 0
  Multiplicity = 1
  Basis Set: AUG-CC-PVTZ
    Blend: AUG-CC-PVTZ
  Basis Set: (AUG-CC-PVTZ AUX)
    Blend: AUG-CC-PVTZ-JKFIT

    Orbital Energies [Eh]
    ---------------------

    Doubly Occupied:

       1A    -15.597982     2A    -11.259883     3A    -11.253569
       4A    -11.242478     5A    -11.242145     6A    -11.240895
       7A    -11.240667     8A    -11.238342     9A    -11.237987
      10A    -11.210296    11A    -11.206626    12A     -1.303241
      13A     -1.156431    14A     -1.057921    15A     -1.043536
      16A     -1.016929    17A     -0.971873    18A     -0.837614
      19A     -0.832941    20A     -0.789761    21A     -0.750802
      22A     -0.738046    23A     -0.682588    24A     -0.635992
      25A     -0.629925    26A     -0.591052    27A     -0.590969
      28A     -0.580882    29A     -0.575376    30A     -0.566002
      31A     -0.508636    32A     -0.504462    33A     -0.496537
      34A     -0.488549    35A     -0.370802    36A     -0.348023
      37A     -0.341198    38A     -0.287053

  @DF-RHF Final Energy:  -438.47984967743213

   => Energetics <=

    Nuclear Repulsion Energy =            539.8742564496258183
    One-Electron Energy =               -1663.3721940024090600
    Two-Electron Energy =                 685.0180878753510569
    Total Energy =                       -438.4798496774321848
  Basis Set: (AUG-CC-PVTZ AUX)
    Blend: AUG-CC-PVTZ-RI
    Molecular point group: c1

    Geometry (in Angstrom), charge = 0, multiplicity = 1:

       Center              X                  Y                   Z               Mass
    ------------   -----------------  -----------------  -----------------  -----------------
         N            1.775775700275    -0.960098421586    -0.382182976540    14.003074004430
         C            1.006481700275     0.106733578414     0.031314023460    12.000000000000
         C           -0.452307299725     0.053762578414     0.022502023460    12.000000000000
         C            1.845218600275     0.970969378414     0.384376023460    12.000000000000
         C           -1.197694299725     1.209217578414    -0.265887976540    12.000000000000
         C           -1.137847299725    -1.141881421586     0.298338023460    12.000000000000
         C            3.110265700275    -0.662853421586    -0.273043976540    12.000000000000
         C            3.207818700275     0.617674578414     0.245254023460    12.000000000000
         C           -2.591035299725     1.171386578414    -0.264845976540    12.000000000000
         C           -2.531907299725    -1.181765421586     0.273759023460    12.000000000000
         C           -3.264141299725    -0.025663421586    -0.005362976540    12.000000000000
         H            1.397917700275    -1.786897421586    -0.827643976540     1.007825032230
         H            1.606079700275     2.052719578414     0.867127023460     1.007825032230
         H           -0.672817299725     2.132141578414    -0.502885976540     1.007825032230
         H           -0.576151299725    -2.033932421586     0.570984023460     1.007825032230
         H            3.870094700275    -1.371167421586    -0.573474976540     1.007825032230
         H            4.130042700275     1.135737578414     0.474094023460     1.007825032230
         H           -3.154343299725     2.074588578414    -0.488420976540     1.007825032230
         H           -3.048202299725    -2.114210421586     0.490963023460     1.007825032230
         H           -4.350915299725    -0.055876421586    -0.015792976540     1.007825032230

  Basis Set: AUG-CC-PVTZ
    Blend: AUG-CC-PVTZ
  Basis Set: (AUG-CC-PVTZ AUX)
    Blend: AUG-CC-PVTZ-JKFIT
	 Reference Energy          =    -438.4798496774321279 [Eh]
	 Singles Energy            =      -0.0000000000000000 [Eh]
	 Same-Spin Energy          =      -0.4941194134948482 [Eh]
	 Opposite-Spin Energy      =      -1.5238837440762172 [Eh]
	 Correlation Energy        =      -2.0180031575710653 [Eh]
	 Total Energy              =    -440.4978528350031866 [Eh]

	 ================> DF-SCS-MP2 Energies <==================
	-----------------------------------------------------------
	 SCS Same-Spin Scale       =       0.3333333333333333 [-]
	 SCS Opposite-Spin Scale   =       1.2000000000000000 [-]
	 SCS Same-Spin Energy      =      -0.1647064711649494 [Eh]
	 SCS Opposite-Spin Energy  =      -1.8286604928914605 [Eh]
	 SCS Correlation Energy    =      -1.9933669640564098 [Eh]
	 SCS Total Energy          =    -440.4732166414885342 [Eh]
	-----------------------------------------------------------

  Dipole Moment: [D]
     X:    -0.5232      Y:    -1.2798      Z:    -0.6422     Total:     1.5245

*** Psi4 exiting successfully. Buy a developer a beer!
