                               Psi4 1.3.2 release

  ==> Input File <==

--------------------------------------------------------------------------
#psi4
#
memory 32 gb

molecule  {
0 1
  N        1.7773000    -0.9706020    -0.3863220
  C        1.0053917     0.1457015     0.0152598
  C       -0.4507830     0.0432590     0.0183630
  C        1.8938950     1.0905280     0.4329840
  C       -1.1961700     1.1987140    -0.2700270
  C       -1.1363230    -1.1523850     0.2941990
  C        3.1117900    -0.6733570    -0.2771830
  C        3.2093430     0.6071710     0.2411150
  C       -2.5895110     1.1608830    -0.2689850
  C       -2.5303830    -1.1922690     0.2696200
  C       -3.2626170    -0.0361670    -0.0095020
  H        1.3994420    -1.7974010    -0.8317830
  H        1.6076040     2.0422160     0.8629880
  H       -0.6712930     2.1216380    -0.5070250
  H       -0.5746270    -2.0444360     0.5668450
  H        3.8716190    -1.3816710    -0.5776140
  H        4.1315670     1.1252340     0.4699550
  H       -3.1528190     2.0640850    -0.4925600
  H       -3.0466780    -2.1247140     0.4868240
  H       -4.3493910    -0.0663800    -0.0199320
units angstrom
no_reorient  #important for SAPT in psi4, default
symmetry c1  #important for SAPT in psi4, default
}

set PROPERTIES_ORIGIN ["COM"]
properties('MP2/aug-cc-pvtz', properties = ['dipole'])
--------------------------------------------------------------------------

    Molecular point group: c1
  Charge       = 0
  Multiplicity = 1
  Basis Set: AUG-CC-PVTZ
    Blend: AUG-CC-PVTZ
  Basis Set: (AUG-CC-PVTZ AUX)
    Blend: AUG-CC-PVTZ-JKFIT

    Orbital Energies [Eh]
    ---------------------

    Doubly Occupied:

       1A    -15.604039     2A    -11.261173     3A    -11.259344
       4A    -11.253161     5A    -11.242172     6A    -11.240848
       7A    -11.240170     8A    -11.237568     9A    -11.236889
      10A    -11.213528    11A    -11.212142    12A     -1.284883
      13A     -1.155930    14A     -1.051861    15A     -1.041453
      16A     -1.016589    17A     -0.959637    18A     -0.838464
      19A     -0.831773    20A     -0.786397    21A     -0.762140
      22A     -0.734653    23A     -0.679739    24A     -0.632879
      25A     -0.629602    26A     -0.593560    27A     -0.588778
      28A     -0.577278    29A     -0.566133    30A     -0.550294
      31A     -0.538827    32A     -0.503660    33A     -0.501524
      34A     -0.494541    35A     -0.366417    36A     -0.349082
      37A     -0.341121    38A     -0.275826

  @DF-RHF Final Energy:  -438.50689942876687

   => Energetics <=

    Nuclear Repulsion Energy =            536.6733943044162061
    One-Electron Energy =               -1657.0524351227431907
    Two-Electron Energy =                 681.8721413895600563
    Total Energy =                       -438.5068994287669284
  Basis Set: (AUG-CC-PVTZ AUX)
    Blend: AUG-CC-PVTZ-RI
    Molecular point group: c1

    Geometry (in Angstrom), charge = 0, multiplicity = 1:

       Center              X                  Y                   Z               Mass
    ------------   -----------------  -----------------  -----------------  -----------------
         N            1.772040182499    -0.975156447081    -0.385607661072    14.003074004430
         C            1.000131882499     0.141147052919     0.015974138928    12.000000000000
         C           -0.456042817501     0.038704552919     0.019077338928    12.000000000000
         C            1.888635182499     1.085973552919     0.433698338928    12.000000000000
         C           -1.201429817501     1.194159552919    -0.269312661072    12.000000000000
         C           -1.141582817501    -1.156939447081     0.294913338928    12.000000000000
         C            3.106530182499    -0.677911447081    -0.276468661072    12.000000000000
         C            3.204083182499     0.602616552919     0.241829338928    12.000000000000
         C           -2.594770817501     1.156328552919    -0.268270661072    12.000000000000
         C           -2.535642817501    -1.196823447081     0.270334338928    12.000000000000
         C           -3.267876817501    -0.040721447081    -0.008787661072    12.000000000000
         H            1.394182182499    -1.801955447081    -0.831068661072     1.007825032230
         H            1.602344182499     2.037661552919     0.863702338928     1.007825032230
         H           -0.676552817501     2.117083552919    -0.506310661072     1.007825032230
         H           -0.579886817501    -2.048990447081     0.567559338928     1.007825032230
         H            3.866359182499    -1.386225447081    -0.576899661072     1.007825032230
         H            4.126307182499     1.120679552919     0.470669338928     1.007825032230
         H           -3.158078817501     2.059530552919    -0.491845661072     1.007825032230
         H           -3.051937817501    -2.129268447081     0.487538338928     1.007825032230
         H           -4.354650817501    -0.070934447081    -0.019217661072     1.007825032230

  Basis Set: AUG-CC-PVTZ
    Blend: AUG-CC-PVTZ
  Basis Set: (AUG-CC-PVTZ AUX)
    Blend: AUG-CC-PVTZ-JKFIT
	 Reference Energy          =    -438.5068994287668716 [Eh]
	 Singles Energy            =      -0.0000000000000000 [Eh]
	 Same-Spin Energy          =      -0.4948747755949867 [Eh]
	 Opposite-Spin Energy      =      -1.5252804328187199 [Eh]
	 Correlation Energy        =      -2.0201552084137067 [Eh]
	 Total Energy              =    -440.5270546371805835 [Eh]

	 ================> DF-SCS-MP2 Energies <==================
	-----------------------------------------------------------
	 SCS Same-Spin Scale       =       0.3333333333333333 [-]
	 SCS Opposite-Spin Scale   =       1.2000000000000000 [-]
	 SCS Same-Spin Energy      =      -0.1649582585316622 [Eh]
	 SCS Opposite-Spin Energy  =      -1.8303365193824639 [Eh]
	 SCS Correlation Energy    =      -1.9952947779141261 [Eh]
	 SCS Total Energy          =    -440.5021942066809970 [Eh]
	-----------------------------------------------------------

  Dipole Moment: [D]
     X:    -0.4651      Y:    -1.2644      Z:    -0.6123     Total:     1.4799

*** Psi4 exiting successfully. Buy a developer a beer!
