                               Psi4 1.3.2 release

  ==> Input File <==

--------------------------------------------------------------------------
#psi4
#
memory 32 gb

molecule  {
0 1
  N        1.7773000    -0.9706020    -0.3863220
  C        1.0850765     0.0413013     0.0051468
  C       -0.4507830     0.0432590     0.0183630
  C        1.8938950     1.0905280     0.4329840
  C       -1.1961700     1.1987140    -0.2700270
  C       -1.1363230    -1.1523850     0.2941990
  C        3.1117900    -0.6733570    -0.2771830
  C        3.2093430     0.6071710     0.2411150
  C       -2.5895110     1.1608830    -0.2689850
  C       -2.5303830    -1.1922690     0.2696200
  C       -3.2626170    -0.0361670    -0.0095020
  H        1.3994420    -1.7974010    -0.8317830
  H        1.6076040     2.0422160     0.8629880
  H       -0.6712930     2.1216380    -0.5070250
  H       -0.5746270    -2.0444360     0.5668450
  H        3.8716190    -1.3816710    -0.5776140
  H        4.1315670     1.1252340     0.4699550
  H       -3.1528190     2.0640850    -0.4925600
  H       -3.0466780    -2.1247140     0.4868240
  H       -4.3493910    -0.0663800    -0.0199320
units angstrom
no_reorient  #important for SAPT in psi4, default
symmetry c1  #important for SAPT in psi4, default
}

set PROPERTIES_ORIGIN ["COM"]
properties('MP2/aug-cc-pvtz', properties = ['dipole'])
--------------------------------------------------------------------------

    Molecular point group: c1
  Charge       = 0
  Multiplicity = 1
  Basis Set: AUG-CC-PVTZ
    Blend: AUG-CC-PVTZ
  Basis Set: (AUG-CC-PVTZ AUX)
    Blend: AUG-CC-PVTZ-JKFIT

    Orbital Energies [Eh]
    ---------------------

    Doubly Occupied:

       1A    -15.612739     2A    -11.262034     3A    -11.257210
       4A    -11.248498     5A    -11.241896     6A    -11.241136
       7A    -11.240222     8A    -11.238592     9A    -11.237974
      10A    -11.214346    11A    -11.206004    12A     -1.324929
      13A     -1.154123    14A     -1.050616    15A     -1.038709
      16A     -1.016914    17A     -0.961754    18A     -0.831285
      19A     -0.829630    20A     -0.800226    21A     -0.775429
      22A     -0.731305    23A     -0.679182    24A     -0.632157
      25A     -0.628335    26A     -0.606989    27A     -0.593483
      28A     -0.586620    29A     -0.573017    30A     -0.550674
      31A     -0.531915    32A     -0.505132    33A     -0.496707
      34A     -0.486486    35A     -0.356530    36A     -0.353884
      37A     -0.341309    38A     -0.275835

  @DF-RHF Final Energy:  -438.49992657549740

   => Energetics <=

    Nuclear Repulsion Energy =            537.2587672405621788
    One-Electron Energy =               -1658.0897404604572785
    Two-Electron Energy =                 682.3310466443975884
    Total Energy =                       -438.4999265754973976
  Basis Set: (AUG-CC-PVTZ AUX)
    Blend: AUG-CC-PVTZ-RI
    Molecular point group: c1

    Geometry (in Angstrom), charge = 0, multiplicity = 1:

       Center              X                  Y                   Z               Mass
    ------------   -----------------  -----------------  -----------------  -----------------
         N            1.765356781277    -0.966400091738    -0.384759453678    14.003074004430
         C            1.073133281277     0.045503208262     0.006709346322    12.000000000000
         C           -0.462726218723     0.047460908262     0.019925546322    12.000000000000
         C            1.881951781277     1.094729908262     0.434546546322    12.000000000000
         C           -1.208113218723     1.202915908262    -0.268464453678    12.000000000000
         C           -1.148266218723    -1.148183091738     0.295761546322    12.000000000000
         C            3.099846781277    -0.669155091738    -0.275620453678    12.000000000000
         C            3.197399781277     0.611372908262     0.242677546322    12.000000000000
         C           -2.601454218723     1.165084908262    -0.267422453678    12.000000000000
         C           -2.542326218723    -1.188067091738     0.271182546322    12.000000000000
         C           -3.274560218723    -0.031965091738    -0.007939453678    12.000000000000
         H            1.387498781277    -1.793199091738    -0.830220453678     1.007825032230
         H            1.595660781277     2.046417908262     0.864550546322     1.007825032230
         H           -0.683236218723     2.125839908262    -0.505462453678     1.007825032230
         H           -0.586570218723    -2.040234091738     0.568407546322     1.007825032230
         H            3.859675781277    -1.377469091738    -0.576051453678     1.007825032230
         H            4.119623781277     1.129435908262     0.471517546322     1.007825032230
         H           -3.164762218723     2.068286908262    -0.490997453678     1.007825032230
         H           -3.058621218723    -2.120512091738     0.488386546322     1.007825032230
         H           -4.361334218723    -0.062178091738    -0.018369453678     1.007825032230

  Basis Set: AUG-CC-PVTZ
    Blend: AUG-CC-PVTZ
  Basis Set: (AUG-CC-PVTZ AUX)
    Blend: AUG-CC-PVTZ-JKFIT
	 Reference Energy          =    -438.4999265754973976 [Eh]
	 Singles Energy            =      -0.0000000000000000 [Eh]
	 Same-Spin Energy          =      -0.4944388514642368 [Eh]
	 Opposite-Spin Energy      =      -1.5232829163441071 [Eh]
	 Correlation Energy        =      -2.0177217678083439 [Eh]
	 Total Energy              =    -440.5176483433057228 [Eh]

	 ================> DF-SCS-MP2 Energies <==================
	-----------------------------------------------------------
	 SCS Same-Spin Scale       =       0.3333333333333333 [-]
	 SCS Opposite-Spin Scale   =       1.2000000000000000 [-]
	 SCS Same-Spin Energy      =      -0.1648129504880789 [Eh]
	 SCS Opposite-Spin Energy  =      -1.8279394996129283 [Eh]
	 SCS Correlation Energy    =      -1.9927524501010072 [Eh]
	 SCS Total Energy          =    -440.4926790255984201 [Eh]
	-----------------------------------------------------------

  Dipole Moment: [D]
     X:    -0.5212      Y:    -1.4034      Z:    -0.6935     Total:     1.6499

*** Psi4 exiting successfully. Buy a developer a beer!
