                               Psi4 1.3.2 release

  ==> Input File <==

--------------------------------------------------------------------------
#psi4
#
memory 32 gb

molecule  {
0 1
  N        1.7773000    -0.9706020    -0.3863220
  C        1.0080060     0.0962300     0.0271750
  C       -0.4507830     0.0432590     0.0183630
  C        1.8938950     1.0905280     0.4329840
  C       -1.1961700     1.1987140    -0.2700270
  C       -1.1363230    -1.1523850     0.2941990
  C        3.1117900    -0.6733570    -0.2771830
  C        3.3054581     0.5983129     0.2358956
  C       -2.5895110     1.1608830    -0.2689850
  C       -2.5303830    -1.1922690     0.2696200
  C       -3.2626170    -0.0361670    -0.0095020
  H        1.3994420    -1.7974010    -0.8317830
  H        1.6076040     2.0422160     0.8629880
  H       -0.6712930     2.1216380    -0.5070250
  H       -0.5746270    -2.0444360     0.5668450
  H        3.8716190    -1.3816710    -0.5776140
  H        4.1315670     1.1252340     0.4699550
  H       -3.1528190     2.0640850    -0.4925600
  H       -3.0466780    -2.1247140     0.4868240
  H       -4.3493910    -0.0663800    -0.0199320
units angstrom
no_reorient  #important for SAPT in psi4, default
symmetry c1  #important for SAPT in psi4, default
}

set PROPERTIES_ORIGIN ["COM"]
properties('MP2/aug-cc-pvtz', properties = ['dipole'])
--------------------------------------------------------------------------

    Molecular point group: c1
  Charge       = 0
  Multiplicity = 1
  Basis Set: AUG-CC-PVTZ
    Blend: AUG-CC-PVTZ
  Basis Set: (AUG-CC-PVTZ AUX)
    Blend: AUG-CC-PVTZ-JKFIT

    Orbital Energies [Eh]
    ---------------------

    Doubly Occupied:

       1A    -15.606447     2A    -11.263973     3A    -11.262071
       4A    -11.253962     5A    -11.242604     6A    -11.241332
       7A    -11.241068     8A    -11.238643     9A    -11.238329
      10A    -11.220226    11A    -11.215847    12A     -1.290485
      13A     -1.156703    14A     -1.048562    15A     -1.032285
      16A     -1.016614    17A     -0.961099    18A     -0.837384
      19A     -0.833009    20A     -0.793360    21A     -0.767179
      22A     -0.734502    23A     -0.679834    24A     -0.634071
      25A     -0.629818    26A     -0.606529    27A     -0.590599
      28A     -0.582071    29A     -0.567624    30A     -0.563073
      31A     -0.515351    32A     -0.505004    33A     -0.498016
      34A     -0.493422    35A     -0.364612    36A     -0.341898
      37A     -0.340207    38A     -0.278452

  @DF-RHF Final Energy:  -438.49861026795492

   => Energetics <=

    Nuclear Repulsion Energy =            535.1352794531517247
    One-Electron Energy =               -1653.8952514938353033
    Two-Electron Energy =                 680.2613617727287192
    Total Energy =                       -438.4986102679548594
  Basis Set: (AUG-CC-PVTZ AUX)
    Blend: AUG-CC-PVTZ-RI
    Molecular point group: c1

    Geometry (in Angstrom), charge = 0, multiplicity = 1:

       Center              X                  Y                   Z               Mass
    ------------   -----------------  -----------------  -----------------  -----------------
         N            1.763759454021    -0.970264170011    -0.386169257737    14.003074004430
         C            0.994465454021     0.096567829989     0.027327742263    12.000000000000
         C           -0.464323545979     0.043596829989     0.018515742263    12.000000000000
         C            1.880354454021     1.090865829989     0.433136742263    12.000000000000
         C           -1.209710545979     1.199051829989    -0.269874257737    12.000000000000
         C           -1.149863545979    -1.152047170011     0.294351742263    12.000000000000
         C            3.098249454021    -0.673019170011    -0.277030257737    12.000000000000
         C            3.291917554021     0.598650729989     0.236048342263    12.000000000000
         C           -2.603051545979     1.161220829989    -0.268832257737    12.000000000000
         C           -2.543923545979    -1.191931170011     0.269772742263    12.000000000000
         C           -3.276157545979    -0.035829170011    -0.009349257737    12.000000000000
         H            1.385901454021    -1.797063170011    -0.831630257737     1.007825032230
         H            1.594063454021     2.042553829989     0.863140742263     1.007825032230
         H           -0.684833545979     2.121975829989    -0.506872257737     1.007825032230
         H           -0.588167545979    -2.044098170011     0.566997742263     1.007825032230
         H            3.858078454021    -1.381333170011    -0.577461257737     1.007825032230
         H            4.118026454021     1.125571829989     0.470107742263     1.007825032230
         H           -3.166359545979     2.064422829989    -0.492407257737     1.007825032230
         H           -3.060218545979    -2.124376170011     0.486976742263     1.007825032230
         H           -4.362931545979    -0.066042170011    -0.019779257737     1.007825032230

  Basis Set: AUG-CC-PVTZ
    Blend: AUG-CC-PVTZ
  Basis Set: (AUG-CC-PVTZ AUX)
    Blend: AUG-CC-PVTZ-JKFIT
	 Reference Energy          =    -438.4986102679549163 [Eh]
	 Singles Energy            =      -0.0000000000000000 [Eh]
	 Same-Spin Energy          =      -0.4941704121378089 [Eh]
	 Opposite-Spin Energy      =      -1.5252376870646263 [Eh]
	 Correlation Energy        =      -2.0194080992024350 [Eh]
	 Total Energy              =    -440.5180183671573673 [Eh]

	 ================> DF-SCS-MP2 Energies <==================
	-----------------------------------------------------------
	 SCS Same-Spin Scale       =       0.3333333333333333 [-]
	 SCS Opposite-Spin Scale   =       1.2000000000000000 [-]
	 SCS Same-Spin Energy      =      -0.1647234707126030 [Eh]
	 SCS Opposite-Spin Energy  =      -1.8302852244775514 [Eh]
	 SCS Correlation Energy    =      -1.9950086951901542 [Eh]
	 SCS Total Energy          =    -440.4936189631450816 [Eh]
	-----------------------------------------------------------

  Dipole Moment: [D]
     X:    -0.5396      Y:    -1.3201      Z:    -0.6439     Total:     1.5647

*** Psi4 exiting successfully. Buy a developer a beer!
