                               Psi4 1.4a3.dev225

  ==> Input File <==

--------------------------------------------------------------------------
#psi4
#
memory 32 gb

molecule  {
0 1
  N        1.7773000    -0.9706020    -0.3863220
  C        1.0080060     0.0962300     0.0271750
  C       -0.4507830     0.0432590     0.0183630
  C        1.8938950     1.0905280     0.4329840
  C       -1.1961700     1.1987140    -0.2700270
  C       -1.1363230    -1.1523850     0.2941990
  C        3.1117900    -0.6733570    -0.2771830
  C        3.2093430     0.6071710     0.2411150
  C       -2.5895110     1.1608830    -0.2689850
  C       -2.5303830    -1.1922690     0.2696200
  C       -3.2626170    -0.0361670    -0.0095020
  H        1.3994420    -1.7974010    -0.8317830
  H        1.6208233     1.9982726     0.8431329
  H       -0.6712930     2.1216380    -0.5070250
  H       -0.5746270    -2.0444360     0.5668450
  H        3.8716190    -1.3816710    -0.5776140
  H        4.1315670     1.1252340     0.4699550
  H       -3.1528190     2.0640850    -0.4925600
  H       -3.0466780    -2.1247140     0.4868240
  H       -4.3493910    -0.0663800    -0.0199320
units angstrom
no_reorient  #important for SAPT in psi4, default
symmetry c1  #important for SAPT in psi4, default
}

set PROPERTIES_ORIGIN ["COM"]
properties('MP2/aug-cc-pvtz', properties = ['dipole'])
--------------------------------------------------------------------------

    Molecular point group: c1
  Charge       = 0
  Multiplicity = 1
  Basis Set: AUG-CC-PVTZ
    Blend: AUG-CC-PVTZ
  Basis Set: (AUG-CC-PVTZ AUX)
    Blend: AUG-CC-PVTZ-JKFIT

    Orbital Energies [Eh]
    ---------------------

    Doubly Occupied:

       1A    -15.607990     2A    -11.261733     3A    -11.256296
       4A    -11.253238     5A    -11.242045     6A    -11.240776
       7A    -11.240490     8A    -11.237989     9A    -11.237711
      10A    -11.213059    11A    -11.207322    12A     -1.293839
      13A     -1.156186    14A     -1.049525    15A     -1.043197
      16A     -1.016841    17A     -0.959574    18A     -0.838604
      19A     -0.832285    20A     -0.790125    21A     -0.769397
      22A     -0.735397    23A     -0.679895    24A     -0.633394
      25A     -0.630193    26A     -0.595807    27A     -0.589190
      28A     -0.583291    29A     -0.569357    30A     -0.552374
      31A     -0.538940    32A     -0.504588    33A     -0.500746
      34A     -0.494442    35A     -0.363383    36A     -0.349958
      37A     -0.341392    38A     -0.273200

  @DF-RHF Final Energy:  -438.50804559214242

   => Energetics <=

    Nuclear Repulsion Energy =            537.0846754051443668
    One-Electron Energy =               -1657.8179010102724078
    Two-Electron Energy =                 682.2251800129857884
    Total Energy =                       -438.5080455921423663
  Basis Set: (AUG-CC-PVTZ AUX)
    Blend: AUG-CC-PVTZ-RI
    Molecular point group: c1

    Geometry (in Angstrom), charge = 0, multiplicity = 1:

       Center              X                  Y                   Z               Mass
    ------------   -----------------  -----------------  -----------------  -----------------
         N            1.771727795217    -0.970697583199    -0.386467162894    14.003074004430
         C            1.002433795217     0.096134416801     0.027029837106    12.000000000000
         C           -0.456355204783     0.043163416801     0.018217837106    12.000000000000
         C            1.888322795217     1.090432416801     0.432838837106    12.000000000000
         C           -1.201742204783     1.198618416801    -0.270172162894    12.000000000000
         C           -1.141895204783    -1.152480583199     0.294053837106    12.000000000000
         C            3.106217795217    -0.673452583199    -0.277328162894    12.000000000000
         C            3.203770795217     0.607075416801     0.240969837106    12.000000000000
         C           -2.595083204783     1.160787416801    -0.269130162894    12.000000000000
         C           -2.535955204783    -1.192364583199     0.269474837106    12.000000000000
         C           -3.268189204783    -0.036262583199    -0.009647162894    12.000000000000
         H            1.393869795217    -1.797496583199    -0.831928162894     1.007825032230
         H            1.615251095217     1.998177016801     0.842987737106     1.007825032230
         H           -0.676865204783     2.121542416801    -0.507170162894     1.007825032230
         H           -0.580199204783    -2.044531583199     0.566699837106     1.007825032230
         H            3.866046795217    -1.381766583199    -0.577759162894     1.007825032230
         H            4.125994795217     1.125138416801     0.469809837106     1.007825032230
         H           -3.158391204783     2.063989416801    -0.492705162894     1.007825032230
         H           -3.052250204783    -2.124809583199     0.486678837106     1.007825032230
         H           -4.354963204783    -0.066475583199    -0.020077162894     1.007825032230

  Basis Set: AUG-CC-PVTZ
    Blend: AUG-CC-PVTZ
  Basis Set: (AUG-CC-PVTZ AUX)
    Blend: AUG-CC-PVTZ-JKFIT
	 Reference Energy          =    -438.5080455921424232 [Eh]
	 Singles Energy            =      -0.0000000000000000 [Eh]
	 Same-Spin Energy          =      -0.4951708535772827 [Eh]
	 Opposite-Spin Energy      =      -1.5250136777569627 [Eh]
	 Correlation Energy        =      -2.0201845313342455 [Eh]
	 Total Energy              =    -440.5282301234766464 [Eh]

	 ================> DF-SCS-MP2 Energies <==================
	-----------------------------------------------------------
	 SCS Same-Spin Scale       =       0.3333333333333333 [-]
	 SCS Opposite-Spin Scale   =       1.2000000000000000 [-]
	 SCS Same-Spin Energy      =      -0.1650569511924276 [Eh]
	 SCS Opposite-Spin Energy  =      -1.8300164133083552 [Eh]
	 SCS Correlation Energy    =      -1.9950733645007828 [Eh]
	 SCS Total Energy          =    -440.5031189566432204 [Eh]
	-----------------------------------------------------------

  Dipole Moment: [D]
     X:    -0.4583      Y:    -1.3149      Z:    -0.6458     Total:     1.5349

*** Psi4 exiting successfully. Buy a developer a beer!
