                               Psi4 1.3.2 release

  ==> Input File <==

--------------------------------------------------------------------------
#psi4
#
memory 32 gb

molecule  {
0 1
  N        1.7773000    -0.9706020    -0.3863220
  C        1.0080060     0.0962300     0.0271750
  C       -0.4507830     0.0432590     0.0183630
  C        1.8938950     1.0905280     0.4329840
  C       -1.1961700     1.1987140    -0.2700270
  C       -1.1363230    -1.1523850     0.2941990
  C        3.0636476    -0.6690560    -0.2764938
  C        3.2093430     0.6071710     0.2411150
  C       -2.5895110     1.1608830    -0.2689850
  C       -2.5303830    -1.1922690     0.2696200
  C       -3.2626170    -0.0361670    -0.0095020
  H        1.3994420    -1.7974010    -0.8317830
  H        1.6076040     2.0422160     0.8629880
  H       -0.6712930     2.1216380    -0.5070250
  H       -0.5746270    -2.0444360     0.5668450
  H        3.8716190    -1.3816710    -0.5776140
  H        4.1315670     1.1252340     0.4699550
  H       -3.1528190     2.0640850    -0.4925600
  H       -3.0466780    -2.1247140     0.4868240
  H       -4.3493910    -0.0663800    -0.0199320
units angstrom
no_reorient  #important for SAPT in psi4, default
symmetry c1  #important for SAPT in psi4, default
}

set PROPERTIES_ORIGIN ["COM"]
properties('MP2/aug-cc-pvtz', properties = ['dipole'])
--------------------------------------------------------------------------

    Molecular point group: c1
  Charge       = 0
  Multiplicity = 1
  Basis Set: AUG-CC-PVTZ
    Blend: AUG-CC-PVTZ
  Basis Set: (AUG-CC-PVTZ AUX)
    Blend: AUG-CC-PVTZ-JKFIT

    Orbital Energies [Eh]
    ---------------------

    Doubly Occupied:

       1A    -15.611017     2A    -11.258520     3A    -11.257733
       4A    -11.252557     5A    -11.241364     6A    -11.240002
       7A    -11.239509     8A    -11.236703     9A    -11.236462
      10A    -11.214405    11A    -11.210198    12A     -1.309101
      13A     -1.155696    14A     -1.051805    15A     -1.043542
      16A     -1.016121    17A     -0.958409    18A     -0.835519
      19A     -0.832026    20A     -0.793844    21A     -0.768229
      22A     -0.733265    23A     -0.678874    24A     -0.633059
      25A     -0.629523    26A     -0.599200    27A     -0.590416
      28A     -0.579930    29A     -0.575531    30A     -0.552156
      31A     -0.527997    32A     -0.504086    33A     -0.500083
      34A     -0.493602    35A     -0.365108    36A     -0.350342
      37A     -0.340701    38A     -0.271478

  @DF-RHF Final Energy:  -438.50653321038635

   => Energetics <=

    Nuclear Repulsion Energy =            537.8572212064066207
    One-Electron Energy =               -1659.3512790567153843
    Two-Electron Energy =                 682.9875246399224125
    Total Energy =                       -438.5065332103863511
  Basis Set: (AUG-CC-PVTZ AUX)
    Blend: AUG-CC-PVTZ-RI
    Molecular point group: c1

    Geometry (in Angstrom), charge = 0, multiplicity = 1:

       Center              X                  Y                   Z               Mass
    ------------   -----------------  -----------------  -----------------  -----------------
         N            1.775858759682    -0.971367862873    -0.386664829596    14.003074004430
         C            1.006564759682     0.095464137127     0.026832170404    12.000000000000
         C           -0.452224240318     0.042493137127     0.018020170404    12.000000000000
         C            1.892453759682     1.089762137127     0.432641170404    12.000000000000
         C           -1.197611240318     1.197948137127    -0.270369829596    12.000000000000
         C           -1.137764240318    -1.153150862873     0.293856170404    12.000000000000
         C            3.062206359682    -0.669821862873    -0.276836629596    12.000000000000
         C            3.207901759682     0.606405137127     0.240772170404    12.000000000000
         C           -2.590952240318     1.160117137127    -0.269327829596    12.000000000000
         C           -2.531824240318    -1.193034862873     0.269277170404    12.000000000000
         C           -3.264058240318    -0.036932862873    -0.009844829596    12.000000000000
         H            1.398000759682    -1.798166862873    -0.832125829596     1.007825032230
         H            1.606162759682     2.041450137127     0.862645170404     1.007825032230
         H           -0.672734240318     2.120872137127    -0.507367829596     1.007825032230
         H           -0.576068240318    -2.045201862873     0.566502170404     1.007825032230
         H            3.870177759682    -1.382436862873    -0.577956829596     1.007825032230
         H            4.130125759682     1.124468137127     0.469612170404     1.007825032230
         H           -3.154260240318     2.063319137127    -0.492902829596     1.007825032230
         H           -3.048119240318    -2.125479862873     0.486481170404     1.007825032230
         H           -4.350832240318    -0.067145862873    -0.020274829596     1.007825032230

  Basis Set: AUG-CC-PVTZ
    Blend: AUG-CC-PVTZ
  Basis Set: (AUG-CC-PVTZ AUX)
    Blend: AUG-CC-PVTZ-JKFIT
	 Reference Energy          =    -438.5065332103863511 [Eh]
	 Singles Energy            =      -0.0000000000000000 [Eh]
	 Same-Spin Energy          =      -0.4953875177234864 [Eh]
	 Opposite-Spin Energy      =      -1.5247978108621918 [Eh]
	 Correlation Energy        =      -2.0201853285856783 [Eh]
	 Total Energy              =    -440.5267185389720339 [Eh]

	 ================> DF-SCS-MP2 Energies <==================
	-----------------------------------------------------------
	 SCS Same-Spin Scale       =       0.3333333333333333 [-]
	 SCS Opposite-Spin Scale   =       1.2000000000000000 [-]
	 SCS Same-Spin Energy      =      -0.1651291725744955 [Eh]
	 SCS Opposite-Spin Energy  =      -1.8297573730346302 [Eh]
	 SCS Correlation Energy    =      -1.9948865456091256 [Eh]
	 SCS Total Energy          =    -440.5014197559954710 [Eh]
	-----------------------------------------------------------

  Dipole Moment: [D]
     X:    -0.4192      Y:    -1.3626      Z:    -0.6649     Total:     1.5730

*** Psi4 exiting successfully. Buy a developer a beer!
