                               Psi4 1.4a3.dev225

  ==> Input File <==

--------------------------------------------------------------------------
#psi4
#
memory 32 gb

molecule  {
0 1
  N        1.7773000    -0.9706020    -0.3863220
  C        1.0080060     0.0962300     0.0271750
  C       -0.4507830     0.0432590     0.0183630
  C        1.8938950     1.0905280     0.4329840
  C       -1.1961700     1.1987140    -0.2700270
  C       -1.1363230    -1.1523850     0.2941990
  C        3.1117900    -0.6733570    -0.2771830
  C        3.2093430     0.6071710     0.2411150
  C       -2.5895110     1.1608830    -0.2689850
  C       -2.5303830    -1.1922690     0.2696200
  C       -3.2626170    -0.0361670    -0.0095020
  H        1.3994420    -1.7974010    -0.8317830
  H        1.5943847     2.0861594     0.8828431
  H       -0.6712930     2.1216380    -0.5070250
  H       -0.5746270    -2.0444360     0.5668450
  H        3.8716190    -1.3816710    -0.5776140
  H        4.1315670     1.1252340     0.4699550
  H       -3.1528190     2.0640850    -0.4925600
  H       -3.0466780    -2.1247140     0.4868240
  H       -4.3493910    -0.0663800    -0.0199320
units angstrom
no_reorient  #important for SAPT in psi4, default
symmetry c1  #important for SAPT in psi4, default
}

set PROPERTIES_ORIGIN ["COM"]
properties('MP2/aug-cc-pvtz', properties = ['dipole'])
--------------------------------------------------------------------------

    Molecular point group: c1
  Charge       = 0
  Multiplicity = 1
  Basis Set: AUG-CC-PVTZ
    Blend: AUG-CC-PVTZ
  Basis Set: (AUG-CC-PVTZ AUX)
    Blend: AUG-CC-PVTZ-JKFIT

    Orbital Energies [Eh]
    ---------------------

    Doubly Occupied:

       1A    -15.608604     2A    -11.262552     3A    -11.256985
       4A    -11.253224     5A    -11.241988     6A    -11.240669
       7A    -11.240470     8A    -11.237891     9A    -11.237618
      10A    -11.219038    11A    -11.213943    12A     -1.294518
      13A     -1.156130    14A     -1.048523    15A     -1.042698
      16A     -1.016734    17A     -0.959003    18A     -0.837361
      19A     -0.832152    20A     -0.787860    21A     -0.760635
      22A     -0.735212    23A     -0.679914    24A     -0.633205
      25A     -0.629261    26A     -0.592163    27A     -0.588445
      28A     -0.582454    29A     -0.569357    30A     -0.547403
      31A     -0.533092    32A     -0.504584    33A     -0.500862
      34A     -0.494262    35A     -0.363521    36A     -0.350556
      37A     -0.341287    38A     -0.273603

  @DF-RHF Final Energy:  -438.50637599331122

   => Energetics <=

    Nuclear Repulsion Energy =            536.5896841769815637
    One-Electron Energy =               -1656.8565646071403989
    Two-Electron Energy =                 681.7605044368475546
    Total Energy =                       -438.5063759933112806
  Basis Set: (AUG-CC-PVTZ AUX)
    Blend: AUG-CC-PVTZ-RI
    Molecular point group: c1

    Geometry (in Angstrom), charge = 0, multiplicity = 1:

       Center              X                  Y                   Z               Mass
    ------------   -----------------  -----------------  -----------------  -----------------
         N            1.771914031544    -0.971316667218    -0.386746885790    14.003074004430
         C            1.002620031544     0.095515332782     0.026750114210    12.000000000000
         C           -0.456168968456     0.042544332782     0.017938114210    12.000000000000
         C            1.888509031544     1.089813332782     0.432559114210    12.000000000000
         C           -1.201555968456     1.197999332782    -0.270451885790    12.000000000000
         C           -1.141708968456    -1.153099667218     0.293774114210    12.000000000000
         C            3.106404031544    -0.674071667218    -0.277607885790    12.000000000000
         C            3.203957031544     0.606456332782     0.240690114210    12.000000000000
         C           -2.594896968456     1.160168332782    -0.269409885790    12.000000000000
         C           -2.535768968456    -1.192983667218     0.269195114210    12.000000000000
         C           -3.268002968456    -0.036881667218    -0.009926885790    12.000000000000
         H            1.394056031544    -1.798115667218    -0.832207885790     1.007825032230
         H            1.588998731544     2.085444732782     0.882418214210     1.007825032230
         H           -0.676678968456     2.120923332782    -0.507449885790     1.007825032230
         H           -0.580012968456    -2.045150667218     0.566420114210     1.007825032230
         H            3.866233031544    -1.382385667218    -0.578038885790     1.007825032230
         H            4.126181031544     1.124519332782     0.469530114210     1.007825032230
         H           -3.158204968456     2.063370332782    -0.492984885790     1.007825032230
         H           -3.052063968456    -2.125428667218     0.486399114210     1.007825032230
         H           -4.354776968456    -0.067094667218    -0.020356885790     1.007825032230

  Basis Set: AUG-CC-PVTZ
    Blend: AUG-CC-PVTZ
  Basis Set: (AUG-CC-PVTZ AUX)
    Blend: AUG-CC-PVTZ-JKFIT
	 Reference Energy          =    -438.5063759933112237 [Eh]
	 Singles Energy            =      -0.0000000000000000 [Eh]
	 Same-Spin Energy          =      -0.4953537007971668 [Eh]
	 Opposite-Spin Energy      =      -1.5257596854609741 [Eh]
	 Correlation Energy        =      -2.0211133862581407 [Eh]
	 Total Energy              =    -440.5274893795693743 [Eh]

	 ================> DF-SCS-MP2 Energies <==================
	-----------------------------------------------------------
	 SCS Same-Spin Scale       =       0.3333333333333333 [-]
	 SCS Opposite-Spin Scale   =       1.2000000000000000 [-]
	 SCS Same-Spin Energy      =      -0.1651179002657223 [Eh]
	 SCS Opposite-Spin Energy  =      -1.8309116225531687 [Eh]
	 SCS Correlation Energy    =      -1.9960295228188909 [Eh]
	 SCS Total Energy          =    -440.5024055161301249 [Eh]
	-----------------------------------------------------------

  Dipole Moment: [D]
     X:    -0.4434      Y:    -1.3252      Z:    -0.6502     Total:     1.5413

*** Psi4 exiting successfully. Buy a developer a beer!
