                               Psi4 1.3.2 release

  ==> Input File <==

--------------------------------------------------------------------------
#psi4
#
memory 32 gb

molecule  {
0 1
  N        1.7773000    -0.9706020    -0.3863220
  C        0.9007096     0.1849405     0.0702129
  C       -0.4507830     0.0432590     0.0183630
  C        1.8938950     1.0905280     0.4329840
  C       -1.1961700     1.1987140    -0.2700270
  C       -1.1363230    -1.1523850     0.2941990
  C        3.1117900    -0.6733570    -0.2771830
  C        3.2093430     0.6071710     0.2411150
  C       -2.5895110     1.1608830    -0.2689850
  C       -2.5303830    -1.1922690     0.2696200
  C       -3.2626170    -0.0361670    -0.0095020
  H        1.3994420    -1.7974010    -0.8317830
  H        1.6076040     2.0422160     0.8629880
  H       -0.6712930     2.1216380    -0.5070250
  H       -0.5746270    -2.0444360     0.5668450
  H        3.8716190    -1.3816710    -0.5776140
  H        4.1315670     1.1252340     0.4699550
  H       -3.1528190     2.0640850    -0.4925600
  H       -3.0466780    -2.1247140     0.4868240
  H       -4.3493910    -0.0663800    -0.0199320
units angstrom
no_reorient  #important for SAPT in psi4, default
symmetry c1  #important for SAPT in psi4, default
}

set PROPERTIES_ORIGIN ["COM"]
properties('MP2/aug-cc-pvtz', properties = ['dipole'])
--------------------------------------------------------------------------

    Molecular point group: c1
  Charge       = 0
  Multiplicity = 1
  Basis Set: AUG-CC-PVTZ
    Blend: AUG-CC-PVTZ
  Basis Set: (AUG-CC-PVTZ AUX)
    Blend: AUG-CC-PVTZ-JKFIT

    Orbital Energies [Eh]
    ---------------------

    Doubly Occupied:

       1A    -15.598383     2A    -11.267636     3A    -11.264562
       4A    -11.246824     5A    -11.242512     6A    -11.241203
       7A    -11.240250     8A    -11.237541     9A    -11.236998
      10A    -11.225479    11A    -11.212728    12A     -1.260608
      13A     -1.160811    14A     -1.063401    15A     -1.037184
      16A     -1.016801    17A     -0.955511    18A     -0.852236
      19A     -0.833953    20A     -0.779977    21A     -0.753021
      22A     -0.735432    23A     -0.680328    24A     -0.638273
      25A     -0.632397    26A     -0.594823    27A     -0.589662
      28A     -0.570215    29A     -0.559141    30A     -0.542791
      31A     -0.535674    32A     -0.510061    33A     -0.501600
      34A     -0.490569    35A     -0.375047    36A     -0.346192
      37A     -0.341677    38A     -0.267303

  @DF-RHF Final Energy:  -438.47940951294606

   => Energetics <=

    Nuclear Repulsion Energy =            536.4554668883263275
    One-Electron Energy =               -1656.5921451618064566
    Two-Electron Energy =                 681.6572687605340661
    Total Energy =                       -438.4794095129460629
  Basis Set: (AUG-CC-PVTZ AUX)
    Blend: AUG-CC-PVTZ-RI
    Molecular point group: c1

    Geometry (in Angstrom), charge = 0, multiplicity = 1:

       Center              X                  Y                   Z               Mass
    ------------   -----------------  -----------------  -----------------  -----------------
         N            1.780820181633    -0.978447538739    -0.390216741044    14.003074004430
         C            0.904229781633     0.177094961261     0.066318158956    12.000000000000
         C           -0.447262818367     0.035413461261     0.014468258956    12.000000000000
         C            1.897415181633     1.082682461261     0.429089258956    12.000000000000
         C           -1.192649818367     1.190868461261    -0.273921741044    12.000000000000
         C           -1.132802818367    -1.160230538739     0.290304258956    12.000000000000
         C            3.115310181633    -0.681202538739    -0.281077741044    12.000000000000
         C            3.212863181633     0.599325461261     0.237220258956    12.000000000000
         C           -2.585990818367     1.153037461261    -0.272879741044    12.000000000000
         C           -2.526862818367    -1.200114538739     0.265725258956    12.000000000000
         C           -3.259096818367    -0.044012538739    -0.013396741044    12.000000000000
         H            1.402962181633    -1.805246538739    -0.835677741044     1.007825032230
         H            1.611124181633     2.034370461261     0.859093258956     1.007825032230
         H           -0.667772818367     2.113792461261    -0.510919741044     1.007825032230
         H           -0.571106818367    -2.052281538739     0.562950258956     1.007825032230
         H            3.875139181633    -1.389516538739    -0.581508741044     1.007825032230
         H            4.135087181633     1.117388461261     0.466060258956     1.007825032230
         H           -3.149298818367     2.056239461261    -0.496454741044     1.007825032230
         H           -3.043157818367    -2.132559538739     0.482929258956     1.007825032230
         H           -4.345870818367    -0.074225538739    -0.023826741044     1.007825032230

  Basis Set: AUG-CC-PVTZ
    Blend: AUG-CC-PVTZ
  Basis Set: (AUG-CC-PVTZ AUX)
    Blend: AUG-CC-PVTZ-JKFIT
	 Reference Energy          =    -438.4794095129460629 [Eh]
	 Singles Energy            =      -0.0000000000000000 [Eh]
	 Same-Spin Energy          =      -0.4974299843493591 [Eh]
	 Opposite-Spin Energy      =      -1.5300702291026682 [Eh]
	 Correlation Energy        =      -2.0275002134520275 [Eh]
	 Total Energy              =    -440.5069097263980780 [Eh]

	 ================> DF-SCS-MP2 Energies <==================
	-----------------------------------------------------------
	 SCS Same-Spin Scale       =       0.3333333333333333 [-]
	 SCS Opposite-Spin Scale   =       1.2000000000000000 [-]
	 SCS Same-Spin Energy      =      -0.1658099947831197 [Eh]
	 SCS Opposite-Spin Energy  =      -1.8360842749232018 [Eh]
	 SCS Correlation Energy    =      -2.0018942697063213 [Eh]
	 SCS Total Energy          =    -440.4813037826523896 [Eh]
	-----------------------------------------------------------

  Dipole Moment: [D]
     X:    -0.4563      Y:    -1.1903      Z:    -0.5808     Total:     1.4008

*** Psi4 exiting successfully. Buy a developer a beer!
