                               Psi4 1.3.2 release

  ==> Input File <==

--------------------------------------------------------------------------
#psi4
#
memory 32 gb

molecule  {
0 1
  N        1.7773000    -0.9706020    -0.3863220
  C        1.0079029    -0.0028670     0.0508719
  C       -0.4507830     0.0432590     0.0183630
  C        1.8938950     1.0905280     0.4329840
  C       -1.1961700     1.1987140    -0.2700270
  C       -1.1363230    -1.1523850     0.2941990
  C        3.1117900    -0.6733570    -0.2771830
  C        3.2093430     0.6071710     0.2411150
  C       -2.5895110     1.1608830    -0.2689850
  C       -2.5303830    -1.1922690     0.2696200
  C       -3.2626170    -0.0361670    -0.0095020
  H        1.3994420    -1.7974010    -0.8317830
  H        1.6076040     2.0422160     0.8629880
  H       -0.6712930     2.1216380    -0.5070250
  H       -0.5746270    -2.0444360     0.5668450
  H        3.8716190    -1.3816710    -0.5776140
  H        4.1315670     1.1252340     0.4699550
  H       -3.1528190     2.0640850    -0.4925600
  H       -3.0466780    -2.1247140     0.4868240
  H       -4.3493910    -0.0663800    -0.0199320
units angstrom
no_reorient  #important for SAPT in psi4, default
symmetry c1  #important for SAPT in psi4, default
}

set PROPERTIES_ORIGIN ["COM"]
properties('MP2/aug-cc-pvtz', properties = ['dipole'])
--------------------------------------------------------------------------

    Molecular point group: c1
  Charge       = 0
  Multiplicity = 1
  Basis Set: AUG-CC-PVTZ
    Blend: AUG-CC-PVTZ
  Basis Set: (AUG-CC-PVTZ AUX)
    Blend: AUG-CC-PVTZ-JKFIT

    Orbital Energies [Eh]
    ---------------------

    Doubly Occupied:

       1A    -15.616449     2A    -11.264947     3A    -11.254303
       4A    -11.250893     5A    -11.242125     6A    -11.241956
       7A    -11.240132     8A    -11.239994     9A    -11.238551
      10A    -11.215720    11A    -11.213265    12A     -1.314139
      13A     -1.157057    14A     -1.048569    15A     -1.042091
      16A     -1.017536    17A     -0.958381    18A     -0.838128
      19A     -0.832956    20A     -0.794554    21A     -0.769304
      22A     -0.736459    23A     -0.680076    24A     -0.635957
      25A     -0.630470    26A     -0.598795    27A     -0.591414
      28A     -0.587759    29A     -0.574969    30A     -0.544434
      31A     -0.532749    32A     -0.506628    33A     -0.501028
      34A     -0.488251    35A     -0.361666    36A     -0.350442
      37A     -0.342053    38A     -0.267182

  @DF-RHF Final Energy:  -438.49871987792892

   => Energetics <=

    Nuclear Repulsion Energy =            537.0946835888229316
    One-Electron Energy =               -1657.7440390443655360
    Two-Electron Energy =                 682.1506355776137980
    Total Energy =                       -438.4987198779289201
  Basis Set: (AUG-CC-PVTZ AUX)
    Blend: AUG-CC-PVTZ-RI
    Molecular point group: c1

    Geometry (in Angstrom), charge = 0, multiplicity = 1:

       Center              X                  Y                   Z               Mass
    ------------   -----------------  -----------------  -----------------  -----------------
         N            1.771829560684    -0.962695565025    -0.388594553838    14.003074004430
         C            1.002432460684     0.005039434975     0.048599346162    12.000000000000
         C           -0.456253439316     0.051165434975     0.016090446162    12.000000000000
         C            1.888424560684     1.098434434975     0.430711446162    12.000000000000
         C           -1.201640439316     1.206620434975    -0.272299553838    12.000000000000
         C           -1.141793439316    -1.144478565025     0.291926446162    12.000000000000
         C            3.106319560684    -0.665450565025    -0.279455553838    12.000000000000
         C            3.203872560684     0.615077434975     0.238842446162    12.000000000000
         C           -2.594981439316     1.168789434975    -0.271257553838    12.000000000000
         C           -2.535853439316    -1.184362565025     0.267347446162    12.000000000000
         C           -3.268087439316    -0.028260565025    -0.011774553838    12.000000000000
         H            1.393971560684    -1.789494565025    -0.834055553838     1.007825032230
         H            1.602133560684     2.050122434975     0.860715446162     1.007825032230
         H           -0.676763439316     2.129544434975    -0.509297553838     1.007825032230
         H           -0.580097439316    -2.036529565025     0.564572446162     1.007825032230
         H            3.866148560684    -1.373764565025    -0.579886553838     1.007825032230
         H            4.126096560684     1.133140434975     0.467682446162     1.007825032230
         H           -3.158289439316     2.071991434975    -0.494832553838     1.007825032230
         H           -3.052148439316    -2.116807565025     0.484551446162     1.007825032230
         H           -4.354861439316    -0.058473565025    -0.022204553838     1.007825032230

  Basis Set: AUG-CC-PVTZ
    Blend: AUG-CC-PVTZ
  Basis Set: (AUG-CC-PVTZ AUX)
    Blend: AUG-CC-PVTZ-JKFIT
	 Reference Energy          =    -438.4987198779289201 [Eh]
	 Singles Energy            =      -0.0000000000000000 [Eh]
	 Same-Spin Energy          =      -0.4962545151565975 [Eh]
	 Opposite-Spin Energy      =      -1.5261619576612513 [Eh]
	 Correlation Energy        =      -2.0224164728178486 [Eh]
	 Total Energy              =    -440.5211363507467581 [Eh]

	 ================> DF-SCS-MP2 Energies <==================
	-----------------------------------------------------------
	 SCS Same-Spin Scale       =       0.3333333333333333 [-]
	 SCS Opposite-Spin Scale   =       1.2000000000000000 [-]
	 SCS Same-Spin Energy      =      -0.1654181717188658 [Eh]
	 SCS Opposite-Spin Energy  =      -1.8313943491935014 [Eh]
	 SCS Correlation Energy    =      -1.9968125209123673 [Eh]
	 SCS Total Energy          =    -440.4955323988413056 [Eh]
	-----------------------------------------------------------

  Dipole Moment: [D]
     X:    -0.4398      Y:    -1.4165      Z:    -0.7148     Total:     1.6465

*** Psi4 exiting successfully. Buy a developer a beer!
