                               Psi4 1.3.2 release

  ==> Input File <==

--------------------------------------------------------------------------
#psi4
#
memory 32 gb

molecule  {
0 1
  N        1.7773000    -0.9706020    -0.3863220
  C        1.0080060     0.0962300     0.0271750
  C       -0.5356699    -0.0042122     0.0308965
  C        1.8938950     1.0905280     0.4329840
  C       -1.1961700     1.1987140    -0.2700270
  C       -1.1363230    -1.1523850     0.2941990
  C        3.1117900    -0.6733570    -0.2771830
  C        3.2093430     0.6071710     0.2411150
  C       -2.5895110     1.1608830    -0.2689850
  C       -2.5303830    -1.1922690     0.2696200
  C       -3.2626170    -0.0361670    -0.0095020
  H        1.3994420    -1.7974010    -0.8317830
  H        1.6076040     2.0422160     0.8629880
  H       -0.6712930     2.1216380    -0.5070250
  H       -0.5746270    -2.0444360     0.5668450
  H        3.8716190    -1.3816710    -0.5776140
  H        4.1315670     1.1252340     0.4699550
  H       -3.1528190     2.0640850    -0.4925600
  H       -3.0466780    -2.1247140     0.4868240
  H       -4.3493910    -0.0663800    -0.0199320
units angstrom
no_reorient  #important for SAPT in psi4, default
symmetry c1  #important for SAPT in psi4, default
}

set PROPERTIES_ORIGIN ["COM"]
properties('MP2/aug-cc-pvtz', properties = ['dipole'])
--------------------------------------------------------------------------

    Molecular point group: c1
  Charge       = 0
  Multiplicity = 1
  Basis Set: AUG-CC-PVTZ
    Blend: AUG-CC-PVTZ
  Basis Set: (AUG-CC-PVTZ AUX)
    Blend: AUG-CC-PVTZ-JKFIT

    Orbital Energies [Eh]
    ---------------------

    Doubly Occupied:

       1A    -15.605757     2A    -11.264505     3A    -11.253152
       4A    -11.251066     5A    -11.243034     6A    -11.241448
       7A    -11.238877     8A    -11.238054     9A    -11.232488
      10A    -11.211621    11A    -11.210339    12A     -1.290475
      13A     -1.166222    14A     -1.042722    15A     -1.042073
      16A     -1.021527    17A     -0.958852    18A     -0.839404
      19A     -0.829272    20A     -0.786444    21A     -0.762935
      22A     -0.733286    23A     -0.678324    24A     -0.635887
      25A     -0.632118    26A     -0.597370    27A     -0.589971
      28A     -0.576243    29A     -0.565336    30A     -0.547626
      31A     -0.534838    32A     -0.511322    33A     -0.506370
      34A     -0.484208    35A     -0.363627    36A     -0.348540
      37A     -0.342176    38A     -0.277637

  @DF-RHF Final Energy:  -438.49906163296595

   => Energetics <=

    Nuclear Repulsion Energy =            536.9576647495042607
    One-Electron Energy =               -1657.6031584576064688
    Two-Electron Energy =                 682.1464320751360901
    Total Energy =                       -438.4990616329660043
  Basis Set: (AUG-CC-PVTZ AUX)
    Blend: AUG-CC-PVTZ-RI
    Molecular point group: c1

    Geometry (in Angstrom), charge = 0, multiplicity = 1:

       Center              X                  Y                   Z               Mass
    ------------   -----------------  -----------------  -----------------  -----------------
         N            1.778940630205    -0.967025574448    -0.387658246271    14.003074004430
         C            1.009646630205     0.099806425552     0.025838753729    12.000000000000
         C           -0.534029269795    -0.000635774448     0.029560253729    12.000000000000
         C            1.895535630205     1.094104425552     0.431647753729    12.000000000000
         C           -1.194529369795     1.202290425552    -0.271363246271    12.000000000000
         C           -1.134682369795    -1.148808574448     0.292862753729    12.000000000000
         C            3.113430630205    -0.669780574448    -0.278519246271    12.000000000000
         C            3.210983630205     0.610747425552     0.239778753729    12.000000000000
         C           -2.587870369795     1.164459425552    -0.270321246271    12.000000000000
         C           -2.528742369795    -1.188692574448     0.268283753729    12.000000000000
         C           -3.260976369795    -0.032590574448    -0.010838246271    12.000000000000
         H            1.401082630205    -1.793824574448    -0.833119246271     1.007825032230
         H            1.609244630205     2.045792425552     0.861651753729     1.007825032230
         H           -0.669652369795     2.125214425552    -0.508361246271     1.007825032230
         H           -0.572986369795    -2.040859574448     0.565508753729     1.007825032230
         H            3.873259630205    -1.378094574448    -0.578950246271     1.007825032230
         H            4.133207630205     1.128810425552     0.468618753729     1.007825032230
         H           -3.151178369795     2.067661425552    -0.493896246271     1.007825032230
         H           -3.045037369795    -2.121137574448     0.485487753729     1.007825032230
         H           -4.347750369795    -0.062803574448    -0.021268246271     1.007825032230

  Basis Set: AUG-CC-PVTZ
    Blend: AUG-CC-PVTZ
  Basis Set: (AUG-CC-PVTZ AUX)
    Blend: AUG-CC-PVTZ-JKFIT
	 Reference Energy          =    -438.4990616329659474 [Eh]
	 Singles Energy            =      -0.0000000000000000 [Eh]
	 Same-Spin Energy          =      -0.4943479148616393 [Eh]
	 Opposite-Spin Energy      =      -1.5242743951402371 [Eh]
	 Correlation Energy        =      -2.0186223100018763 [Eh]
	 Total Energy              =    -440.5176839429678353 [Eh]

	 ================> DF-SCS-MP2 Energies <==================
	-----------------------------------------------------------
	 SCS Same-Spin Scale       =       0.3333333333333333 [-]
	 SCS Opposite-Spin Scale   =       1.2000000000000000 [-]
	 SCS Same-Spin Energy      =      -0.1647826382872131 [Eh]
	 SCS Opposite-Spin Energy  =      -1.8291292741682845 [Eh]
	 SCS Correlation Energy    =      -1.9939119124554976 [Eh]
	 SCS Total Energy          =    -440.4929735454214210 [Eh]
	-----------------------------------------------------------

  Dipole Moment: [D]
     X:    -0.7265      Y:    -1.3272      Z:    -0.6471     Total:     1.6456

*** Psi4 exiting successfully. Buy a developer a beer!
