                               Psi4 1.3.2 release

  ==> Input File <==

--------------------------------------------------------------------------
#psi4
#
memory 32 gb

molecule  {
0 1
  N        1.7773000    -0.9706020    -0.3863220
  C        1.0080060     0.0962300     0.0271750
  C       -0.4507830     0.0432590     0.0183630
  C        1.8938950     1.0905280     0.4329840
  C       -1.1961700     1.1987140    -0.2700270
  C       -1.1363230    -1.1523850     0.2941990
  C        3.1117900    -0.6733570    -0.2771830
  C        3.3023394     0.5729998     0.2275507
  C       -2.5895110     1.1608830    -0.2689850
  C       -2.5303830    -1.1922690     0.2696200
  C       -3.2626170    -0.0361670    -0.0095020
  H        1.3994420    -1.7974010    -0.8317830
  H        1.6076040     2.0422160     0.8629880
  H       -0.6712930     2.1216380    -0.5070250
  H       -0.5746270    -2.0444360     0.5668450
  H        3.8716190    -1.3816710    -0.5776140
  H        4.1315670     1.1252340     0.4699550
  H       -3.1528190     2.0640850    -0.4925600
  H       -3.0466780    -2.1247140     0.4868240
  H       -4.3493910    -0.0663800    -0.0199320
units angstrom
no_reorient  #important for SAPT in psi4, default
symmetry c1  #important for SAPT in psi4, default
}

set PROPERTIES_ORIGIN ["COM"]
properties('MP2/aug-cc-pvtz', properties = ['dipole'])
--------------------------------------------------------------------------

    Molecular point group: c1
  Charge       = 0
  Multiplicity = 1
  Basis Set: AUG-CC-PVTZ
    Blend: AUG-CC-PVTZ
  Basis Set: (AUG-CC-PVTZ AUX)
    Blend: AUG-CC-PVTZ-JKFIT

    Orbital Energies [Eh]
    ---------------------

    Doubly Occupied:

       1A    -15.603972     2A    -11.264338     3A    -11.258223
       4A    -11.253820     5A    -11.242646     6A    -11.241405
       7A    -11.241123     8A    -11.238810     9A    -11.238480
      10A    -11.219361    11A    -11.214335    12A     -1.290573
      13A     -1.156807    14A     -1.048862    15A     -1.033237
      16A     -1.016755    17A     -0.962621    18A     -0.838025
      19A     -0.832733    20A     -0.788941    21A     -0.767018
      22A     -0.734703    23A     -0.679959    24A     -0.633946
      25A     -0.629776    26A     -0.604878    27A     -0.590628
      28A     -0.582313    29A     -0.567738    30A     -0.562909
      31A     -0.515903    32A     -0.505118    33A     -0.497654
      34A     -0.492056    35A     -0.365141    36A     -0.341923
      37A     -0.340402    38A     -0.280591

  @DF-RHF Final Energy:  -438.50076824660317

   => Energetics <=

    Nuclear Repulsion Energy =            535.4660883545758452
    One-Electron Energy =               -1654.5782666557233824
    Two-Electron Energy =                 680.6114100545445353
    Total Energy =                       -438.5007682466031156
  Basis Set: (AUG-CC-PVTZ AUX)
    Blend: AUG-CC-PVTZ-RI
    Molecular point group: c1

    Geometry (in Angstrom), charge = 0, multiplicity = 1:

       Center              X                  Y                   Z               Mass
    ------------   -----------------  -----------------  -----------------  -----------------
         N            1.764021028667    -0.968141085012    -0.385469346150    14.003074004430
         C            0.994727028667     0.098690914988     0.028027653850    12.000000000000
         C           -0.464061971333     0.045719914988     0.019215653850    12.000000000000
         C            1.880616028667     1.092988914988     0.433836653850    12.000000000000
         C           -1.209448971333     1.201174914988    -0.269174346150    12.000000000000
         C           -1.149601971333    -1.149924085012     0.295051653850    12.000000000000
         C            3.098511028667    -0.670896085012    -0.276330346150    12.000000000000
         C            3.289060428667     0.575460714988     0.228403353850    12.000000000000
         C           -2.602789971333     1.163343914988    -0.268132346150    12.000000000000
         C           -2.543661971333    -1.189808085012     0.270472653850    12.000000000000
         C           -3.275895971333    -0.033706085012    -0.008649346150    12.000000000000
         H            1.386163028667    -1.794940085012    -0.830930346150     1.007825032230
         H            1.594325028667     2.044676914988     0.863840653850     1.007825032230
         H           -0.684571971333     2.124098914988    -0.506172346150     1.007825032230
         H           -0.587905971333    -2.041975085012     0.567697653850     1.007825032230
         H            3.858340028667    -1.379210085012    -0.576761346150     1.007825032230
         H            4.118288028667     1.127694914988     0.470807653850     1.007825032230
         H           -3.166097971333     2.066545914988    -0.491707346150     1.007825032230
         H           -3.059956971333    -2.122253085012     0.487676653850     1.007825032230
         H           -4.362669971333    -0.063919085012    -0.019079346150     1.007825032230

  Basis Set: AUG-CC-PVTZ
    Blend: AUG-CC-PVTZ
  Basis Set: (AUG-CC-PVTZ AUX)
    Blend: AUG-CC-PVTZ-JKFIT
	 Reference Energy          =    -438.5007682466031724 [Eh]
	 Singles Energy            =      -0.0000000000000000 [Eh]
	 Same-Spin Energy          =      -0.4937738497037679 [Eh]
	 Opposite-Spin Energy      =      -1.5245404454428508 [Eh]
	 Correlation Energy        =      -2.0183142951466189 [Eh]
	 Total Energy              =    -440.5190825417498104 [Eh]

	 ================> DF-SCS-MP2 Energies <==================
	-----------------------------------------------------------
	 SCS Same-Spin Scale       =       0.3333333333333333 [-]
	 SCS Opposite-Spin Scale   =       1.2000000000000000 [-]
	 SCS Same-Spin Energy      =      -0.1645912832345893 [Eh]
	 SCS Opposite-Spin Energy  =      -1.8294485345314209 [Eh]
	 SCS Correlation Energy    =      -1.9940398177660101 [Eh]
	 SCS Total Energy          =    -440.4948080643691810 [Eh]
	-----------------------------------------------------------

  Dipole Moment: [D]
     X:    -0.5294      Y:    -1.3051      Z:    -0.6396     Total:     1.5468

*** Psi4 exiting successfully. Buy a developer a beer!
