                               Psi4 1.3.2 release

  ==> Input File <==

--------------------------------------------------------------------------
#psi4
#
memory 32 gb

molecule  {
0 1
  N        1.7773000    -0.9706020    -0.3863220
  C        1.0080060     0.0962300     0.0271750
  C       -0.5793465    -0.0257634     0.0366171
  C        1.8938950     1.0905280     0.4329840
  C       -1.1961700     1.1987140    -0.2700270
  C       -1.1363230    -1.1523850     0.2941990
  C        3.1117900    -0.6733570    -0.2771830
  C        3.2093430     0.6071710     0.2411150
  C       -2.5895110     1.1608830    -0.2689850
  C       -2.5303830    -1.1922690     0.2696200
  C       -3.2626170    -0.0361670    -0.0095020
  H        1.3994420    -1.7974010    -0.8317830
  H        1.6076040     2.0422160     0.8629880
  H       -0.6712930     2.1216380    -0.5070250
  H       -0.5746270    -2.0444360     0.5668450
  H        3.8716190    -1.3816710    -0.5776140
  H        4.1315670     1.1252340     0.4699550
  H       -3.1528190     2.0640850    -0.4925600
  H       -3.0466780    -2.1247140     0.4868240
  H       -4.3493910    -0.0663800    -0.0199320
units angstrom
no_reorient  #important for SAPT in psi4, default
symmetry c1  #important for SAPT in psi4, default
}

set PROPERTIES_ORIGIN ["COM"]
properties('MP2/aug-cc-pvtz', properties = ['dipole'])
--------------------------------------------------------------------------

    Molecular point group: c1
  Charge       = 0
  Multiplicity = 1
  Basis Set: AUG-CC-PVTZ
    Blend: AUG-CC-PVTZ
  Basis Set: (AUG-CC-PVTZ AUX)
    Blend: AUG-CC-PVTZ-JKFIT

    Orbital Energies [Eh]
    ---------------------

    Doubly Occupied:

       1A    -15.604445     2A    -11.264808     3A    -11.251515
       4A    -11.250089     5A    -11.243830     6A    -11.241952
       7A    -11.239641     8A    -11.238175     9A    -11.228216
      10A    -11.210466    11A    -11.209013    12A     -1.288630
      13A     -1.172406    14A     -1.043961    15A     -1.040313
      16A     -1.022561    17A     -0.958096    18A     -0.842991
      19A     -0.825555    20A     -0.785295    21A     -0.761740
      22A     -0.732776    23A     -0.677552    24A     -0.639662
      25A     -0.631809    26A     -0.600468    27A     -0.588864
      28A     -0.573280    29A     -0.563621    30A     -0.546629
      31A     -0.533811    32A     -0.515784    33A     -0.511049
      34A     -0.472703    35A     -0.365773    36A     -0.347629
      37A     -0.341732    38A     -0.278957

  @DF-RHF Final Energy:  -438.48451205634558

   => Energetics <=

    Nuclear Repulsion Energy =            537.0794108390193742
    One-Electron Energy =               -1657.8362563123116615
    Two-Electron Energy =                 682.2723334169467080
    Total Energy =                       -438.4845120563455794
  Basis Set: (AUG-CC-PVTZ AUX)
    Blend: AUG-CC-PVTZ-RI
    Molecular point group: c1

    Geometry (in Angstrom), charge = 0, multiplicity = 1:

       Center              X                  Y                   Z               Mass
    ------------   -----------------  -----------------  -----------------  -----------------
         N            1.782603916575    -0.965218011193    -0.388138050011    14.003074004430
         C            1.013309916575     0.101613988807     0.025358949989    12.000000000000
         C           -0.574042583425    -0.020379411193     0.034801049989    12.000000000000
         C            1.899198916575     1.095911988807     0.431167949989    12.000000000000
         C           -1.190866083425     1.204097988807    -0.271843050011    12.000000000000
         C           -1.131019083425    -1.147001011193     0.292382949989    12.000000000000
         C            3.117093916575    -0.667973011193    -0.278999050011    12.000000000000
         C            3.214646916575     0.612554988807     0.239298949989    12.000000000000
         C           -2.584207083425     1.166266988807    -0.270801050011    12.000000000000
         C           -2.525079083425    -1.186885011193     0.267803949989    12.000000000000
         C           -3.257313083425    -0.030783011193    -0.011318050011    12.000000000000
         H            1.404745916575    -1.792017011193    -0.833599050011     1.007825032230
         H            1.612907916575     2.047599988807     0.861171949989     1.007825032230
         H           -0.665989083425     2.127021988807    -0.508841050011     1.007825032230
         H           -0.569323083425    -2.039052011193     0.565028949989     1.007825032230
         H            3.876922916575    -1.376287011193    -0.579430050011     1.007825032230
         H            4.136870916575     1.130617988807     0.468138949989     1.007825032230
         H           -3.147515083425     2.069468988807    -0.494376050011     1.007825032230
         H           -3.041374083425    -2.119330011193     0.485007949989     1.007825032230
         H           -4.344087083425    -0.060996011193    -0.021748050011     1.007825032230

  Basis Set: AUG-CC-PVTZ
    Blend: AUG-CC-PVTZ
  Basis Set: (AUG-CC-PVTZ AUX)
    Blend: AUG-CC-PVTZ-JKFIT
	 Reference Energy          =    -438.4845120563455794 [Eh]
	 Singles Energy            =      -0.0000000000000000 [Eh]
	 Same-Spin Energy          =      -0.4941685385842093 [Eh]
	 Opposite-Spin Energy      =      -1.5243607032172604 [Eh]
	 Correlation Energy        =      -2.0185292418014695 [Eh]
	 Total Energy              =    -440.5030412981470249 [Eh]

	 ================> DF-SCS-MP2 Energies <==================
	-----------------------------------------------------------
	 SCS Same-Spin Scale       =       0.3333333333333333 [-]
	 SCS Opposite-Spin Scale   =       1.2000000000000000 [-]
	 SCS Same-Spin Energy      =      -0.1647228461947364 [Eh]
	 SCS Opposite-Spin Energy  =      -1.8292328438607124 [Eh]
	 SCS Correlation Energy    =      -1.9939556900554489 [Eh]
	 SCS Total Energy          =    -440.4784677464010088 [Eh]
	-----------------------------------------------------------

  Dipole Moment: [D]
     X:    -0.8581      Y:    -1.3335      Z:    -0.6466     Total:     1.7125

*** Psi4 exiting successfully. Buy a developer a beer!
