                               Psi4 1.3.2 release

  ==> Input File <==

--------------------------------------------------------------------------
#psi4
#
memory 32 gb

molecule  {
0 1
  N        1.7773000    -0.9706020    -0.3863220
  C        1.0080060     0.0962300     0.0271750
  C       -0.4507830     0.0432590     0.0183630
  C        1.8938950     1.0905280     0.4329840
  C       -1.1961700     1.1987140    -0.2700270
  C       -1.1363230    -1.1523850     0.2941990
  C        3.1117900    -0.6733570    -0.2771830
  C        3.2564110     0.7343620     0.3005187
  C       -2.5895110     1.1608830    -0.2689850
  C       -2.5303830    -1.1922690     0.2696200
  C       -3.2626170    -0.0361670    -0.0095020
  H        1.3994420    -1.7974010    -0.8317830
  H        1.6076040     2.0422160     0.8629880
  H       -0.6712930     2.1216380    -0.5070250
  H       -0.5746270    -2.0444360     0.5668450
  H        3.8716190    -1.3816710    -0.5776140
  H        4.1315670     1.1252340     0.4699550
  H       -3.1528190     2.0640850    -0.4925600
  H       -3.0466780    -2.1247140     0.4868240
  H       -4.3493910    -0.0663800    -0.0199320
units angstrom
no_reorient  #important for SAPT in psi4, default
symmetry c1  #important for SAPT in psi4, default
}

set PROPERTIES_ORIGIN ["COM"]
properties('MP2/aug-cc-pvtz', properties = ['dipole'])
--------------------------------------------------------------------------

    Molecular point group: c1
  Charge       = 0
  Multiplicity = 1
  Basis Set: AUG-CC-PVTZ
    Blend: AUG-CC-PVTZ
  Basis Set: (AUG-CC-PVTZ AUX)
    Blend: AUG-CC-PVTZ-JKFIT

    Orbital Energies [Eh]
    ---------------------

    Doubly Occupied:

       1A    -15.620974     2A    -11.275326     3A    -11.260061
       4A    -11.253937     5A    -11.241654     6A    -11.240183
       7A    -11.239851     8A    -11.236764     9A    -11.236537
      10A    -11.222706    11A    -11.220638    12A     -1.292791
      13A     -1.155449    14A     -1.050570    15A     -1.035871
      16A     -1.016140    17A     -0.951943    18A     -0.835040
      19A     -0.833492    20A     -0.807684    21A     -0.769692
      22A     -0.734349    23A     -0.679602    24A     -0.633760
      25A     -0.631199    26A     -0.610252    27A     -0.589921
      28A     -0.581259    29A     -0.572299    30A     -0.565524
      31A     -0.504291    32A     -0.503306    33A     -0.500641
      34A     -0.494642    35A     -0.365067    36A     -0.348478
      37A     -0.340933    38A     -0.262229

  @DF-RHF Final Energy:  -438.47535948409757

   => Energetics <=

    Nuclear Repulsion Energy =            534.5719855017206328
    One-Electron Energy =               -1652.6645765223715898
    Two-Electron Energy =                 679.6172315365535042
    Total Energy =                       -438.4753594840975666
  Basis Set: (AUG-CC-PVTZ AUX)
    Blend: AUG-CC-PVTZ-RI
    Molecular point group: c1

    Geometry (in Angstrom), charge = 0, multiplicity = 1:

       Center              X                  Y                   Z               Mass
    ------------   -----------------  -----------------  -----------------  -----------------
         N            1.767873180203    -0.981675012746    -0.391589389374    14.003074004430
         C            0.998579180203     0.085156987254     0.021907610626    12.000000000000
         C           -0.460209819797     0.032185987254     0.013095610626    12.000000000000
         C            1.884468180203     1.079454987254     0.427716610626    12.000000000000
         C           -1.205596819797     1.187640987254    -0.275294389374    12.000000000000
         C           -1.145749819797    -1.163458012746     0.288931610626    12.000000000000
         C            3.102363180203    -0.684430012746    -0.282450389374    12.000000000000
         C            3.246984180203     0.723288987254     0.295251310626    12.000000000000
         C           -2.598937819797     1.149809987254    -0.274252389374    12.000000000000
         C           -2.539809819797    -1.203342012746     0.264352610626    12.000000000000
         C           -3.272043819797    -0.047240012746    -0.014769389374    12.000000000000
         H            1.390015180203    -1.808474012746    -0.837050389374     1.007825032230
         H            1.598177180203     2.031142987254     0.857720610626     1.007825032230
         H           -0.680719819797     2.110564987254    -0.512292389374     1.007825032230
         H           -0.584053819797    -2.055509012746     0.561577610626     1.007825032230
         H            3.862192180203    -1.392744012746    -0.582881389374     1.007825032230
         H            4.122140180203     1.114160987254     0.464687610626     1.007825032230
         H           -3.162245819797     2.053011987254    -0.497827389374     1.007825032230
         H           -3.056104819797    -2.135787012746     0.481556610626     1.007825032230
         H           -4.358817819797    -0.077453012746    -0.025199389374     1.007825032230

  Basis Set: AUG-CC-PVTZ
    Blend: AUG-CC-PVTZ
  Basis Set: (AUG-CC-PVTZ AUX)
    Blend: AUG-CC-PVTZ-JKFIT
	 Reference Energy          =    -438.4753594840975666 [Eh]
	 Singles Energy            =      -0.0000000000000000 [Eh]
	 Same-Spin Energy          =      -0.4972281442566833 [Eh]
	 Opposite-Spin Energy      =      -1.5297446668983734 [Eh]
	 Correlation Energy        =      -2.0269728111550567 [Eh]
	 Total Energy              =    -440.5023322952526428 [Eh]

	 ================> DF-SCS-MP2 Energies <==================
	-----------------------------------------------------------
	 SCS Same-Spin Scale       =       0.3333333333333333 [-]
	 SCS Opposite-Spin Scale   =       1.2000000000000000 [-]
	 SCS Same-Spin Energy      =      -0.1657427147522277 [Eh]
	 SCS Opposite-Spin Energy  =      -1.8356936002780480 [Eh]
	 SCS Correlation Energy    =      -2.0014363150302756 [Eh]
	 SCS Total Energy          =    -440.4767957991278422 [Eh]
	-----------------------------------------------------------

  Dipole Moment: [D]
     X:    -0.5059      Y:    -1.3449      Z:    -0.6686     Total:     1.5848

*** Psi4 exiting successfully. Buy a developer a beer!
