                               Psi4 1.3.2 release

  ==> Input File <==

--------------------------------------------------------------------------
#psi4
#
memory 32 gb

molecule  {
0 1
  N        1.7773000    -0.9706020    -0.3863220
  C        1.0080060     0.0962300     0.0271750
  C       -0.2509184     0.0505164     0.0195703
  C        1.8938950     1.0905280     0.4329840
  C       -1.1961700     1.1987140    -0.2700270
  C       -1.1363230    -1.1523850     0.2941990
  C        3.1117900    -0.6733570    -0.2771830
  C        3.2093430     0.6071710     0.2411150
  C       -2.5895110     1.1608830    -0.2689850
  C       -2.5303830    -1.1922690     0.2696200
  C       -3.2626170    -0.0361670    -0.0095020
  H        1.3994420    -1.7974010    -0.8317830
  H        1.6076040     2.0422160     0.8629880
  H       -0.6712930     2.1216380    -0.5070250
  H       -0.5746270    -2.0444360     0.5668450
  H        3.8716190    -1.3816710    -0.5776140
  H        4.1315670     1.1252340     0.4699550
  H       -3.1528190     2.0640850    -0.4925600
  H       -3.0466780    -2.1247140     0.4868240
  H       -4.3493910    -0.0663800    -0.0199320
units angstrom
no_reorient  #important for SAPT in psi4, default
symmetry c1  #important for SAPT in psi4, default
}

set PROPERTIES_ORIGIN ["COM"]
properties('MP2/aug-cc-pvtz', properties = ['dipole'])
--------------------------------------------------------------------------

    Molecular point group: c1
  Charge       = 0
  Multiplicity = 1
  Basis Set: AUG-CC-PVTZ
    Blend: AUG-CC-PVTZ
  Basis Set: (AUG-CC-PVTZ AUX)
    Blend: AUG-CC-PVTZ-JKFIT

    Orbital Energies [Eh]
    ---------------------

    Doubly Occupied:

       1A    -15.612961     2A    -11.268219     3A    -11.256713
       4A    -11.249395     5A    -11.248181     6A    -11.245409
       7A    -11.238571     8A    -11.237365     9A    -11.234245
      10A    -11.224573    11A    -11.221011    12A     -1.305659
      13A     -1.140344    14A     -1.075797    15A     -1.052266
      16A     -1.005026    17A     -0.952457    18A     -0.861724
      19A     -0.820055    20A     -0.792668    21A     -0.771497
      22A     -0.738621    23A     -0.679842    24A     -0.637963
      25A     -0.625666    26A     -0.598671    27A     -0.592907
      28A     -0.578791    29A     -0.573381    30A     -0.554998
      31A     -0.545087    32A     -0.517771    33A     -0.488258
      34A     -0.459394    35A     -0.372546    36A     -0.357034
      37A     -0.335908    38A     -0.254946

  @DF-RHF Final Energy:  -438.44057993801204

   => Energetics <=

    Nuclear Repulsion Energy =            537.2213890664181690
    One-Electron Energy =               -1657.8720958413402968
    Two-Electron Energy =                 682.2101268369100353
    Total Energy =                       -438.4405799380120925
  Basis Set: (AUG-CC-PVTZ AUX)
    Blend: AUG-CC-PVTZ-RI
    Molecular point group: c1

    Geometry (in Angstrom), charge = 0, multiplicity = 1:

       Center              X                  Y                   Z               Mass
    ------------   -----------------  -----------------  -----------------  -----------------
         N            1.755057674823    -0.971615824936    -0.386708284184    14.003074004430
         C            0.985763674823     0.095216175064     0.026788715816    12.000000000000
         C           -0.273160725177     0.049502575064     0.019184015816    12.000000000000
         C            1.871652674823     1.089514175064     0.432597715816    12.000000000000
         C           -1.218412325177     1.197700175064    -0.270413284184    12.000000000000
         C           -1.158565325177    -1.153398824936     0.293812715816    12.000000000000
         C            3.089547674823    -0.674370824936    -0.277569284184    12.000000000000
         C            3.187100674823     0.606157175064     0.240728715816    12.000000000000
         C           -2.611753325177     1.159869175064    -0.269371284184    12.000000000000
         C           -2.552625325177    -1.193282824936     0.269233715816    12.000000000000
         C           -3.284859325177    -0.037180824936    -0.009888284184    12.000000000000
         H            1.377199674823    -1.798414824936    -0.832169284184     1.007825032230
         H            1.585361674823     2.041202175064     0.862601715816     1.007825032230
         H           -0.693535325177     2.120624175064    -0.507411284184     1.007825032230
         H           -0.596869325177    -2.045449824936     0.566458715816     1.007825032230
         H            3.849376674823    -1.382684824936    -0.578000284184     1.007825032230
         H            4.109324674823     1.124220175064     0.469568715816     1.007825032230
         H           -3.175061325177     2.063071175064    -0.492946284184     1.007825032230
         H           -3.068920325177    -2.125727824936     0.486437715816     1.007825032230
         H           -4.371633325177    -0.067393824936    -0.020318284184     1.007825032230

  Basis Set: AUG-CC-PVTZ
    Blend: AUG-CC-PVTZ
  Basis Set: (AUG-CC-PVTZ AUX)
    Blend: AUG-CC-PVTZ-JKFIT
	 Reference Energy          =    -438.4405799380120357 [Eh]
	 Singles Energy            =      -0.0000000000000000 [Eh]
	 Same-Spin Energy          =      -0.5007563211164083 [Eh]
	 Opposite-Spin Energy      =      -1.5338212372510274 [Eh]
	 Correlation Energy        =      -2.0345775583674355 [Eh]
	 Total Energy              =    -440.4751574963794951 [Eh]

	 ================> DF-SCS-MP2 Energies <==================
	-----------------------------------------------------------
	 SCS Same-Spin Scale       =       0.3333333333333333 [-]
	 SCS Opposite-Spin Scale   =       1.2000000000000000 [-]
	 SCS Same-Spin Energy      =      -0.1669187737054694 [Eh]
	 SCS Opposite-Spin Energy  =      -1.8405854847012328 [Eh]
	 SCS Correlation Energy    =      -2.0075042584067022 [Eh]
	 SCS Total Energy          =    -440.4480841964187334 [Eh]
	-----------------------------------------------------------

  Dipole Moment: [D]
     X:     0.4049      Y:    -1.2825      Z:    -0.6282     Total:     1.4844

*** Psi4 exiting successfully. Buy a developer a beer!
