                               Psi4 1.3.2 release

  ==> Input File <==

--------------------------------------------------------------------------
#psi4
#
memory 32 gb

molecule  {
0 1
  N        1.7773000    -0.9706020    -0.3863220
  C        1.0080060     0.0962300     0.0271750
  C       -0.4716801     0.0307734     0.0213077
  C        1.8938950     1.0905280     0.4329840
  C       -1.1961700     1.1987140    -0.2700270
  C       -1.1363230    -1.1523850     0.2941990
  C        3.1117900    -0.6733570    -0.2771830
  C        3.2093430     0.6071710     0.2411150
  C       -2.5895110     1.1608830    -0.2689850
  C       -2.5303830    -1.1922690     0.2696200
  C       -3.2626170    -0.0361670    -0.0095020
  H        1.3994420    -1.7974010    -0.8317830
  H        1.6076040     2.0422160     0.8629880
  H       -0.6712930     2.1216380    -0.5070250
  H       -0.5746270    -2.0444360     0.5668450
  H        3.8716190    -1.3816710    -0.5776140
  H        4.1315670     1.1252340     0.4699550
  H       -3.1528190     2.0640850    -0.4925600
  H       -3.0466780    -2.1247140     0.4868240
  H       -4.3493910    -0.0663800    -0.0199320
units angstrom
no_reorient  #important for SAPT in psi4, default
symmetry c1  #important for SAPT in psi4, default
}

set PROPERTIES_ORIGIN ["COM"]
properties('MP2/aug-cc-pvtz', properties = ['dipole'])
--------------------------------------------------------------------------

    Molecular point group: c1
  Charge       = 0
  Multiplicity = 1
  Basis Set: AUG-CC-PVTZ
    Blend: AUG-CC-PVTZ
  Basis Set: (AUG-CC-PVTZ AUX)
    Blend: AUG-CC-PVTZ-JKFIT

    Orbital Energies [Eh]
    ---------------------

    Doubly Occupied:

       1A    -15.607644     2A    -11.262894     3A    -11.255711
       4A    -11.252700     5A    -11.242128     6A    -11.240865
       7A    -11.238718     8A    -11.238105     9A    -11.237795
      10A    -11.213333    11A    -11.212203    12A     -1.293224
      13A     -1.158404    14A     -1.047003    15A     -1.042459
      16A     -1.018121    17A     -0.959280    18A     -0.835964
      19A     -0.833597    20A     -0.788082    21A     -0.764484
      22A     -0.734717    23A     -0.679512    24A     -0.633083
      25A     -0.630885    26A     -0.593670    27A     -0.590046
      28A     -0.581195    29A     -0.568269    30A     -0.549031
      31A     -0.536434    32A     -0.505608    33A     -0.497857
      34A     -0.497732    35A     -0.362993    36A     -0.349772
      37A     -0.341792    38A     -0.274634

  @DF-RHF Final Energy:  -438.50879254358387

   => Energetics <=

    Nuclear Repulsion Energy =            536.8475474166098138
    One-Electron Energy =               -1657.3727926040189686
    Two-Electron Energy =                 682.0164526438252324
    Total Energy =                       -438.5087925435839225
  Basis Set: (AUG-CC-PVTZ AUX)
    Blend: AUG-CC-PVTZ-RI
    Molecular point group: c1

    Geometry (in Angstrom), charge = 0, multiplicity = 1:

       Center              X                  Y                   Z               Mass
    ------------   -----------------  -----------------  -----------------  -----------------
         N            1.773573615322    -0.969959920795    -0.386854005091    14.003074004430
         C            1.004279615322     0.096872079205     0.026642994909    12.000000000000
         C           -0.475406484678     0.031415479205     0.020775694909    12.000000000000
         C            1.890168615322     1.091170079205     0.432451994909    12.000000000000
         C           -1.199896384678     1.199356079205    -0.270559005091    12.000000000000
         C           -1.140049384678    -1.151742920795     0.293666994909    12.000000000000
         C            3.108063615322    -0.672714920795    -0.277715005091    12.000000000000
         C            3.205616615322     0.607813079205     0.240582994909    12.000000000000
         C           -2.593237384678     1.161525079205    -0.269517005091    12.000000000000
         C           -2.534109384678    -1.191626920795     0.269087994909    12.000000000000
         C           -3.266343384678    -0.035524920795    -0.010034005091    12.000000000000
         H            1.395715615322    -1.796758920795    -0.832315005091     1.007825032230
         H            1.603877615322     2.042858079205     0.862455994909     1.007825032230
         H           -0.675019384678     2.122280079205    -0.507557005091     1.007825032230
         H           -0.578353384678    -2.043793920795     0.566312994909     1.007825032230
         H            3.867892615322    -1.381028920795    -0.578146005091     1.007825032230
         H            4.127840615322     1.125876079205     0.469422994909     1.007825032230
         H           -3.156545384678     2.064727079205    -0.493092005091     1.007825032230
         H           -3.050404384678    -2.124071920795     0.486291994909     1.007825032230
         H           -4.353117384678    -0.065737920795    -0.020464005091     1.007825032230

  Basis Set: AUG-CC-PVTZ
    Blend: AUG-CC-PVTZ
  Basis Set: (AUG-CC-PVTZ AUX)
    Blend: AUG-CC-PVTZ-JKFIT
	 Reference Energy          =    -438.5087925435838656 [Eh]
	 Singles Energy            =      -0.0000000000000000 [Eh]
	 Same-Spin Energy          =      -0.4949631520954738 [Eh]
	 Opposite-Spin Energy      =      -1.5249176389372936 [Eh]
	 Correlation Energy        =      -2.0198807910327674 [Eh]
	 Total Energy              =    -440.5286733346166557 [Eh]

	 ================> DF-SCS-MP2 Energies <==================
	-----------------------------------------------------------
	 SCS Same-Spin Scale       =       0.3333333333333333 [-]
	 SCS Opposite-Spin Scale   =       1.2000000000000000 [-]
	 SCS Same-Spin Energy      =      -0.1649877173651579 [Eh]
	 SCS Opposite-Spin Energy  =      -1.8299011667247522 [Eh]
	 SCS Correlation Energy    =      -1.9948888840899102 [Eh]
	 SCS Total Energy          =    -440.5036814276737687 [Eh]
	-----------------------------------------------------------

  Dipole Moment: [D]
     X:    -0.5226      Y:    -1.3205      Z:    -0.6475     Total:     1.5608

*** Psi4 exiting successfully. Buy a developer a beer!
