                               Psi4 1.3.2 release

  ==> Input File <==

--------------------------------------------------------------------------
#psi4
#
memory 32 gb

molecule  {
0 1
  N        1.7971505    -0.9578448    -0.3816048
  C        1.0080060     0.0962300     0.0271750
  C       -0.4507830     0.0432590     0.0183630
  C        1.8938950     1.0905280     0.4329840
  C       -1.1961700     1.1987140    -0.2700270
  C       -1.1363230    -1.1523850     0.2941990
  C        3.1117900    -0.6733570    -0.2771830
  C        3.2093430     0.6071710     0.2411150
  C       -2.5895110     1.1608830    -0.2689850
  C       -2.5303830    -1.1922690     0.2696200
  C       -3.2626170    -0.0361670    -0.0095020
  H        1.3994420    -1.7974010    -0.8317830
  H        1.6076040     2.0422160     0.8629880
  H       -0.6712930     2.1216380    -0.5070250
  H       -0.5746270    -2.0444360     0.5668450
  H        3.8716190    -1.3816710    -0.5776140
  H        4.1315670     1.1252340     0.4699550
  H       -3.1528190     2.0640850    -0.4925600
  H       -3.0466780    -2.1247140     0.4868240
  H       -4.3493910    -0.0663800    -0.0199320
units angstrom
no_reorient  #important for SAPT in psi4, default
symmetry c1  #important for SAPT in psi4, default
}

set PROPERTIES_ORIGIN ["COM"]
properties('MP2/aug-cc-pvtz', properties = ['dipole'])
--------------------------------------------------------------------------

    Molecular point group: c1
  Charge       = 0
  Multiplicity = 1
  Basis Set: AUG-CC-PVTZ
    Blend: AUG-CC-PVTZ
  Basis Set: (AUG-CC-PVTZ AUX)
    Blend: AUG-CC-PVTZ-JKFIT

    Orbital Energies [Eh]
    ---------------------

    Doubly Occupied:

       1A    -15.610408     2A    -11.260314     3A    -11.255203
       4A    -11.253760     5A    -11.242062     6A    -11.240780
       7A    -11.240499     8A    -11.237908     9A    -11.237625
      10A    -11.213151    11A    -11.211100    12A     -1.299321
      13A     -1.156425    14A     -1.049652    15A     -1.040360
      16A     -1.016738    17A     -0.961282    18A     -0.837668
      19A     -0.832365    20A     -0.784451    21A     -0.766376
      22A     -0.736064    23A     -0.680867    24A     -0.634681
      25A     -0.629817    26A     -0.591544    27A     -0.589388
      28A     -0.582195    29A     -0.572103    30A     -0.548757
      31A     -0.536586    32A     -0.505178    33A     -0.500889
      34A     -0.494208    35A     -0.364484    36A     -0.348361
      37A     -0.341393    38A     -0.273118

  @DF-RHF Final Energy:  -438.50769412728926

   => Energetics <=

    Nuclear Repulsion Energy =            537.0577862254632464
    One-Electron Energy =               -1657.7767996261113694
    Two-Electron Energy =                 682.2113192733589813
    Total Energy =                       -438.5076941272892554
  Basis Set: (AUG-CC-PVTZ AUX)
    Blend: AUG-CC-PVTZ-RI
    Molecular point group: c1

    Geometry (in Angstrom), charge = 0, multiplicity = 1:

       Center              X                  Y                   Z               Mass
    ------------   -----------------  -----------------  -----------------  -----------------
         N            1.789728579649    -0.959498514336    -0.382351512223    14.003074004430
         C            1.000584079649     0.094576285664     0.026428287777    12.000000000000
         C           -0.458204920351     0.041605285664     0.017616287777    12.000000000000
         C            1.886473079649     1.088874285664     0.432237287777    12.000000000000
         C           -1.203591920351     1.197060285664    -0.270773712223    12.000000000000
         C           -1.143744920351    -1.154038714336     0.293452287777    12.000000000000
         C            3.104368079649    -0.675010714336    -0.277929712223    12.000000000000
         C            3.201921079649     0.605517285664     0.240368287777    12.000000000000
         C           -2.596932920351     1.159229285664    -0.269731712223    12.000000000000
         C           -2.537804920351    -1.193922714336     0.268873287777    12.000000000000
         C           -3.270038920351    -0.037820714336    -0.010248712223    12.000000000000
         H            1.392020079649    -1.799054714336    -0.832529712223     1.007825032230
         H            1.600182079649     2.040562285664     0.862241287777     1.007825032230
         H           -0.678714920351     2.119984285664    -0.507771712223     1.007825032230
         H           -0.582048920351    -2.046089714336     0.566098287777     1.007825032230
         H            3.864197079649    -1.383324714336    -0.578360712223     1.007825032230
         H            4.124145079649     1.123580285664     0.469208287777     1.007825032230
         H           -3.160240920351     2.062431285664    -0.493306712223     1.007825032230
         H           -3.054099920351    -2.126367714336     0.486077287777     1.007825032230
         H           -4.356812920351    -0.068033714336    -0.020678712223     1.007825032230

  Basis Set: AUG-CC-PVTZ
    Blend: AUG-CC-PVTZ
  Basis Set: (AUG-CC-PVTZ AUX)
    Blend: AUG-CC-PVTZ-JKFIT
	 Reference Energy          =    -438.5076941272892554 [Eh]
	 Singles Energy            =      -0.0000000000000000 [Eh]
	 Same-Spin Energy          =      -0.4955505218393123 [Eh]
	 Opposite-Spin Energy      =      -1.5254134276868387 [Eh]
	 Correlation Energy        =      -2.0209639495261511 [Eh]
	 Total Energy              =    -440.5286580768154181 [Eh]

	 ================> DF-SCS-MP2 Energies <==================
	-----------------------------------------------------------
	 SCS Same-Spin Scale       =       0.3333333333333333 [-]
	 SCS Opposite-Spin Scale   =       1.2000000000000000 [-]
	 SCS Same-Spin Energy      =      -0.1651835072797707 [Eh]
	 SCS Opposite-Spin Energy  =      -1.8304961132242064 [Eh]
	 SCS Correlation Energy    =      -1.9956796205039771 [Eh]
	 SCS Total Energy          =    -440.5033737477932050 [Eh]
	-----------------------------------------------------------

  Dipole Moment: [D]
     X:    -0.4808      Y:    -1.3744      Z:    -0.6680     Total:     1.6020

*** Psi4 exiting successfully. Buy a developer a beer!
