                               Psi4 1.3.2 release

  ==> Input File <==

--------------------------------------------------------------------------
#psi4
#
memory 32 gb

molecule  {
0 1
  N        1.7773000    -0.9706020    -0.3863220
  C        1.0484050     0.1206899     0.0364280
  C       -0.4507830     0.0432590     0.0183630
  C        1.8938950     1.0905280     0.4329840
  C       -1.1961700     1.1987140    -0.2700270
  C       -1.1363230    -1.1523850     0.2941990
  C        3.1117900    -0.6733570    -0.2771830
  C        3.2093430     0.6071710     0.2411150
  C       -2.5895110     1.1608830    -0.2689850
  C       -2.5303830    -1.1922690     0.2696200
  C       -3.2626170    -0.0361670    -0.0095020
  H        1.3994420    -1.7974010    -0.8317830
  H        1.6076040     2.0422160     0.8629880
  H       -0.6712930     2.1216380    -0.5070250
  H       -0.5746270    -2.0444360     0.5668450
  H        3.8716190    -1.3816710    -0.5776140
  H        4.1315670     1.1252340     0.4699550
  H       -3.1528190     2.0640850    -0.4925600
  H       -3.0466780    -2.1247140     0.4868240
  H       -4.3493910    -0.0663800    -0.0199320
units angstrom
no_reorient  #important for SAPT in psi4, default
symmetry c1  #important for SAPT in psi4, default
}

set PROPERTIES_ORIGIN ["COM"]
properties('MP2/aug-cc-pvtz', properties = ['dipole'])
--------------------------------------------------------------------------

    Molecular point group: c1
  Charge       = 0
  Multiplicity = 1
  Basis Set: AUG-CC-PVTZ
    Blend: AUG-CC-PVTZ
  Basis Set: (AUG-CC-PVTZ AUX)
    Blend: AUG-CC-PVTZ-JKFIT

    Orbital Energies [Eh]
    ---------------------

    Doubly Occupied:

       1A    -15.605128     2A    -11.259950     3A    -11.256072
       4A    -11.255099     5A    -11.241943     6A    -11.240572
       7A    -11.240293     8A    -11.237677     9A    -11.237203
      10A    -11.212270    11A    -11.208175    12A     -1.295539
      13A     -1.154549    14A     -1.052215    15A     -1.039989
      16A     -1.016541    17A     -0.961087    18A     -0.833558
      19A     -0.831145    20A     -0.789808    21A     -0.767241
      22A     -0.732621    23A     -0.679398    24A     -0.631145
      25A     -0.628798    26A     -0.598290    27A     -0.589328
      28A     -0.578580    29A     -0.569033    30A     -0.552623
      31A     -0.537051    32A     -0.503400    33A     -0.496955
      34A     -0.494841    35A     -0.363166    36A     -0.350398
      37A     -0.340953    38A     -0.279188

  @DF-RHF Final Energy:  -438.50831001622669

   => Energetics <=

    Nuclear Repulsion Energy =            536.8394896982596265
    One-Electron Energy =               -1657.3719572339509796
    Two-Electron Energy =                 682.0241575194647794
    Total Energy =                       -438.5083100162266874
  Basis Set: (AUG-CC-PVTZ AUX)
    Blend: AUG-CC-PVTZ-RI
    Molecular point group: c1

    Geometry (in Angstrom), charge = 0, multiplicity = 1:

       Center              X                  Y                   Z               Mass
    ------------   -----------------  -----------------  -----------------  -----------------
         N            1.768432529072    -0.973058649785    -0.387383100977    14.003074004430
         C            1.039537529072     0.118233250215     0.035366899023    12.000000000000
         C           -0.459650470928     0.040802350215     0.017301899023    12.000000000000
         C            1.885027529072     1.088071350215     0.431922899023    12.000000000000
         C           -1.205037470928     1.196257350215    -0.271088100977    12.000000000000
         C           -1.145190470928    -1.154841649785     0.293137899023    12.000000000000
         C            3.102922529072    -0.675813649785    -0.278244100977    12.000000000000
         C            3.200475529072     0.604714350215     0.240053899023    12.000000000000
         C           -2.598378470928     1.158426350215    -0.270046100977    12.000000000000
         C           -2.539250470928    -1.194725649785     0.268558899023    12.000000000000
         C           -3.271484470928    -0.038623649785    -0.010563100977    12.000000000000
         H            1.390574529072    -1.799857649785    -0.832844100977     1.007825032230
         H            1.598736529072     2.039759350215     0.861926899023     1.007825032230
         H           -0.680160470928     2.119181350215    -0.508086100977     1.007825032230
         H           -0.583494470928    -2.046892649785     0.565783899023     1.007825032230
         H            3.862751529072    -1.384127649785    -0.578675100977     1.007825032230
         H            4.122699529072     1.122777350215     0.468893899023     1.007825032230
         H           -3.161686470928     2.061628350215    -0.493621100977     1.007825032230
         H           -3.055545470928    -2.127170649785     0.485762899023     1.007825032230
         H           -4.358258470928    -0.068836649785    -0.020993100977     1.007825032230

  Basis Set: AUG-CC-PVTZ
    Blend: AUG-CC-PVTZ
  Basis Set: (AUG-CC-PVTZ AUX)
    Blend: AUG-CC-PVTZ-JKFIT
	 Reference Energy          =    -438.5083100162266874 [Eh]
	 Singles Energy            =      -0.0000000000000000 [Eh]
	 Same-Spin Energy          =      -0.4941054643021501 [Eh]
	 Opposite-Spin Energy      =      -1.5238095758751209 [Eh]
	 Correlation Energy        =      -2.0179150401772712 [Eh]
	 Total Energy              =    -440.5262250564039732 [Eh]

	 ================> DF-SCS-MP2 Energies <==================
	-----------------------------------------------------------
	 SCS Same-Spin Scale       =       0.3333333333333333 [-]
	 SCS Opposite-Spin Scale   =       1.2000000000000000 [-]
	 SCS Same-Spin Energy      =      -0.1647018214340500 [Eh]
	 SCS Opposite-Spin Energy  =      -1.8285714910501449 [Eh]
	 SCS Correlation Energy    =      -1.9932733124841950 [Eh]
	 SCS Total Energy          =    -440.5015833287108649 [Eh]
	-----------------------------------------------------------

  Dipole Moment: [D]
     X:    -0.5051      Y:    -1.2842      Z:    -0.6316     Total:     1.5176

*** Psi4 exiting successfully. Buy a developer a beer!
