                               Psi4 1.3.2 release

  ==> Input File <==

--------------------------------------------------------------------------
#psi4
#
memory 32 gb

molecule  {
0 1
  N        1.7773000    -0.9706020    -0.3863220
  C        0.9689286     0.0731960     0.0111010
  C       -0.4507830     0.0432590     0.0183630
  C        1.8938950     1.0905280     0.4329840
  C       -1.1961700     1.1987140    -0.2700270
  C       -1.1363230    -1.1523850     0.2941990
  C        3.1117900    -0.6733570    -0.2771830
  C        3.2093430     0.6071710     0.2411150
  C       -2.5895110     1.1608830    -0.2689850
  C       -2.5303830    -1.1922690     0.2696200
  C       -3.2626170    -0.0361670    -0.0095020
  H        1.3994420    -1.7974010    -0.8317830
  H        1.6076040     2.0422160     0.8629880
  H       -0.6712930     2.1216380    -0.5070250
  H       -0.5746270    -2.0444360     0.5668450
  H        3.8716190    -1.3816710    -0.5776140
  H        4.1315670     1.1252340     0.4699550
  H       -3.1528190     2.0640850    -0.4925600
  H       -3.0466780    -2.1247140     0.4868240
  H       -4.3493910    -0.0663800    -0.0199320
units angstrom
no_reorient  #important for SAPT in psi4, default
symmetry c1  #important for SAPT in psi4, default
}

set PROPERTIES_ORIGIN ["COM"]
properties('MP2/aug-cc-pvtz', properties = ['dipole'])
--------------------------------------------------------------------------

    Molecular point group: c1
  Charge       = 0
  Multiplicity = 1
  Basis Set: AUG-CC-PVTZ
    Blend: AUG-CC-PVTZ
  Basis Set: (AUG-CC-PVTZ AUX)
    Blend: AUG-CC-PVTZ-JKFIT

    Orbital Energies [Eh]
    ---------------------

    Doubly Occupied:

       1A    -15.611586     2A    -11.264152     3A    -11.257381
       4A    -11.251000     5A    -11.241989     6A    -11.240962
       7A    -11.240305     8A    -11.238231     9A    -11.237718
      10A    -11.218130    11A    -11.214887    12A     -1.293242
      13A     -1.157877    14A     -1.052559    15A     -1.040743
      16A     -1.016896    17A     -0.957015    18A     -0.842409
      19A     -0.833157    20A     -0.787324    21A     -0.763236
      22A     -0.737625    23A     -0.680221    24A     -0.635724
      25A     -0.630741    26A     -0.591833    27A     -0.588986
      28A     -0.586360    29A     -0.568738    30A     -0.545077
      31A     -0.536914    32A     -0.507294    33A     -0.501395
      34A     -0.492884    35A     -0.365034    36A     -0.349692
      37A     -0.341627    38A     -0.267247

  @DF-RHF Final Energy:  -438.50274161537988

   => Energetics <=

    Nuclear Repulsion Energy =            536.8626663103756300
    One-Electron Energy =               -1657.3544287711536072
    Two-Electron Energy =                 681.9890208453980449
    Total Energy =                       -438.5027416153798185
  Basis Set: (AUG-CC-PVTZ AUX)
    Blend: AUG-CC-PVTZ-RI
    Molecular point group: c1

    Geometry (in Angstrom), charge = 0, multiplicity = 1:

       Center              X                  Y                   Z               Mass
    ------------   -----------------  -----------------  -----------------  -----------------
         N            1.775098451166    -0.969075195107    -0.385258850145    14.003074004430
         C            0.966727051166     0.074722804893     0.012164149855    12.000000000000
         C           -0.452984548834     0.044785804893     0.019426149855    12.000000000000
         C            1.891693451166     1.092054804893     0.434047149855    12.000000000000
         C           -1.198371548834     1.200240804893    -0.268963850145    12.000000000000
         C           -1.138524548834    -1.150858195107     0.295262149855    12.000000000000
         C            3.109588451166    -0.671830195107    -0.276119850145    12.000000000000
         C            3.207141451166     0.608697804893     0.242178149855    12.000000000000
         C           -2.591712548834     1.162409804893    -0.267921850145    12.000000000000
         C           -2.532584548834    -1.190742195107     0.270683149855    12.000000000000
         C           -3.264818548834    -0.034640195107    -0.008438850145    12.000000000000
         H            1.397240451166    -1.795874195107    -0.830719850145     1.007825032230
         H            1.605402451166     2.043742804893     0.864051149855     1.007825032230
         H           -0.673494548834     2.123164804893    -0.505961850145     1.007825032230
         H           -0.576828548834    -2.042909195107     0.567908149855     1.007825032230
         H            3.869417451166    -1.380144195107    -0.576550850145     1.007825032230
         H            4.129365451166     1.126760804893     0.471018149855     1.007825032230
         H           -3.155020548834     2.065611804893    -0.491496850145     1.007825032230
         H           -3.048879548834    -2.123187195107     0.487887149855     1.007825032230
         H           -4.351592548834    -0.064853195107    -0.018868850145     1.007825032230

  Basis Set: AUG-CC-PVTZ
    Blend: AUG-CC-PVTZ
  Basis Set: (AUG-CC-PVTZ AUX)
    Blend: AUG-CC-PVTZ-JKFIT
	 Reference Energy          =    -438.5027416153798754 [Eh]
	 Singles Energy            =      -0.0000000000000000 [Eh]
	 Same-Spin Energy          =      -0.4966052580671275 [Eh]
	 Opposite-Spin Energy      =      -1.5272596173187920 [Eh]
	 Correlation Energy        =      -2.0238648753859194 [Eh]
	 Total Energy              =    -440.5266064907658006 [Eh]

	 ================> DF-SCS-MP2 Energies <==================
	-----------------------------------------------------------
	 SCS Same-Spin Scale       =       0.3333333333333333 [-]
	 SCS Opposite-Spin Scale   =       1.2000000000000000 [-]
	 SCS Same-Spin Energy      =      -0.1655350860223758 [Eh]
	 SCS Opposite-Spin Energy  =      -1.8327115407825503 [Eh]
	 SCS Correlation Energy    =      -1.9982466268049262 [Eh]
	 SCS Total Energy          =    -440.5009882421848033 [Eh]
	-----------------------------------------------------------

  Dipole Moment: [D]
     X:    -0.3761      Y:    -1.3489      Z:    -0.6590     Total:     1.5476

*** Psi4 exiting successfully. Buy a developer a beer!
