                               Psi4 1.3.2 release

  ==> Input File <==

--------------------------------------------------------------------------
#psi4
#
memory 32 gb

molecule  {
0 1
  N        1.7773000    -0.9706020    -0.3863220
  C        1.0080060     0.0962300     0.0271750
  C       -0.4507830     0.0432590     0.0183630
  C        1.8938950     1.0905280     0.4329840
  C       -1.1961700     1.1987140    -0.2700270
  C       -1.1363230    -1.1523850     0.2941990
  C        3.1117900    -0.6733570    -0.2771830
  C        3.1610778     0.6092621     0.2427789
  C       -2.5895110     1.1608830    -0.2689850
  C       -2.5303830    -1.1922690     0.2696200
  C       -3.2626170    -0.0361670    -0.0095020
  H        1.3994420    -1.7974010    -0.8317830
  H        1.6076040     2.0422160     0.8629880
  H       -0.6712930     2.1216380    -0.5070250
  H       -0.5746270    -2.0444360     0.5668450
  H        3.8716190    -1.3816710    -0.5776140
  H        4.1315670     1.1252340     0.4699550
  H       -3.1528190     2.0640850    -0.4925600
  H       -3.0466780    -2.1247140     0.4868240
  H       -4.3493910    -0.0663800    -0.0199320
units angstrom
no_reorient  #important for SAPT in psi4, default
symmetry c1  #important for SAPT in psi4, default
}

set PROPERTIES_ORIGIN ["COM"]
properties('MP2/aug-cc-pvtz', properties = ['dipole'])
--------------------------------------------------------------------------

    Molecular point group: c1
  Charge       = 0
  Multiplicity = 1
  Basis Set: AUG-CC-PVTZ
    Blend: AUG-CC-PVTZ
  Basis Set: (AUG-CC-PVTZ AUX)
    Blend: AUG-CC-PVTZ-JKFIT

    Orbital Energies [Eh]
    ---------------------

    Doubly Occupied:

       1A    -15.609515     2A    -11.261393     3A    -11.254314
       4A    -11.252940     5A    -11.241794     6A    -11.240574
       7A    -11.240138     8A    -11.237657     9A    -11.237381
      10A    -11.212636    11A    -11.209210    12A     -1.296700
      13A     -1.155956    14A     -1.053300    15A     -1.045827
      16A     -1.016771    17A     -0.958352    18A     -0.838881
      19A     -0.831738    20A     -0.789484    21A     -0.762044
      22A     -0.735449    23A     -0.679837    24A     -0.633225
      25A     -0.629712    26A     -0.592462    27A     -0.587653
      28A     -0.583674    29A     -0.570606    30A     -0.548668
      31A     -0.537201    32A     -0.504463    33A     -0.500290
      34A     -0.493850    35A     -0.363361    36A     -0.355871
      37A     -0.341198    38A     -0.270833

  @DF-RHF Final Energy:  -438.50473921734601

   => Energetics <=

    Nuclear Repulsion Energy =            537.7468721287054905
    One-Electron Energy =               -1659.1533084167122070
    Two-Electron Energy =                 682.9016970706607026
    Total Energy =                       -438.5047392173460139
  Basis Set: (AUG-CC-PVTZ AUX)
    Blend: AUG-CC-PVTZ-RI
    Molecular point group: c1

    Geometry (in Angstrom), charge = 0, multiplicity = 1:

       Center              X                  Y                   Z               Mass
    ------------   -----------------  -----------------  -----------------  -----------------
         N            1.775869059284    -0.971182511986    -0.386746580584    14.003074004430
         C            1.006575059284     0.095649488014     0.026750419416    12.000000000000
         C           -0.452213940716     0.042678488014     0.017938419416    12.000000000000
         C            1.892464059284     1.089947488014     0.432559419416    12.000000000000
         C           -1.197600940716     1.198133488014    -0.270451580584    12.000000000000
         C           -1.137753940716    -1.152965511986     0.293774419416    12.000000000000
         C            3.110359059284    -0.673937511986    -0.277607580584    12.000000000000
         C            3.159646859284     0.608681588014     0.242354319416    12.000000000000
         C           -2.590941940716     1.160302488014    -0.269409580584    12.000000000000
         C           -2.531813940716    -1.192849511986     0.269195419416    12.000000000000
         C           -3.264047940716    -0.036747511986    -0.009926580584    12.000000000000
         H            1.398011059284    -1.797981511986    -0.832207580584     1.007825032230
         H            1.606173059284     2.041635488014     0.862563419416     1.007825032230
         H           -0.672723940716     2.121057488014    -0.507449580584     1.007825032230
         H           -0.576057940716    -2.045016511986     0.566420419416     1.007825032230
         H            3.870188059284    -1.382251511986    -0.578038580584     1.007825032230
         H            4.130136059284     1.124653488014     0.469530419416     1.007825032230
         H           -3.154249940716     2.063504488014    -0.492984580584     1.007825032230
         H           -3.048108940716    -2.125294511986     0.486399419416     1.007825032230
         H           -4.350821940716    -0.066960511986    -0.020356580584     1.007825032230

  Basis Set: AUG-CC-PVTZ
    Blend: AUG-CC-PVTZ
  Basis Set: (AUG-CC-PVTZ AUX)
    Blend: AUG-CC-PVTZ-JKFIT
	 Reference Energy          =    -438.5047392173460139 [Eh]
	 Singles Energy            =      -0.0000000000000000 [Eh]
	 Same-Spin Energy          =      -0.4959614785322889 [Eh]
	 Opposite-Spin Energy      =      -1.5259085043929836 [Eh]
	 Correlation Energy        =      -2.0218699829252724 [Eh]
	 Total Energy              =    -440.5266092002713094 [Eh]

	 ================> DF-SCS-MP2 Energies <==================
	-----------------------------------------------------------
	 SCS Same-Spin Scale       =       0.3333333333333333 [-]
	 SCS Opposite-Spin Scale   =       1.2000000000000000 [-]
	 SCS Same-Spin Energy      =      -0.1653204928440963 [Eh]
	 SCS Opposite-Spin Energy  =      -1.8310902052715803 [Eh]
	 SCS Correlation Energy    =      -1.9964106981156766 [Eh]
	 SCS Total Energy          =    -440.5011499154616672 [Eh]
	-----------------------------------------------------------

  Dipole Moment: [D]
     X:    -0.4220      Y:    -1.3208      Z:    -0.6502     Total:     1.5314

*** Psi4 exiting successfully. Buy a developer a beer!
