                               Psi4 1.3.2 release

  ==> Input File <==

--------------------------------------------------------------------------
#psi4
#
memory 32 gb

molecule  {
0 1
  N        1.7773000    -0.9706020    -0.3863220
  C        1.0080060     0.0962300     0.0271750
  C       -0.4507830     0.0432590     0.0183630
  C        1.8938950     1.0905280     0.4329840
  C       -1.1961700     1.1987140    -0.2700270
  C       -1.1363230    -1.1523850     0.2941990
  C        3.1117900    -0.6733570    -0.2771830
  C        3.1952547     0.4222416     0.1662642
  C       -2.5895110     1.1608830    -0.2689850
  C       -2.5303830    -1.1922690     0.2696200
  C       -3.2626170    -0.0361670    -0.0095020
  H        1.3994420    -1.7974010    -0.8317830
  H        1.6076040     2.0422160     0.8629880
  H       -0.6712930     2.1216380    -0.5070250
  H       -0.5746270    -2.0444360     0.5668450
  H        3.8716190    -1.3816710    -0.5776140
  H        4.1315670     1.1252340     0.4699550
  H       -3.1528190     2.0640850    -0.4925600
  H       -3.0466780    -2.1247140     0.4868240
  H       -4.3493910    -0.0663800    -0.0199320
units angstrom
no_reorient  #important for SAPT in psi4, default
symmetry c1  #important for SAPT in psi4, default
}

set PROPERTIES_ORIGIN ["COM"]
properties('MP2/aug-cc-pvtz', properties = ['dipole'])
--------------------------------------------------------------------------

    Molecular point group: c1
  Charge       = 0
  Multiplicity = 1
  Basis Set: AUG-CC-PVTZ
    Blend: AUG-CC-PVTZ
  Basis Set: (AUG-CC-PVTZ AUX)
    Blend: AUG-CC-PVTZ-JKFIT

    Orbital Energies [Eh]
    ---------------------

    Doubly Occupied:

       1A    -15.590464     2A    -11.266567     3A    -11.252801
       4A    -11.242918     5A    -11.241822     6A    -11.241552
       7A    -11.239834     8A    -11.239434     9A    -11.227304
      10A    -11.212177    11A    -11.202402    12A     -1.301034
      13A     -1.157931    14A     -1.061545    15A     -1.041576
      16A     -1.017886    17A     -0.974072    18A     -0.844247
      19A     -0.832017    20A     -0.773869    21A     -0.750967
      22A     -0.738714    23A     -0.682268    24A     -0.634144
      25A     -0.630496    26A     -0.593850    27A     -0.591251
      28A     -0.582053    29A     -0.573823    30A     -0.570214
      31A     -0.512535    32A     -0.506348    33A     -0.497225
      34A     -0.469721    35A     -0.375023    36A     -0.347592
      37A     -0.342102    38A     -0.290198

  @DF-RHF Final Energy:  -438.45020600931940

   => Energetics <=

    Nuclear Repulsion Energy =            539.4450133580818374
    One-Electron Energy =               -1662.4904912422493908
    Two-Electron Energy =                 684.5952718748483221
    Total Energy =                       -438.4502060093193450
  Basis Set: (AUG-CC-PVTZ AUX)
    Blend: AUG-CC-PVTZ-RI
    Molecular point group: c1

    Geometry (in Angstrom), charge = 0, multiplicity = 1:

       Center              X                  Y                   Z               Mass
    ------------   -----------------  -----------------  -----------------  -----------------
         N            1.773002541011    -0.955496546304    -0.380329065080    14.003074004430
         C            1.003708541011     0.111335453696     0.033167934920    12.000000000000
         C           -0.455080458989     0.058364453696     0.024355934920    12.000000000000
         C            1.889597541011     1.105633453696     0.438976934920    12.000000000000
         C           -1.200467458989     1.213819453696    -0.264034065080    12.000000000000
         C           -1.140620458989    -1.137279546304     0.300191934920    12.000000000000
         C            3.107492541011    -0.658251546304    -0.271190065080    12.000000000000
         C            3.190957241011     0.437347053696     0.172257134920    12.000000000000
         C           -2.593808458989     1.175988453696    -0.262992065080    12.000000000000
         C           -2.534680458989    -1.177163546304     0.275612934920    12.000000000000
         C           -3.266914458989    -0.021061546304    -0.003509065080    12.000000000000
         H            1.395144541011    -1.782295546304    -0.825790065080     1.007825032230
         H            1.603306541011     2.057321453696     0.868980934920     1.007825032230
         H           -0.675590458989     2.136743453696    -0.501032065080     1.007825032230
         H           -0.578924458989    -2.029330546304     0.572837934920     1.007825032230
         H            3.867321541011    -1.366565546304    -0.571621065080     1.007825032230
         H            4.127269541011     1.140339453696     0.475947934920     1.007825032230
         H           -3.157116458989     2.079190453696    -0.486567065080     1.007825032230
         H           -3.050975458989    -2.109608546304     0.492816934920     1.007825032230
         H           -4.353688458989    -0.051274546304    -0.013939065080     1.007825032230

  Basis Set: AUG-CC-PVTZ
    Blend: AUG-CC-PVTZ
  Basis Set: (AUG-CC-PVTZ AUX)
    Blend: AUG-CC-PVTZ-JKFIT
	 Reference Energy          =    -438.4502060093194018 [Eh]
	 Singles Energy            =      -0.0000000000000000 [Eh]
	 Same-Spin Energy          =      -0.4929245704841510 [Eh]
	 Opposite-Spin Energy      =      -1.5224458131002705 [Eh]
	 Correlation Energy        =      -2.0153703835844214 [Eh]
	 Total Energy              =    -440.4655763929038130 [Eh]

	 ================> DF-SCS-MP2 Energies <==================
	-----------------------------------------------------------
	 SCS Same-Spin Scale       =       0.3333333333333333 [-]
	 SCS Opposite-Spin Scale   =       1.2000000000000000 [-]
	 SCS Same-Spin Energy      =      -0.1643081901613836 [Eh]
	 SCS Opposite-Spin Energy  =      -1.8269349757203246 [Eh]
	 SCS Correlation Energy    =      -1.9912431658817082 [Eh]
	 SCS Total Energy          =    -440.4414491752011145 [Eh]
	-----------------------------------------------------------

  Dipole Moment: [D]
     X:    -0.5076      Y:    -1.2623      Z:    -0.6222     Total:     1.4961

*** Psi4 exiting successfully. Buy a developer a beer!
