                               Psi4 1.3.2 release

  ==> Input File <==

--------------------------------------------------------------------------
#psi4
#
memory 32 gb

molecule  {
0 1
  N        1.7773000    -0.9706020    -0.3863220
  C        1.0080060     0.0962300     0.0271750
  C       -0.4507830     0.0432590     0.0183630
  C        1.8938950     1.0905280     0.4329840
  C       -1.1961700     1.1987140    -0.2700270
  C       -1.1363230    -1.1523850     0.2941990
  C        3.1117900    -0.6733570    -0.2771830
  C        3.0233501     0.6755135     0.2682436
  C       -2.5895110     1.1608830    -0.2689850
  C       -2.5303830    -1.1922690     0.2696200
  C       -3.2626170    -0.0361670    -0.0095020
  H        1.3994420    -1.7974010    -0.8317830
  H        1.6076040     2.0422160     0.8629880
  H       -0.6712930     2.1216380    -0.5070250
  H       -0.5746270    -2.0444360     0.5668450
  H        3.8716190    -1.3816710    -0.5776140
  H        4.1315670     1.1252340     0.4699550
  H       -3.1528190     2.0640850    -0.4925600
  H       -3.0466780    -2.1247140     0.4868240
  H       -4.3493910    -0.0663800    -0.0199320
units angstrom
no_reorient  #important for SAPT in psi4, default
symmetry c1  #important for SAPT in psi4, default
}

set PROPERTIES_ORIGIN ["COM"]
properties('MP2/aug-cc-pvtz', properties = ['dipole'])
--------------------------------------------------------------------------

    Molecular point group: c1
  Charge       = 0
  Multiplicity = 1
  Basis Set: AUG-CC-PVTZ
    Blend: AUG-CC-PVTZ
  Basis Set: (AUG-CC-PVTZ AUX)
    Blend: AUG-CC-PVTZ-JKFIT

    Orbital Energies [Eh]
    ---------------------

    Doubly Occupied:

       1A    -15.621369     2A    -11.258201     3A    -11.256459
       4A    -11.252399     5A    -11.240879     6A    -11.239830
       7A    -11.238443     8A    -11.236082     9A    -11.235608
      10A    -11.213030    11A    -11.195808    12A     -1.304827
      13A     -1.154809    14A     -1.086938    15A     -1.044004
      16A     -1.016097    17A     -0.949492    18A     -0.843433
      19A     -0.829539    20A     -0.802734    21A     -0.754757
      22A     -0.731419    23A     -0.678430    24A     -0.633135
      25A     -0.629968    26A     -0.601359    27A     -0.590885
      28A     -0.586565    29A     -0.574869    30A     -0.571041
      31A     -0.508173    32A     -0.503693    33A     -0.495526
      34A     -0.477539    35A     -0.387101    36A     -0.358664
      37A     -0.340478    38A     -0.255960

  @DF-RHF Final Energy:  -438.44221163077384

   => Energetics <=

    Nuclear Repulsion Energy =            539.9194208763454981
    One-Electron Energy =               -1663.3241774093451113
    Two-Electron Energy =                 684.9625449022258863
    Total Energy =                       -438.4422116307738406
  Basis Set: (AUG-CC-PVTZ AUX)
    Blend: AUG-CC-PVTZ-RI
    Molecular point group: c1

    Geometry (in Angstrom), charge = 0, multiplicity = 1:

       Center              X                  Y                   Z               Mass
    ------------   -----------------  -----------------  -----------------  -----------------
         N            1.787420691194    -0.976739213988    -0.388882380726    14.003074004430
         C            1.018126691194     0.090092786012     0.024614619274    12.000000000000
         C           -0.440662308806     0.037121786012     0.015802619274    12.000000000000
         C            1.904015691194     1.084390786012     0.430423619274    12.000000000000
         C           -1.186049308806     1.192576786012    -0.272587380726    12.000000000000
         C           -1.126202308806    -1.158522213988     0.291638619274    12.000000000000
         C            3.121910691194    -0.679494213988    -0.279743380726    12.000000000000
         C            3.033470791194     0.669376286012     0.265683219274    12.000000000000
         C           -2.579390308806     1.154745786012    -0.271545380726    12.000000000000
         C           -2.520262308806    -1.198406213988     0.267059619274    12.000000000000
         C           -3.252496308806    -0.042304213988    -0.012062380726    12.000000000000
         H            1.409562691194    -1.803538213988    -0.834343380726     1.007825032230
         H            1.617724691194     2.036078786012     0.860427619274     1.007825032230
         H           -0.661172308806     2.115500786012    -0.509585380726     1.007825032230
         H           -0.564506308806    -2.050573213988     0.564284619274     1.007825032230
         H            3.881739691194    -1.387808213988    -0.580174380726     1.007825032230
         H            4.141687691194     1.119096786012     0.467394619274     1.007825032230
         H           -3.142698308806     2.057947786012    -0.495120380726     1.007825032230
         H           -3.036557308806    -2.130851213988     0.484263619274     1.007825032230
         H           -4.339270308806    -0.072517213988    -0.022492380726     1.007825032230

  Basis Set: AUG-CC-PVTZ
    Blend: AUG-CC-PVTZ
  Basis Set: (AUG-CC-PVTZ AUX)
    Blend: AUG-CC-PVTZ-JKFIT
	 Reference Energy          =    -438.4422116307738406 [Eh]
	 Singles Energy            =      -0.0000000000000000 [Eh]
	 Same-Spin Energy          =      -0.4994138963849814 [Eh]
	 Opposite-Spin Energy      =      -1.5310803045969990 [Eh]
	 Correlation Energy        =      -2.0304942009819804 [Eh]
	 Total Energy              =    -440.4727058317558317 [Eh]

	 ================> DF-SCS-MP2 Energies <==================
	-----------------------------------------------------------
	 SCS Same-Spin Scale       =       0.3333333333333333 [-]
	 SCS Opposite-Spin Scale   =       1.2000000000000000 [-]
	 SCS Same-Spin Energy      =      -0.1664712987949938 [Eh]
	 SCS Opposite-Spin Energy  =      -1.8372963655163987 [Eh]
	 SCS Correlation Energy    =      -2.0037676643113924 [Eh]
	 SCS Total Energy          =    -440.4459792950852375 [Eh]
	-----------------------------------------------------------

  Dipole Moment: [D]
     X:    -0.3428      Y:    -1.3081      Z:    -0.6476     Total:     1.4994

*** Psi4 exiting successfully. Buy a developer a beer!
