                               Psi4 1.3.2 release

  ==> Input File <==

--------------------------------------------------------------------------
#psi4
#
memory 32 gb

molecule  {
0 1
  N        1.7773000    -0.9706020    -0.3863220
  C        1.0080060     0.0962300     0.0271750
  C       -0.4507830     0.0432590     0.0183630
  C        1.8938950     1.0905280     0.4329840
  C       -1.1961700     1.1987140    -0.2700270
  C       -1.1363230    -1.1523850     0.2941990
  C        2.9679537    -0.6557965    -0.2732250
  C        3.2093430     0.6071710     0.2411150
  C       -2.5895110     1.1608830    -0.2689850
  C       -2.5303830    -1.1922690     0.2696200
  C       -3.2626170    -0.0361670    -0.0095020
  H        1.3994420    -1.7974010    -0.8317830
  H        1.6076040     2.0422160     0.8629880
  H       -0.6712930     2.1216380    -0.5070250
  H       -0.5746270    -2.0444360     0.5668450
  H        3.8716190    -1.3816710    -0.5776140
  H        4.1315670     1.1252340     0.4699550
  H       -3.1528190     2.0640850    -0.4925600
  H       -3.0466780    -2.1247140     0.4868240
  H       -4.3493910    -0.0663800    -0.0199320
units angstrom
no_reorient  #important for SAPT in psi4, default
symmetry c1  #important for SAPT in psi4, default
}

set PROPERTIES_ORIGIN ["COM"]
properties('MP2/aug-cc-pvtz', properties = ['dipole'])
--------------------------------------------------------------------------

    Molecular point group: c1
  Charge       = 0
  Multiplicity = 1
  Basis Set: AUG-CC-PVTZ
    Blend: AUG-CC-PVTZ
  Basis Set: (AUG-CC-PVTZ AUX)
    Blend: AUG-CC-PVTZ-JKFIT

    Orbital Energies [Eh]
    ---------------------

    Doubly Occupied:

       1A    -15.615887     2A    -11.261292     3A    -11.251930
       4A    -11.251091     5A    -11.240244     6A    -11.238718
       7A    -11.237574     8A    -11.234348     9A    -11.234050
      10A    -11.217064    11A    -11.204951    12A     -1.344804
      13A     -1.154797    14A     -1.060400    15A     -1.043977
      16A     -1.014833    17A     -0.957119    18A     -0.832786
      19A     -0.831223    20A     -0.808108    21A     -0.777450
      22A     -0.728133    23A     -0.676408    24A     -0.637558
      25A     -0.628868    26A     -0.609767    27A     -0.599223
      28A     -0.585569    29A     -0.572567    30A     -0.554849
      31A     -0.509777    32A     -0.498842    33A     -0.498408
      34A     -0.491179    35A     -0.370327    36A     -0.350158
      37A     -0.339528    38A     -0.267481

  @DF-RHF Final Energy:  -438.48040118174276

   => Energetics <=

    Nuclear Repulsion Energy =            540.0702733424628832
    One-Electron Energy =               -1663.6387742780182180
    Two-Electron Energy =                 685.0880997538124575
    Total Energy =                       -438.4804011817427636
  Basis Set: (AUG-CC-PVTZ AUX)
    Blend: AUG-CC-PVTZ-RI
    Molecular point group: c1

    Geometry (in Angstrom), charge = 0, multiplicity = 1:

       Center              X                  Y                   Z               Mass
    ------------   -----------------  -----------------  -----------------  -----------------
         N            1.783884891745    -0.972479976582    -0.386938993576    14.003074004430
         C            1.014590891745     0.094352023418     0.026558006424    12.000000000000
         C           -0.444198108255     0.041381023418     0.017746006424    12.000000000000
         C            1.900479891745     1.088650023418     0.432367006424    12.000000000000
         C           -1.189585108255     1.196836023418    -0.270643993576    12.000000000000
         C           -1.129738108255    -1.154262976582     0.293582006424    12.000000000000
         C            2.974538591745    -0.657674476582    -0.273841993576    12.000000000000
         C            3.215927891745     0.605293023418     0.240498006424    12.000000000000
         C           -2.582926108255     1.159005023418    -0.269601993576    12.000000000000
         C           -2.523798108255    -1.194146976582     0.269003006424    12.000000000000
         C           -3.256032108255    -0.038044976582    -0.010118993576    12.000000000000
         H            1.406026891745    -1.799278976582    -0.832399993576     1.007825032230
         H            1.614188891745     2.040338023418     0.862371006424     1.007825032230
         H           -0.664708108255     2.119760023418    -0.507641993576     1.007825032230
         H           -0.568042108255    -2.046313976582     0.566228006424     1.007825032230
         H            3.878203891745    -1.383548976582    -0.578230993576     1.007825032230
         H            4.138151891745     1.123356023418     0.469338006424     1.007825032230
         H           -3.146234108255     2.062207023418    -0.493176993576     1.007825032230
         H           -3.040093108255    -2.126591976582     0.486207006424     1.007825032230
         H           -4.342806108255    -0.068257976582    -0.020548993576     1.007825032230

  Basis Set: AUG-CC-PVTZ
    Blend: AUG-CC-PVTZ
  Basis Set: (AUG-CC-PVTZ AUX)
    Blend: AUG-CC-PVTZ-JKFIT
	 Reference Energy          =    -438.4804011817427636 [Eh]
	 Singles Energy            =      -0.0000000000000000 [Eh]
	 Same-Spin Energy          =      -0.4957562912030975 [Eh]
	 Opposite-Spin Energy      =      -1.5242440640911998 [Eh]
	 Correlation Energy        =      -2.0200003552942976 [Eh]
	 Total Energy              =    -440.5004015370370780 [Eh]

	 ================> DF-SCS-MP2 Energies <==================
	-----------------------------------------------------------
	 SCS Same-Spin Scale       =       0.3333333333333333 [-]
	 SCS Opposite-Spin Scale   =       1.2000000000000000 [-]
	 SCS Same-Spin Energy      =      -0.1652520970676992 [Eh]
	 SCS Opposite-Spin Energy  =      -1.8290928769094397 [Eh]
	 SCS Correlation Energy    =      -1.9943449739771388 [Eh]
	 SCS Total Energy          =    -440.4747461557199131 [Eh]
	-----------------------------------------------------------

  Dipole Moment: [D]
     X:    -0.3678      Y:    -1.4406      Z:    -0.6964     Total:     1.6418

*** Psi4 exiting successfully. Buy a developer a beer!
