                               Psi4 1.3.2 release

  ==> Input File <==

--------------------------------------------------------------------------
#psi4
#
memory 32 gb

molecule  {
0 1
  N        1.7773000    -0.9706020    -0.3863220
  C        1.0080060     0.0962300     0.0271750
  C       -0.4517192     0.0902893     0.0379464
  C        1.8938950     1.0905280     0.4329840
  C       -1.1961700     1.1987140    -0.2700270
  C       -1.1363230    -1.1523850     0.2941990
  C        3.1117900    -0.6733570    -0.2771830
  C        3.2093430     0.6071710     0.2411150
  C       -2.5895110     1.1608830    -0.2689850
  C       -2.5303830    -1.1922690     0.2696200
  C       -3.2626170    -0.0361670    -0.0095020
  H        1.3994420    -1.7974010    -0.8317830
  H        1.6076040     2.0422160     0.8629880
  H       -0.6712930     2.1216380    -0.5070250
  H       -0.5746270    -2.0444360     0.5668450
  H        3.8716190    -1.3816710    -0.5776140
  H        4.1315670     1.1252340     0.4699550
  H       -3.1528190     2.0640850    -0.4925600
  H       -3.0466780    -2.1247140     0.4868240
  H       -4.3493910    -0.0663800    -0.0199320
units angstrom
no_reorient  #important for SAPT in psi4, default
symmetry c1  #important for SAPT in psi4, default
}

set PROPERTIES_ORIGIN ["COM"]
properties('MP2/aug-cc-pvtz', properties = ['dipole'])
--------------------------------------------------------------------------

    Molecular point group: c1
  Charge       = 0
  Multiplicity = 1
  Basis Set: AUG-CC-PVTZ
    Blend: AUG-CC-PVTZ
  Basis Set: (AUG-CC-PVTZ AUX)
    Blend: AUG-CC-PVTZ-JKFIT

    Orbital Energies [Eh]
    ---------------------

    Doubly Occupied:

       1A    -15.609269     2A    -11.261948     3A    -11.256877
       4A    -11.253234     5A    -11.244082     6A    -11.241486
       7A    -11.240946     8A    -11.237742     9A    -11.234143
      10A    -11.213489    11A    -11.212059    12A     -1.294172
      13A     -1.156345    14A     -1.050536    15A     -1.041647
      16A     -1.016560    17A     -0.959243    18A     -0.838899
      19A     -0.830964    20A     -0.789039    21A     -0.764363
      22A     -0.735586    23A     -0.680168    24A     -0.633682
      25A     -0.628677    26A     -0.593883    27A     -0.588535
      28A     -0.584428    29A     -0.569349    30A     -0.549000
      31A     -0.536769    32A     -0.507041    33A     -0.502105
      34A     -0.488876    35A     -0.364606    36A     -0.350048
      37A     -0.340678    38A     -0.273287

  @DF-RHF Final Energy:  -438.50651866344202

   => Energetics <=

    Nuclear Repulsion Energy =            536.7891144616733072
    One-Electron Energy =               -1657.2437481192562245
    Two-Electron Energy =                 681.9481149941409512
    Total Energy =                       -438.5065186634419661
  Basis Set: (AUG-CC-PVTZ AUX)
    Blend: AUG-CC-PVTZ-RI
    Molecular point group: c1

    Geometry (in Angstrom), charge = 0, multiplicity = 1:

       Center              X                  Y                   Z               Mass
    ------------   -----------------  -----------------  -----------------  -----------------
         N            1.771899435260    -0.974951696375    -0.388249542356    14.003074004430
         C            1.002605435260     0.091880303625     0.025247457644    12.000000000000
         C           -0.457119764740     0.085939603625     0.036018857644    12.000000000000
         C            1.888494435260     1.086178303625     0.431056457644    12.000000000000
         C           -1.201570564740     1.194364303625    -0.271954542356    12.000000000000
         C           -1.141723564740    -1.156734696375     0.292271457644    12.000000000000
         C            3.106389435260    -0.677706696375    -0.279110542356    12.000000000000
         C            3.203942435260     0.602821303625     0.239187457644    12.000000000000
         C           -2.594911564740     1.156533303625    -0.270912542356    12.000000000000
         C           -2.535783564740    -1.196618696375     0.267692457644    12.000000000000
         C           -3.268017564740    -0.040516696375    -0.011429542356    12.000000000000
         H            1.394041435260    -1.801750696375    -0.833710542356     1.007825032230
         H            1.602203435260     2.037866303625     0.861060457644     1.007825032230
         H           -0.676693564740     2.117288303625    -0.508952542356     1.007825032230
         H           -0.580027564740    -2.048785696375     0.564917457644     1.007825032230
         H            3.866218435260    -1.386020696375    -0.579541542356     1.007825032230
         H            4.126166435260     1.120884303625     0.468027457644     1.007825032230
         H           -3.158219564740     2.059735303625    -0.494487542356     1.007825032230
         H           -3.052078564740    -2.129063696375     0.484896457644     1.007825032230
         H           -4.354791564740    -0.070729696375    -0.021859542356     1.007825032230

  Basis Set: AUG-CC-PVTZ
    Blend: AUG-CC-PVTZ
  Basis Set: (AUG-CC-PVTZ AUX)
    Blend: AUG-CC-PVTZ-JKFIT
	 Reference Energy          =    -438.5065186634420229 [Eh]
	 Singles Energy            =      -0.0000000000000000 [Eh]
	 Same-Spin Energy          =      -0.4952062554184865 [Eh]
	 Opposite-Spin Energy      =      -1.5254024562079995 [Eh]
	 Correlation Energy        =      -2.0206087116264859 [Eh]
	 Total Energy              =    -440.5271273750685168 [Eh]

	 ================> DF-SCS-MP2 Energies <==================
	-----------------------------------------------------------
	 SCS Same-Spin Scale       =       0.3333333333333333 [-]
	 SCS Opposite-Spin Scale   =       1.2000000000000000 [-]
	 SCS Same-Spin Energy      =      -0.1650687518061622 [Eh]
	 SCS Opposite-Spin Energy  =      -1.8304829474495994 [Eh]
	 SCS Correlation Energy    =      -1.9955516992557616 [Eh]
	 SCS Total Energy          =    -440.5020703626977934 [Eh]
	-----------------------------------------------------------

  Dipole Moment: [D]
     X:    -0.4544      Y:    -1.3287      Z:    -0.6547     Total:     1.5494

*** Psi4 exiting successfully. Buy a developer a beer!
