                               Psi4 1.3.2 release

  ==> Input File <==

--------------------------------------------------------------------------
#psi4
#
memory 32 gb

molecule  {
0 1
  N        1.7773000    -0.9706020    -0.3863220
  C        1.0080060     0.0962300     0.0271750
  C       -0.4507830     0.0432590     0.0183630
  C        1.8938950     1.0905280     0.4329840
  C       -1.1961700     1.1987140    -0.2700270
  C       -1.1363230    -1.1523850     0.2941990
  C        3.1303399    -0.7550247    -0.3235615
  C        3.2093430     0.6071710     0.2411150
  C       -2.5895110     1.1608830    -0.2689850
  C       -2.5303830    -1.1922690     0.2696200
  C       -3.2626170    -0.0361670    -0.0095020
  H        1.3994420    -1.7974010    -0.8317830
  H        1.6076040     2.0422160     0.8629880
  H       -0.6712930     2.1216380    -0.5070250
  H       -0.5746270    -2.0444360     0.5668450
  H        3.8716190    -1.3816710    -0.5776140
  H        4.1315670     1.1252340     0.4699550
  H       -3.1528190     2.0640850    -0.4925600
  H       -3.0466780    -2.1247140     0.4868240
  H       -4.3493910    -0.0663800    -0.0199320
units angstrom
no_reorient  #important for SAPT in psi4, default
symmetry c1  #important for SAPT in psi4, default
}

set PROPERTIES_ORIGIN ["COM"]
properties('MP2/aug-cc-pvtz', properties = ['dipole'])
--------------------------------------------------------------------------

    Molecular point group: c1
  Charge       = 0
  Multiplicity = 1
  Basis Set: AUG-CC-PVTZ
    Blend: AUG-CC-PVTZ
  Basis Set: (AUG-CC-PVTZ AUX)
    Blend: AUG-CC-PVTZ-JKFIT

    Orbital Energies [Eh]
    ---------------------

    Doubly Occupied:

       1A    -15.615877     2A    -11.263586     3A    -11.260304
       4A    -11.254365     5A    -11.242378     6A    -11.241200
       7A    -11.240810     8A    -11.238438     9A    -11.238001
      10A    -11.223498    11A    -11.216256    12A     -1.292225
      13A     -1.156628    14A     -1.051761    15A     -1.033302
      16A     -1.016759    17A     -0.959571    18A     -0.840691
      19A     -0.832242    20A     -0.788610    21A     -0.767415
      22A     -0.740691    23A     -0.685799    24A     -0.642033
      25A     -0.629623    26A     -0.595048    27A     -0.591572
      28A     -0.582848    29A     -0.568214    30A     -0.547666
      31A     -0.527510    32A     -0.505304    33A     -0.501151
      34A     -0.494955    35A     -0.364879    36A     -0.345272
      37A     -0.341740    38A     -0.267785

  @DF-RHF Final Energy:  -438.49213049964231

   => Energetics <=

    Nuclear Repulsion Energy =            535.4714147199791796
    One-Electron Energy =               -1654.5150758595962088
    Two-Electron Energy =                 680.5515306399747715
    Total Energy =                       -438.4921304996423714
  Basis Set: (AUG-CC-PVTZ AUX)
    Blend: AUG-CC-PVTZ-RI
    Molecular point group: c1

    Geometry (in Angstrom), charge = 0, multiplicity = 1:

       Center              X                  Y                   Z               Mass
    ------------   -----------------  -----------------  -----------------  -----------------
         N            1.770265078085    -0.964157412265    -0.382717121580    14.003074004430
         C            1.000971078085     0.102674587735     0.030779878420    12.000000000000
         C           -0.457817921915     0.049703587735     0.021967878420    12.000000000000
         C            1.886860078085     1.096972587735     0.436588878420    12.000000000000
         C           -1.203204921915     1.205158587735    -0.266422121580    12.000000000000
         C           -1.143357921915    -1.145940412265     0.297803878420    12.000000000000
         C            3.123304978085    -0.748580112265    -0.319956621580    12.000000000000
         C            3.202308078085     0.613615587735     0.244719878420    12.000000000000
         C           -2.596545921915     1.167327587735    -0.265380121580    12.000000000000
         C           -2.537417921915    -1.185824412265     0.273224878420    12.000000000000
         C           -3.269651921915    -0.029722412265    -0.005897121580    12.000000000000
         H            1.392407078085    -1.790956412265    -0.828178121580     1.007825032230
         H            1.600569078085     2.048660587735     0.866592878420     1.007825032230
         H           -0.678327921915     2.128082587735    -0.503420121580     1.007825032230
         H           -0.581661921915    -2.037991412265     0.570449878420     1.007825032230
         H            3.864584078085    -1.375226412265    -0.574009121580     1.007825032230
         H            4.124532078085     1.131678587735     0.473559878420     1.007825032230
         H           -3.159853921915     2.070529587735    -0.488955121580     1.007825032230
         H           -3.053712921915    -2.118269412265     0.490428878420     1.007825032230
         H           -4.356425921915    -0.059935412265    -0.016327121580     1.007825032230

  Basis Set: AUG-CC-PVTZ
    Blend: AUG-CC-PVTZ
  Basis Set: (AUG-CC-PVTZ AUX)
    Blend: AUG-CC-PVTZ-JKFIT
	 Reference Energy          =    -438.4921304996423146 [Eh]
	 Singles Energy            =      -0.0000000000000000 [Eh]
	 Same-Spin Energy          =      -0.4966468639602925 [Eh]
	 Opposite-Spin Energy      =      -1.5281307967014370 [Eh]
	 Correlation Energy        =      -2.0247776606617296 [Eh]
	 Total Energy              =    -440.5169081603040695 [Eh]

	 ================> DF-SCS-MP2 Energies <==================
	-----------------------------------------------------------
	 SCS Same-Spin Scale       =       0.3333333333333333 [-]
	 SCS Opposite-Spin Scale   =       1.2000000000000000 [-]
	 SCS Same-Spin Energy      =      -0.1655489546534308 [Eh]
	 SCS Opposite-Spin Energy  =      -1.8337569560417244 [Eh]
	 SCS Correlation Energy    =      -1.9993059106951552 [Eh]
	 SCS Total Energy          =    -440.4914364103374851 [Eh]
	-----------------------------------------------------------

  Dipole Moment: [D]
     X:    -0.5666      Y:    -1.3442      Z:    -0.6410     Total:     1.5934

*** Psi4 exiting successfully. Buy a developer a beer!
