                               Psi4 1.3.2 release

  ==> Input File <==

--------------------------------------------------------------------------
#psi4
#
memory 32 gb

molecule  {
0 1
  N        1.7773000    -0.9706020    -0.3863220
  C        1.1195998    -0.0585246    -0.0328069
  C       -0.4507830     0.0432590     0.0183630
  C        1.8938950     1.0905280     0.4329840
  C       -1.1961700     1.1987140    -0.2700270
  C       -1.1363230    -1.1523850     0.2941990
  C        3.1117900    -0.6733570    -0.2771830
  C        3.2093430     0.6071710     0.2411150
  C       -2.5895110     1.1608830    -0.2689850
  C       -2.5303830    -1.1922690     0.2696200
  C       -3.2626170    -0.0361670    -0.0095020
  H        1.3994420    -1.7974010    -0.8317830
  H        1.6076040     2.0422160     0.8629880
  H       -0.6712930     2.1216380    -0.5070250
  H       -0.5746270    -2.0444360     0.5668450
  H        3.8716190    -1.3816710    -0.5776140
  H        4.1315670     1.1252340     0.4699550
  H       -3.1528190     2.0640850    -0.4925600
  H       -3.0466780    -2.1247140     0.4868240
  H       -4.3493910    -0.0663800    -0.0199320
units angstrom
no_reorient  #important for SAPT in psi4, default
symmetry c1  #important for SAPT in psi4, default
}

set PROPERTIES_ORIGIN ["COM"]
properties('MP2/aug-cc-pvtz', properties = ['dipole'])
--------------------------------------------------------------------------

    Molecular point group: c1
  Charge       = 0
  Multiplicity = 1
  Basis Set: AUG-CC-PVTZ
    Blend: AUG-CC-PVTZ
  Basis Set: (AUG-CC-PVTZ AUX)
    Blend: AUG-CC-PVTZ-JKFIT

    Orbital Energies [Eh]
    ---------------------

    Doubly Occupied:

       1A    -15.621024     2A    -11.265751     3A    -11.261331
       4A    -11.243063     5A    -11.242741     6A    -11.241280
       7A    -11.240966     8A    -11.239418     9A    -11.237698
      10A    -11.216684    11A    -11.203061    12A     -1.369767
      13A     -1.154928    14A     -1.055305    15A     -1.034095
      16A     -1.018379    17A     -0.962783    18A     -0.832581
      19A     -0.828725    20A     -0.815915    21A     -0.782653
      22A     -0.729464    23A     -0.678690    24A     -0.637543
      25A     -0.631811    26A     -0.614480    27A     -0.610863
      28A     -0.589970    29A     -0.574774    30A     -0.543960
      31A     -0.525917    32A     -0.507822    33A     -0.498357
      34A     -0.468890    35A     -0.362089    36A     -0.349762
      37A     -0.342613    38A     -0.267312

  @DF-RHF Final Energy:  -438.45285936433811

   => Energetics <=

    Nuclear Repulsion Energy =            537.9123699347185266
    One-Electron Energy =               -1659.1255375088892379
    Two-Electron Energy =                 682.7603082098326013
    Total Energy =                       -438.4528593643381100
  Basis Set: (AUG-CC-PVTZ AUX)
    Blend: AUG-CC-PVTZ-RI
    Molecular point group: c1

    Geometry (in Angstrom), charge = 0, multiplicity = 1:

       Center              X                  Y                   Z               Mass
    ------------   -----------------  -----------------  -----------------  -----------------
         N            1.762461209406    -0.958027396544    -0.381576163955    14.003074004430
         C            1.104761009406    -0.045949996544    -0.028061063955    12.000000000000
         C           -0.465621790594     0.055833603456     0.023108836045    12.000000000000
         C            1.879056209406     1.103102603456     0.437729836045    12.000000000000
         C           -1.211008790594     1.211288603456    -0.265281163955    12.000000000000
         C           -1.151161790594    -1.139810396544     0.298944836045    12.000000000000
         C            3.096951209406    -0.660782396544    -0.272437163955    12.000000000000
         C            3.194504209406     0.619745603456     0.245860836045    12.000000000000
         C           -2.604349790594     1.173457603456    -0.264239163955    12.000000000000
         C           -2.545221790594    -1.179694396544     0.274365836045    12.000000000000
         C           -3.277455790594    -0.023592396544    -0.004756163955    12.000000000000
         H            1.384603209406    -1.784826396544    -0.827037163955     1.007825032230
         H            1.592765209406     2.054790603456     0.867733836045     1.007825032230
         H           -0.686131790594     2.134212603456    -0.502279163955     1.007825032230
         H           -0.589465790594    -2.031861396544     0.571590836045     1.007825032230
         H            3.856780209406    -1.369096396544    -0.572868163955     1.007825032230
         H            4.116728209406     1.137808603456     0.474700836045     1.007825032230
         H           -3.167657790594     2.076659603456    -0.487814163955     1.007825032230
         H           -3.061516790594    -2.112139396544     0.491569836045     1.007825032230
         H           -4.364229790594    -0.053805396544    -0.015186163955     1.007825032230

  Basis Set: AUG-CC-PVTZ
    Blend: AUG-CC-PVTZ
  Basis Set: (AUG-CC-PVTZ AUX)
    Blend: AUG-CC-PVTZ-JKFIT
	 Reference Energy          =    -438.4528593643381100 [Eh]
	 Singles Energy            =      -0.0000000000000000 [Eh]
	 Same-Spin Energy          =      -0.4948822583298577 [Eh]
	 Opposite-Spin Energy      =      -1.5231454960388033 [Eh]
	 Correlation Energy        =      -2.0180277543686609 [Eh]
	 Total Energy              =    -440.4708871187067984 [Eh]

	 ================> DF-SCS-MP2 Energies <==================
	-----------------------------------------------------------
	 SCS Same-Spin Scale       =       0.3333333333333333 [-]
	 SCS Opposite-Spin Scale   =       1.2000000000000000 [-]
	 SCS Same-Spin Energy      =      -0.1649607527766192 [Eh]
	 SCS Opposite-Spin Energy  =      -1.8277745952465638 [Eh]
	 SCS Correlation Energy    =      -1.9927353480231831 [Eh]
	 SCS Total Energy          =    -440.4455947123612987 [Eh]
	-----------------------------------------------------------

  Dipole Moment: [D]
     X:    -0.6658      Y:    -1.5526      Z:    -0.7695     Total:     1.8563

*** Psi4 exiting successfully. Buy a developer a beer!
