                               Psi4 1.3.2 release

  ==> Input File <==

--------------------------------------------------------------------------
#psi4
#
memory 32 gb

molecule  {
0 1
  N        1.7773000    -0.9706020    -0.3863220
  C        1.0080060     0.0962300     0.0271750
  C       -0.4507830     0.0432590     0.0183630
  C        1.8938950     1.0905280     0.4329840
  C       -1.1541607     1.2234566    -0.2753038
  C       -1.1363230    -1.1523850     0.2941990
  C        3.1117900    -0.6733570    -0.2771830
  C        3.2093430     0.6071710     0.2411150
  C       -2.5895110     1.1608830    -0.2689850
  C       -2.5303830    -1.1922690     0.2696200
  C       -3.2626170    -0.0361670    -0.0095020
  H        1.3994420    -1.7974010    -0.8317830
  H        1.6076040     2.0422160     0.8629880
  H       -0.6712930     2.1216380    -0.5070250
  H       -0.5746270    -2.0444360     0.5668450
  H        3.8716190    -1.3816710    -0.5776140
  H        4.1315670     1.1252340     0.4699550
  H       -3.1528190     2.0640850    -0.4925600
  H       -3.0466780    -2.1247140     0.4868240
  H       -4.3493910    -0.0663800    -0.0199320
units angstrom
no_reorient  #important for SAPT in psi4, default
symmetry c1  #important for SAPT in psi4, default
}

set PROPERTIES_ORIGIN ["COM"]
properties('MP2/aug-cc-pvtz', properties = ['dipole'])
--------------------------------------------------------------------------

    Molecular point group: c1
  Charge       = 0
  Multiplicity = 1
  Basis Set: AUG-CC-PVTZ
    Blend: AUG-CC-PVTZ
  Basis Set: (AUG-CC-PVTZ AUX)
    Blend: AUG-CC-PVTZ-JKFIT

    Orbital Energies [Eh]
    ---------------------

    Doubly Occupied:

       1A    -15.607624     2A    -11.261093     3A    -11.255974
       4A    -11.253922     5A    -11.245584     6A    -11.243220
       7A    -11.240976     8A    -11.239208     9A    -11.238087
      10A    -11.213455    11A    -11.212290    12A     -1.293637
      13A     -1.152946    14A     -1.049678    15A     -1.042291
      16A     -1.013234    17A     -0.958704    18A     -0.837434
      19A     -0.834541    20A     -0.787927    21A     -0.764672
      22A     -0.734298    23A     -0.682279    24A     -0.636878
      25A     -0.628288    26A     -0.594495    27A     -0.588734
      28A     -0.583237    29A     -0.568136    30A     -0.549077
      31A     -0.536780    32A     -0.503377    33A     -0.499805
      34A     -0.496148    35A     -0.364277    36A     -0.349903
      37A     -0.337114    38A     -0.273440

  @DF-RHF Final Energy:  -438.50520259796997

   => Energetics <=

    Nuclear Repulsion Energy =            536.4245765931962069
    One-Electron Energy =               -1656.5140337321690822
    Two-Electron Energy =                 681.5842545410029061
    Total Energy =                       -438.5052025979699692
  Basis Set: (AUG-CC-PVTZ AUX)
    Blend: AUG-CC-PVTZ-RI
    Molecular point group: c1

    Geometry (in Angstrom), charge = 0, multiplicity = 1:

       Center              X                  Y                   Z               Mass
    ------------   -----------------  -----------------  -----------------  -----------------
         N            1.768297468421    -0.973082360675    -0.386164443428    14.003074004430
         C            0.999003468421     0.093749639325     0.027332556572    12.000000000000
         C           -0.459785531579     0.040778639325     0.018520556572    12.000000000000
         C            1.884892468421     1.088047639325     0.433141556572    12.000000000000
         C           -1.163163231579     1.220976239325    -0.275146243428    12.000000000000
         C           -1.145325531579    -1.154865360675     0.294356556572    12.000000000000
         C            3.102787468421    -0.675837360675    -0.277025443428    12.000000000000
         C            3.200340468421     0.604690639325     0.241272556572    12.000000000000
         C           -2.598513531579     1.158402639325    -0.268827443428    12.000000000000
         C           -2.539385531579    -1.194749360675     0.269777556572    12.000000000000
         C           -3.271619531579    -0.038647360675    -0.009344443428    12.000000000000
         H            1.390439468421    -1.799881360675    -0.831625443428     1.007825032230
         H            1.598601468421     2.039735639325     0.863145556572     1.007825032230
         H           -0.680295531579     2.119157639325    -0.506867443428     1.007825032230
         H           -0.583629531579    -2.046916360675     0.567002556572     1.007825032230
         H            3.862616468421    -1.384151360675    -0.577456443428     1.007825032230
         H            4.122564468421     1.122753639325     0.470112556572     1.007825032230
         H           -3.161821531579     2.061604639325    -0.492402443428     1.007825032230
         H           -3.055680531579    -2.127194360675     0.486981556572     1.007825032230
         H           -4.358393531579    -0.068860360675    -0.019774443428     1.007825032230

  Basis Set: AUG-CC-PVTZ
    Blend: AUG-CC-PVTZ
  Basis Set: (AUG-CC-PVTZ AUX)
    Blend: AUG-CC-PVTZ-JKFIT
	 Reference Energy          =    -438.5052025979699692 [Eh]
	 Singles Energy            =      -0.0000000000000000 [Eh]
	 Same-Spin Energy          =      -0.4952422469499732 [Eh]
	 Opposite-Spin Energy      =      -1.5256883378101080 [Eh]
	 Correlation Energy        =      -2.0209305847600811 [Eh]
	 Total Energy              =    -440.5261331827300637 [Eh]

	 ================> DF-SCS-MP2 Energies <==================
	-----------------------------------------------------------
	 SCS Same-Spin Scale       =       0.3333333333333333 [-]
	 SCS Opposite-Spin Scale   =       1.2000000000000000 [-]
	 SCS Same-Spin Energy      =      -0.1650807489833244 [Eh]
	 SCS Opposite-Spin Energy  =      -1.8308260053721295 [Eh]
	 SCS Correlation Energy    =      -1.9959067543554538 [Eh]
	 SCS Total Energy          =    -440.5011093523254431 [Eh]
	-----------------------------------------------------------

  Dipole Moment: [D]
     X:    -0.4864      Y:    -1.3183      Z:    -0.6506     Total:     1.5485

*** Psi4 exiting successfully. Buy a developer a beer!
