                               Psi4 1.3.2 release

  ==> Input File <==

--------------------------------------------------------------------------
#psi4
#
memory 32 gb

molecule  {
0 1
  N        1.7773000    -0.9706020    -0.3863220
  C        1.0080060     0.0962300     0.0271750
  C       -0.4514734     0.0667696     0.0281549
  C        1.8938950     1.0905280     0.4329840
  C       -1.1961700     1.1987140    -0.2700270
  C       -1.1363230    -1.1523850     0.2941990
  C        3.1117900    -0.6733570    -0.2771830
  C        3.2093430     0.6071710     0.2411150
  C       -2.5895110     1.1608830    -0.2689850
  C       -2.5303830    -1.1922690     0.2696200
  C       -3.2626170    -0.0361670    -0.0095020
  H        1.3994420    -1.7974010    -0.8317830
  H        1.6076040     2.0422160     0.8629880
  H       -0.6712930     2.1216380    -0.5070250
  H       -0.5746270    -2.0444360     0.5668450
  H        3.8716190    -1.3816710    -0.5776140
  H        4.1315670     1.1252340     0.4699550
  H       -3.1528190     2.0640850    -0.4925600
  H       -3.0466780    -2.1247140     0.4868240
  H       -4.3493910    -0.0663800    -0.0199320
units angstrom
no_reorient  #important for SAPT in psi4, default
symmetry c1  #important for SAPT in psi4, default
}

set PROPERTIES_ORIGIN ["COM"]
properties('MP2/aug-cc-pvtz', properties = ['dipole'])
--------------------------------------------------------------------------

    Molecular point group: c1
  Charge       = 0
  Multiplicity = 1
  Basis Set: AUG-CC-PVTZ
    Blend: AUG-CC-PVTZ
  Basis Set: (AUG-CC-PVTZ AUX)
    Blend: AUG-CC-PVTZ-JKFIT

    Orbital Energies [Eh]
    ---------------------

    Doubly Occupied:

       1A    -15.608769     2A    -11.262003     3A    -11.256754
       4A    -11.253250     5A    -11.242730     6A    -11.241345
       7A    -11.240805     8A    -11.237744     9A    -11.235998
      10A    -11.213685    11A    -11.212460    12A     -1.294158
      13A     -1.156212    14A     -1.049652    15A     -1.042233
      16A     -1.016741    17A     -0.959226    18A     -0.838201
      19A     -0.831791    20A     -0.788837    21A     -0.764626
      22A     -0.735476    23A     -0.679962    24A     -0.633492
      25A     -0.629214    26A     -0.593702    27A     -0.588295
      28A     -0.584107    29A     -0.569341    30A     -0.549235
      31A     -0.536874    32A     -0.505496    33A     -0.501560
      34A     -0.492078    35A     -0.363784    36A     -0.350103
      37A     -0.341212    38A     -0.273321

  @DF-RHF Final Energy:  -438.50831043220592

   => Energetics <=

    Nuclear Repulsion Energy =            536.8106173155840679
    One-Electron Energy =               -1657.2889151852364193
    Two-Electron Energy =                 681.9699874374464343
    Total Energy =                       -438.5083104322059171
  Basis Set: (AUG-CC-PVTZ AUX)
    Blend: AUG-CC-PVTZ-RI
    Molecular point group: c1

    Geometry (in Angstrom), charge = 0, multiplicity = 1:

       Center              X                  Y                   Z               Mass
    ------------   -----------------  -----------------  -----------------  -----------------
         N            1.771878819282    -0.972979029170    -0.387428300124    14.003074004430
         C            1.002584819282     0.093852970830     0.026068699876    12.000000000000
         C           -0.456894580718     0.064392570830     0.027048599876    12.000000000000
         C            1.888473819282     1.088150970830     0.431877699876    12.000000000000
         C           -1.201591180718     1.196336970830    -0.271133300124    12.000000000000
         C           -1.141744180718    -1.154762029170     0.293092699876    12.000000000000
         C            3.106368819282    -0.675734029170    -0.278289300124    12.000000000000
         C            3.203921819282     0.604793970830     0.240008699876    12.000000000000
         C           -2.594932180718     1.158505970830    -0.270091300124    12.000000000000
         C           -2.535804180718    -1.194646029170     0.268513699876    12.000000000000
         C           -3.268038180718    -0.038544029170    -0.010608300124    12.000000000000
         H            1.394020819282    -1.799778029170    -0.832889300124     1.007825032230
         H            1.602182819282     2.039838970830     0.861881699876     1.007825032230
         H           -0.676714180718     2.119260970830    -0.508131300124     1.007825032230
         H           -0.580048180718    -2.046813029170     0.565738699876     1.007825032230
         H            3.866197819282    -1.384048029170    -0.578720300124     1.007825032230
         H            4.126145819282     1.122856970830     0.468848699876     1.007825032230
         H           -3.158240180718     2.061707970830    -0.493666300124     1.007825032230
         H           -3.052099180718    -2.127091029170     0.485717699876     1.007825032230
         H           -4.354812180718    -0.068757029170    -0.021038300124     1.007825032230

  Basis Set: AUG-CC-PVTZ
    Blend: AUG-CC-PVTZ
  Basis Set: (AUG-CC-PVTZ AUX)
    Blend: AUG-CC-PVTZ-JKFIT
	 Reference Energy          =    -438.5083104322059171 [Eh]
	 Singles Energy            =      -0.0000000000000000 [Eh]
	 Same-Spin Energy          =      -0.4952371530892543 [Eh]
	 Opposite-Spin Energy      =      -1.5253379922643786 [Eh]
	 Correlation Energy        =      -2.0205751453536327 [Eh]
	 Total Energy              =    -440.5288855775595493 [Eh]

	 ================> DF-SCS-MP2 Energies <==================
	-----------------------------------------------------------
	 SCS Same-Spin Scale       =       0.3333333333333333 [-]
	 SCS Opposite-Spin Scale   =       1.2000000000000000 [-]
	 SCS Same-Spin Energy      =      -0.1650790510297514 [Eh]
	 SCS Opposite-Spin Energy  =      -1.8304055907172543 [Eh]
	 SCS Correlation Energy    =      -1.9954846417470056 [Eh]
	 SCS Total Energy          =    -440.5037950739529151 [Eh]
	-----------------------------------------------------------

  Dipole Moment: [D]
     X:    -0.4525      Y:    -1.3239      Z:    -0.6511     Total:     1.5432

*** Psi4 exiting successfully. Buy a developer a beer!
