                               Psi4 1.3.2 release

  ==> Input File <==

--------------------------------------------------------------------------
#psi4
#
memory 32 gb

molecule  {
0 1
  N        1.7572165    -0.9828327    -0.3914309
  C        1.0080060     0.0962300     0.0271750
  C       -0.4507830     0.0432590     0.0183630
  C        1.8938950     1.0905280     0.4329840
  C       -1.1961700     1.1987140    -0.2700270
  C       -1.1363230    -1.1523850     0.2941990
  C        3.1117900    -0.6733570    -0.2771830
  C        3.2093430     0.6071710     0.2411150
  C       -2.5895110     1.1608830    -0.2689850
  C       -2.5303830    -1.1922690     0.2696200
  C       -3.2626170    -0.0361670    -0.0095020
  H        1.3994420    -1.7974010    -0.8317830
  H        1.6076040     2.0422160     0.8629880
  H       -0.6712930     2.1216380    -0.5070250
  H       -0.5746270    -2.0444360     0.5668450
  H        3.8716190    -1.3816710    -0.5776140
  H        4.1315670     1.1252340     0.4699550
  H       -3.1528190     2.0640850    -0.4925600
  H       -3.0466780    -2.1247140     0.4868240
  H       -4.3493910    -0.0663800    -0.0199320
units angstrom
no_reorient  #important for SAPT in psi4, default
symmetry c1  #important for SAPT in psi4, default
}

set PROPERTIES_ORIGIN ["COM"]
properties('MP2/aug-cc-pvtz', properties = ['dipole'])
--------------------------------------------------------------------------

    Molecular point group: c1
  Charge       = 0
  Multiplicity = 1
  Basis Set: AUG-CC-PVTZ
    Blend: AUG-CC-PVTZ
  Basis Set: (AUG-CC-PVTZ AUX)
    Blend: AUG-CC-PVTZ-JKFIT

    Orbital Energies [Eh]
    ---------------------

    Doubly Occupied:

       1A    -15.606137     2A    -11.263957     3A    -11.258044
       4A    -11.252689     5A    -11.241951     6A    -11.240649
       7A    -11.240433     8A    -11.237958     9A    -11.237672
      10A    -11.215825    11A    -11.213440    12A     -1.289479
      13A     -1.155870    14A     -1.049154    15A     -1.044691
      16A     -1.016799    17A     -0.957310    18A     -0.838181
      19A     -0.832039    20A     -0.792857    21A     -0.763499
      22A     -0.734610    23A     -0.678988    24A     -0.632317
      25A     -0.629233    26A     -0.597213    27A     -0.589071
      28A     -0.580966    29A     -0.566601    30A     -0.550027
      31A     -0.537318    32A     -0.503928    33A     -0.500677
      34A     -0.494474    35A     -0.362440    36A     -0.352139
      37A     -0.341266    38A     -0.273613

  @DF-RHF Final Energy:  -438.50822698743906

   => Energetics <=

    Nuclear Repulsion Energy =            536.6177760767035352
    One-Electron Energy =               -1656.9049779103897890
    Two-Electron Energy =                 681.7789748462471380
    Total Energy =                       -438.5082269874390022
  Basis Set: (AUG-CC-PVTZ AUX)
    Blend: AUG-CC-PVTZ-RI
    Molecular point group: c1

    Geometry (in Angstrom), charge = 0, multiplicity = 1:

       Center              X                  Y                   Z               Mass
    ------------   -----------------  -----------------  -----------------  -----------------
         N            1.753703051589    -0.982040766368    -0.391215899493    14.003074004430
         C            1.004492551589     0.097021933632     0.027390000507    12.000000000000
         C           -0.454296448411     0.044050933632     0.018578000507    12.000000000000
         C            1.890381551589     1.091319933632     0.433199000507    12.000000000000
         C           -1.199683448411     1.199505933632    -0.269811999493    12.000000000000
         C           -1.139836448411    -1.151593066368     0.294414000507    12.000000000000
         C            3.108276551589    -0.672565066368    -0.276967999493    12.000000000000
         C            3.205829551589     0.607962933632     0.241330000507    12.000000000000
         C           -2.593024448411     1.161674933632    -0.268769999493    12.000000000000
         C           -2.533896448411    -1.191477066368     0.269835000507    12.000000000000
         C           -3.266130448411    -0.035375066368    -0.009286999493    12.000000000000
         H            1.395928551589    -1.796609066368    -0.831567999493     1.007825032230
         H            1.604090551589     2.043007933632     0.863203000507     1.007825032230
         H           -0.674806448411     2.122429933632    -0.506809999493     1.007825032230
         H           -0.578140448411    -2.043644066368     0.567060000507     1.007825032230
         H            3.868105551589    -1.380879066368    -0.577398999493     1.007825032230
         H            4.128053551589     1.126025933632     0.470170000507     1.007825032230
         H           -3.156332448411     2.064876933632    -0.492344999493     1.007825032230
         H           -3.050191448411    -2.123922066368     0.487039000507     1.007825032230
         H           -4.352904448411    -0.065588066368    -0.019716999493     1.007825032230

  Basis Set: AUG-CC-PVTZ
    Blend: AUG-CC-PVTZ
  Basis Set: (AUG-CC-PVTZ AUX)
    Blend: AUG-CC-PVTZ-JKFIT
	 Reference Energy          =    -438.5082269874390590 [Eh]
	 Singles Energy            =      -0.0000000000000000 [Eh]
	 Same-Spin Energy          =      -0.4949871497351602 [Eh]
	 Opposite-Spin Energy      =      -1.5253364315823896 [Eh]
	 Correlation Energy        =      -2.0203235813175500 [Eh]
	 Total Energy              =    -440.5285505687566001 [Eh]

	 ================> DF-SCS-MP2 Energies <==================
	-----------------------------------------------------------
	 SCS Same-Spin Scale       =       0.3333333333333333 [-]
	 SCS Opposite-Spin Scale   =       1.2000000000000000 [-]
	 SCS Same-Spin Energy      =      -0.1649957165783867 [Eh]
	 SCS Opposite-Spin Energy  =      -1.8304037178988675 [Eh]
	 SCS Correlation Energy    =      -1.9953994344772541 [Eh]
	 SCS Total Energy          =    -440.5036264219162945 [Eh]
	-----------------------------------------------------------

  Dipole Moment: [D]
     X:    -0.4190      Y:    -1.2636      Z:    -0.6264     Total:     1.4713

*** Psi4 exiting successfully. Buy a developer a beer!
