                               Psi4 1.3.2 release

  ==> Input File <==

--------------------------------------------------------------------------
#psi4
#
memory 32 gb

molecule  {
0 1
  N        1.7773000    -0.9706020    -0.3863220
  C        1.0080060     0.0962300     0.0271750
  C       -0.3695276     0.0966815     0.0057149
  C        1.8938950     1.0905280     0.4329840
  C       -1.1961700     1.1987140    -0.2700270
  C       -1.1363230    -1.1523850     0.2941990
  C        3.1117900    -0.6733570    -0.2771830
  C        3.2093430     0.6071710     0.2411150
  C       -2.5895110     1.1608830    -0.2689850
  C       -2.5303830    -1.1922690     0.2696200
  C       -3.2626170    -0.0361670    -0.0095020
  H        1.3994420    -1.7974010    -0.8317830
  H        1.6076040     2.0422160     0.8629880
  H       -0.6712930     2.1216380    -0.5070250
  H       -0.5746270    -2.0444360     0.5668450
  H        3.8716190    -1.3816710    -0.5776140
  H        4.1315670     1.1252340     0.4699550
  H       -3.1528190     2.0640850    -0.4925600
  H       -3.0466780    -2.1247140     0.4868240
  H       -4.3493910    -0.0663800    -0.0199320
units angstrom
no_reorient  #important for SAPT in psi4, default
symmetry c1  #important for SAPT in psi4, default
}

set PROPERTIES_ORIGIN ["COM"]
properties('MP2/aug-cc-pvtz', properties = ['dipole'])
--------------------------------------------------------------------------

    Molecular point group: c1
  Charge       = 0
  Multiplicity = 1
  Basis Set: AUG-CC-PVTZ
    Blend: AUG-CC-PVTZ
  Basis Set: (AUG-CC-PVTZ AUX)
    Blend: AUG-CC-PVTZ-JKFIT

    Orbital Energies [Eh]
    ---------------------

    Doubly Occupied:

       1A    -15.610882     2A    -11.260708     3A    -11.258143
       4A    -11.254900     5A    -11.247625     6A    -11.240422
       7A    -11.240007     8A    -11.237262     9A    -11.236996
      10A    -11.216561    11A    -11.215420    12A     -1.298064
      13A     -1.148741    14A     -1.058669    15A     -1.045349
      16A     -1.011802    17A     -0.958053    18A     -0.846838
      19A     -0.826630    20A     -0.790792    21A     -0.766806
      22A     -0.737752    23A     -0.681182    24A     -0.634556
      25A     -0.625950    26A     -0.595054    27A     -0.589672
      28A     -0.582374    29A     -0.573599    30A     -0.551108
      31A     -0.539278    32A     -0.513038    33A     -0.496768
      34A     -0.478093    35A     -0.367399    36A     -0.352457
      37A     -0.338620    38A     -0.267362

  @DF-RHF Final Energy:  -438.49411022156096

   => Energetics <=

    Nuclear Repulsion Energy =            536.8496172763483401
    One-Electron Energy =               -1657.2975882570426620
    Two-Electron Energy =                 681.9538607591332493
    Total Energy =                       -438.4941102215609590
  Basis Set: (AUG-CC-PVTZ AUX)
    Blend: AUG-CC-PVTZ-RI
    Molecular point group: c1

    Geometry (in Angstrom), charge = 0, multiplicity = 1:

       Center              X                  Y                   Z               Mass
    ------------   -----------------  -----------------  -----------------  -----------------
         N            1.765005781264    -0.975487829205    -0.385546190569    14.003074004430
         C            0.995711781264     0.091344170795     0.027950809431    12.000000000000
         C           -0.381821818736     0.091795670795     0.006490709431    12.000000000000
         C            1.881600781264     1.085642170795     0.433759809431    12.000000000000
         C           -1.208464218736     1.193828170795    -0.269251190569    12.000000000000
         C           -1.148617218736    -1.157270829205     0.294974809431    12.000000000000
         C            3.099495781264    -0.678242829205    -0.276407190569    12.000000000000
         C            3.197048781264     0.602285170795     0.241890809431    12.000000000000
         C           -2.601805218736     1.155997170795    -0.268209190569    12.000000000000
         C           -2.542677218736    -1.197154829205     0.270395809431    12.000000000000
         C           -3.274911218736    -0.041052829205    -0.008726190569    12.000000000000
         H            1.387147781264    -1.802286829205    -0.831007190569     1.007825032230
         H            1.595309781264     2.037330170795     0.863763809431     1.007825032230
         H           -0.683587218736     2.116752170795    -0.506249190569     1.007825032230
         H           -0.586921218736    -2.049321829205     0.567620809431     1.007825032230
         H            3.859324781264    -1.386556829205    -0.576838190569     1.007825032230
         H            4.119272781264     1.120348170795     0.470730809431     1.007825032230
         H           -3.165113218736     2.059199170795    -0.491784190569     1.007825032230
         H           -3.058972218736    -2.129599829205     0.487599809431     1.007825032230
         H           -4.361685218736    -0.071265829205    -0.019156190569     1.007825032230

  Basis Set: AUG-CC-PVTZ
    Blend: AUG-CC-PVTZ
  Basis Set: (AUG-CC-PVTZ AUX)
    Blend: AUG-CC-PVTZ-JKFIT
	 Reference Energy          =    -438.4941102215609590 [Eh]
	 Singles Energy            =      -0.0000000000000000 [Eh]
	 Same-Spin Energy          =      -0.4968246266060771 [Eh]
	 Opposite-Spin Energy      =      -1.5279444656815717 [Eh]
	 Correlation Energy        =      -2.0247690922876487 [Eh]
	 Total Energy              =    -440.5188793138486290 [Eh]

	 ================> DF-SCS-MP2 Energies <==================
	-----------------------------------------------------------
	 SCS Same-Spin Scale       =       0.3333333333333333 [-]
	 SCS Opposite-Spin Scale   =       1.2000000000000000 [-]
	 SCS Same-Spin Energy      =      -0.1656082088686923 [Eh]
	 SCS Opposite-Spin Energy  =      -1.8335333588178859 [Eh]
	 SCS Correlation Energy    =      -1.9991415676865782 [Eh]
	 SCS Total Energy          =    -440.4932517892475516 [Eh]
	-----------------------------------------------------------

  Dipole Moment: [D]
     X:    -0.1413      Y:    -1.3149      Z:    -0.6466     Total:     1.4721

*** Psi4 exiting successfully. Buy a developer a beer!
