                               Psi4 1.3.2 release

  ==> Input File <==

--------------------------------------------------------------------------
#psi4
#
memory 32 gb

molecule  {
0 1
  N        1.7830249    -0.9920629    -0.3952475
  C        1.0080060     0.0962300     0.0271750
  C       -0.4507830     0.0432590     0.0183630
  C        1.8938950     1.0905280     0.4329840
  C       -1.1961700     1.1987140    -0.2700270
  C       -1.1363230    -1.1523850     0.2941990
  C        3.1117900    -0.6733570    -0.2771830
  C        3.2093430     0.6071710     0.2411150
  C       -2.5895110     1.1608830    -0.2689850
  C       -2.5303830    -1.1922690     0.2696200
  C       -3.2626170    -0.0361670    -0.0095020
  H        1.3994420    -1.7974010    -0.8317830
  H        1.6076040     2.0422160     0.8629880
  H       -0.6712930     2.1216380    -0.5070250
  H       -0.5746270    -2.0444360     0.5668450
  H        3.8716190    -1.3816710    -0.5776140
  H        4.1315670     1.1252340     0.4699550
  H       -3.1528190     2.0640850    -0.4925600
  H       -3.0466780    -2.1247140     0.4868240
  H       -4.3493910    -0.0663800    -0.0199320
units angstrom
no_reorient  #important for SAPT in psi4, default
symmetry c1  #important for SAPT in psi4, default
}

set PROPERTIES_ORIGIN ["COM"]
properties('MP2/aug-cc-pvtz', properties = ['dipole'])
--------------------------------------------------------------------------

    Molecular point group: c1
  Charge       = 0
  Multiplicity = 1
  Basis Set: AUG-CC-PVTZ
    Blend: AUG-CC-PVTZ
  Basis Set: (AUG-CC-PVTZ AUX)
    Blend: AUG-CC-PVTZ-JKFIT

    Orbital Energies [Eh]
    ---------------------

    Doubly Occupied:

       1A    -15.606504     2A    -11.263688     3A    -11.258550
       4A    -11.253014     5A    -11.241740     6A    -11.240506
       7A    -11.240117     8A    -11.237639     9A    -11.237369
      10A    -11.215706    11A    -11.213715    12A     -1.289325
      13A     -1.155907    14A     -1.050738    15A     -1.043319
      16A     -1.016630    17A     -0.957218    18A     -0.838283
      19A     -0.831920    20A     -0.792756    21A     -0.763035
      22A     -0.734640    23A     -0.679414    24A     -0.632159
      25A     -0.629852    26A     -0.596823    27A     -0.589173
      28A     -0.579541    29A     -0.567233    30A     -0.549991
      31A     -0.537682    32A     -0.503968    33A     -0.500589
      34A     -0.494189    35A     -0.364325    36A     -0.350964
      37A     -0.341122    38A     -0.272943

  @DF-RHF Final Energy:  -438.50815859588334

   => Energetics <=

    Nuclear Repulsion Energy =            536.3355430394553878
    One-Electron Energy =               -1656.3428287507770165
    Two-Electron Energy =                 681.4991271154383412
    Total Energy =                       -438.5081585958832875
  Basis Set: (AUG-CC-PVTZ AUX)
    Blend: AUG-CC-PVTZ-RI
    Molecular point group: c1

    Geometry (in Angstrom), charge = 0, multiplicity = 1:

       Center              X                  Y                   Z               Mass
    ------------   -----------------  -----------------  -----------------  -----------------
         N            1.776985498586    -0.990367576332    -0.394658956297    14.003074004430
         C            1.001966598586     0.097925323668     0.027763543703    12.000000000000
         C           -0.456822401414     0.044954323668     0.018951543703    12.000000000000
         C            1.887855598586     1.092223323668     0.433572543703    12.000000000000
         C           -1.202209401414     1.200409323668    -0.269438456297    12.000000000000
         C           -1.142362401414    -1.150689676332     0.294787543703    12.000000000000
         C            3.105750598586    -0.671661676332    -0.276594456297    12.000000000000
         C            3.203303598586     0.608866323668     0.241703543703    12.000000000000
         C           -2.595550401414     1.162578323668    -0.268396456297    12.000000000000
         C           -2.536422401414    -1.190573676332     0.270208543703    12.000000000000
         C           -3.268656401414    -0.034471676332    -0.008913456297    12.000000000000
         H            1.393402598586    -1.795705676332    -0.831194456297     1.007825032230
         H            1.601564598586     2.043911323668     0.863576543703     1.007825032230
         H           -0.677332401414     2.123333323668    -0.506436456297     1.007825032230
         H           -0.580666401414    -2.042740676332     0.567433543703     1.007825032230
         H            3.865579598586    -1.379975676332    -0.577025456297     1.007825032230
         H            4.125527598586     1.126929323668     0.470543543703     1.007825032230
         H           -3.158858401414     2.065780323668    -0.491971456297     1.007825032230
         H           -3.052717401414    -2.123018676332     0.487412543703     1.007825032230
         H           -4.355430401414    -0.064684676332    -0.019343456297     1.007825032230

  Basis Set: AUG-CC-PVTZ
    Blend: AUG-CC-PVTZ
  Basis Set: (AUG-CC-PVTZ AUX)
    Blend: AUG-CC-PVTZ-JKFIT
	 Reference Energy          =    -438.5081585958833443 [Eh]
	 Singles Energy            =      -0.0000000000000000 [Eh]
	 Same-Spin Energy          =      -0.4950215791519113 [Eh]
	 Opposite-Spin Energy      =      -1.5253348427812357 [Eh]
	 Correlation Energy        =      -2.0203564219331467 [Eh]
	 Total Energy              =    -440.5285150178165168 [Eh]

	 ================> DF-SCS-MP2 Energies <==================
	-----------------------------------------------------------
	 SCS Same-Spin Scale       =       0.3333333333333333 [-]
	 SCS Opposite-Spin Scale   =       1.2000000000000000 [-]
	 SCS Same-Spin Energy      =      -0.1650071930506371 [Eh]
	 SCS Opposite-Spin Energy  =      -1.8304018113374827 [Eh]
	 SCS Correlation Energy    =      -1.9954090043881199 [Eh]
	 SCS Total Energy          =    -440.5035676002714808 [Eh]
	-----------------------------------------------------------

  Dipole Moment: [D]
     X:    -0.4326      Y:    -1.2649      Z:    -0.6267     Total:     1.4765

*** Psi4 exiting successfully. Buy a developer a beer!
