                               Psi4 1.3.2 release

  ==> Input File <==

--------------------------------------------------------------------------
#psi4
#
memory 32 gb

molecule  {
0 1
  N        1.6534927    -1.0401920    -0.4119326
  C        1.0080060     0.0962300     0.0271750
  C       -0.4507830     0.0432590     0.0183630
  C        1.8938950     1.0905280     0.4329840
  C       -1.1961700     1.1987140    -0.2700270
  C       -1.1363230    -1.1523850     0.2941990
  C        3.1117900    -0.6733570    -0.2771830
  C        3.2093430     0.6071710     0.2411150
  C       -2.5895110     1.1608830    -0.2689850
  C       -2.5303830    -1.1922690     0.2696200
  C       -3.2626170    -0.0361670    -0.0095020
  H        1.3994420    -1.7974010    -0.8317830
  H        1.6076040     2.0422160     0.8629880
  H       -0.6712930     2.1216380    -0.5070250
  H       -0.5746270    -2.0444360     0.5668450
  H        3.8716190    -1.3816710    -0.5776140
  H        4.1315670     1.1252340     0.4699550
  H       -3.1528190     2.0640850    -0.4925600
  H       -3.0466780    -2.1247140     0.4868240
  H       -4.3493910    -0.0663800    -0.0199320
units angstrom
no_reorient  #important for SAPT in psi4, default
symmetry c1  #important for SAPT in psi4, default
}

set PROPERTIES_ORIGIN ["COM"]
properties('MP2/aug-cc-pvtz', properties = ['dipole'])
--------------------------------------------------------------------------

    Molecular point group: c1
  Charge       = 0
  Multiplicity = 1
  Basis Set: AUG-CC-PVTZ
    Blend: AUG-CC-PVTZ
  Basis Set: (AUG-CC-PVTZ AUX)
    Blend: AUG-CC-PVTZ-JKFIT

    Orbital Energies [Eh]
    ---------------------

    Doubly Occupied:

       1A    -15.595710     2A    -11.274033     3A    -11.264940
       4A    -11.250052     5A    -11.241416     6A    -11.240130
       7A    -11.239917     8A    -11.237905     9A    -11.237357
      10A    -11.226619    11A    -11.215507    12A     -1.272750
      13A     -1.154338    14A     -1.063113    15A     -1.042849
      16A     -1.016568    17A     -0.950551    18A     -0.842841
      19A     -0.831011    20A     -0.811192    21A     -0.757644
      22A     -0.731423    23A     -0.675258    24A     -0.635007
      25A     -0.624396    26A     -0.614236    27A     -0.589072
      28A     -0.565357    29A     -0.561029    30A     -0.544826
      31A     -0.537711    32A     -0.500596    33A     -0.498503
      34A     -0.494371    35A     -0.363426    36A     -0.356840
      37A     -0.340694    38A     -0.274356

  @DF-RHF Final Energy:  -438.47887563781910

   => Energetics <=

    Nuclear Repulsion Energy =            535.7888673037446097
    One-Electron Energy =               -1655.1884006367481561
    Two-Electron Energy =                 680.9206576951844454
    Total Energy =                       -438.4788756378191010
  Basis Set: (AUG-CC-PVTZ AUX)
    Blend: AUG-CC-PVTZ-RI
    Molecular point group: c1

    Geometry (in Angstrom), charge = 0, multiplicity = 1:

       Center              X                  Y                   Z               Mass
    ------------   -----------------  -----------------  -----------------  -----------------
         N            1.660131041085    -1.033786122998    -0.409711030676    14.003074004430
         C            1.014644341085     0.102635877002     0.029396569324    12.000000000000
         C           -0.444144658915     0.049664877002     0.020584569324    12.000000000000
         C            1.900533341085     1.096933877002     0.435205569324    12.000000000000
         C           -1.189531658915     1.205119877002    -0.267805430676    12.000000000000
         C           -1.129684658915    -1.145979122998     0.296420569324    12.000000000000
         C            3.118428341085    -0.666951122998    -0.274961430676    12.000000000000
         C            3.215981341085     0.613576877002     0.243336569324    12.000000000000
         C           -2.582872658915     1.167288877002    -0.266763430676    12.000000000000
         C           -2.523744658915    -1.185863122998     0.271841569324    12.000000000000
         C           -3.255978658915    -0.029761122998    -0.007280430676    12.000000000000
         H            1.406080341085    -1.790995122998    -0.829561430676     1.007825032230
         H            1.614242341085     2.048621877002     0.865209569324     1.007825032230
         H           -0.664654658915     2.128043877002    -0.504803430676     1.007825032230
         H           -0.567988658915    -2.038030122998     0.569066569324     1.007825032230
         H            3.878257341085    -1.375265122998    -0.575392430676     1.007825032230
         H            4.138205341085     1.131639877002     0.472176569324     1.007825032230
         H           -3.146180658915     2.070490877002    -0.490338430676     1.007825032230
         H           -3.040039658915    -2.118308122998     0.489045569324     1.007825032230
         H           -4.342752658915    -0.059974122998    -0.017710430676     1.007825032230

  Basis Set: AUG-CC-PVTZ
    Blend: AUG-CC-PVTZ
  Basis Set: (AUG-CC-PVTZ AUX)
    Blend: AUG-CC-PVTZ-JKFIT
	 Reference Energy          =    -438.4788756378191010 [Eh]
	 Singles Energy            =      -0.0000000000000000 [Eh]
	 Same-Spin Energy          =      -0.4941893211771747 [Eh]
	 Opposite-Spin Energy      =      -1.5266766773843190 [Eh]
	 Correlation Energy        =      -2.0208659985614936 [Eh]
	 Total Energy              =    -440.4997416363805769 [Eh]

	 ================> DF-SCS-MP2 Energies <==================
	-----------------------------------------------------------
	 SCS Same-Spin Scale       =       0.3333333333333333 [-]
	 SCS Opposite-Spin Scale   =       1.2000000000000000 [-]
	 SCS Same-Spin Energy      =      -0.1647297737257249 [Eh]
	 SCS Opposite-Spin Energy  =      -1.8320120128611828 [Eh]
	 SCS Correlation Energy    =      -1.9967417865869077 [Eh]
	 SCS Total Energy          =    -440.4756174244059821 [Eh]
	-----------------------------------------------------------

  Dipole Moment: [D]
     X:    -0.2265      Y:    -0.9902      Z:    -0.5249     Total:     1.1433

*** Psi4 exiting successfully. Buy a developer a beer!
