                               Psi4 1.3.2 release

  ==> Input File <==

--------------------------------------------------------------------------
#psi4
#
memory 32 gb

molecule  {
0 1
  N        1.7773000    -0.9706020    -0.3863220
  C        1.0080060     0.0962300     0.0271750
  C       -0.4507830     0.0432590     0.0183630
  C        1.8938950     1.0905280     0.4329840
  C       -1.1961700     1.1987140    -0.2700270
  C       -1.1363230    -1.1523850     0.2941990
  C        3.2083726    -0.6772753    -0.2766670
  C        3.2093430     0.6071710     0.2411150
  C       -2.5895110     1.1608830    -0.2689850
  C       -2.5303830    -1.1922690     0.2696200
  C       -3.2626170    -0.0361670    -0.0095020
  H        1.3994420    -1.7974010    -0.8317830
  H        1.6076040     2.0422160     0.8629880
  H       -0.6712930     2.1216380    -0.5070250
  H       -0.5746270    -2.0444360     0.5668450
  H        3.8716190    -1.3816710    -0.5776140
  H        4.1315670     1.1252340     0.4699550
  H       -3.1528190     2.0640850    -0.4925600
  H       -3.0466780    -2.1247140     0.4868240
  H       -4.3493910    -0.0663800    -0.0199320
units angstrom
no_reorient  #important for SAPT in psi4, default
symmetry c1  #important for SAPT in psi4, default
}

set PROPERTIES_ORIGIN ["COM"]
properties('MP2/aug-cc-pvtz', properties = ['dipole'])
--------------------------------------------------------------------------

    Molecular point group: c1
  Charge       = 0
  Multiplicity = 1
  Basis Set: AUG-CC-PVTZ
    Blend: AUG-CC-PVTZ
  Basis Set: (AUG-CC-PVTZ AUX)
    Blend: AUG-CC-PVTZ-JKFIT

    Orbital Energies [Eh]
    ---------------------

    Doubly Occupied:

       1A    -15.601896     2A    -11.269115     3A    -11.255833
       4A    -11.254525     5A    -11.243439     6A    -11.242327
       7A    -11.242043     8A    -11.240326     9A    -11.239872
      10A    -11.220929    11A    -11.211545    12A     -1.269688
      13A     -1.156934    14A     -1.046615    15A     -1.039917
      16A     -1.017985    17A     -0.961214    18A     -0.842818
      19A     -0.832975    20A     -0.783483    21A     -0.762940
      22A     -0.736174    23A     -0.680917    24A     -0.636343
      25A     -0.629151    26A     -0.594513    27A     -0.590899
      28A     -0.574815    29A     -0.559468    30A     -0.549640
      31A     -0.538593    32A     -0.504878    33A     -0.501846
      34A     -0.495642    35A     -0.362339    36A     -0.349119
      37A     -0.342578    38A     -0.276808

  @DF-RHF Final Energy:  -438.49608928851035

   => Energetics <=

    Nuclear Repulsion Energy =            534.9234366749516312
    One-Electron Energy =               -1653.5187661832899266
    Two-Electron Energy =                 680.0992402198278342
    Total Energy =                       -438.4960892885103476
  Basis Set: (AUG-CC-PVTZ AUX)
    Blend: AUG-CC-PVTZ-RI
    Molecular point group: c1

    Geometry (in Angstrom), charge = 0, multiplicity = 1:

       Center              X                  Y                   Z               Mass
    ------------   -----------------  -----------------  -----------------  -----------------
         N            1.763720243405    -0.970678485731    -0.386650302797    14.003074004430
         C            0.994426243405     0.096153514269     0.026846697203    12.000000000000
         C           -0.464362756595     0.043182514269     0.018034697203    12.000000000000
         C            1.880315243405     1.090451514269     0.432655697203    12.000000000000
         C           -1.209749756595     1.198637514269    -0.270355302797    12.000000000000
         C           -1.149902756595    -1.152461485731     0.293870697203    12.000000000000
         C            3.194792843405    -0.677351785731    -0.276995302797    12.000000000000
         C            3.195763243405     0.607094514269     0.240786697203    12.000000000000
         C           -2.603090756595     1.160806514269    -0.269313302797    12.000000000000
         C           -2.543962756595    -1.192345485731     0.269291697203    12.000000000000
         C           -3.276196756595    -0.036243485731    -0.009830302797    12.000000000000
         H            1.385862243405    -1.797477485731    -0.832111302797     1.007825032230
         H            1.594024243405     2.042139514269     0.862659697203     1.007825032230
         H           -0.684872756595     2.121561514269    -0.507353302797     1.007825032230
         H           -0.588206756595    -2.044512485731     0.566516697203     1.007825032230
         H            3.858039243405    -1.381747485731    -0.577942302797     1.007825032230
         H            4.117987243405     1.125157514269     0.469626697203     1.007825032230
         H           -3.166398756595     2.064008514269    -0.492888302797     1.007825032230
         H           -3.060257756595    -2.124790485731     0.486495697203     1.007825032230
         H           -4.362970756595    -0.066456485731    -0.020260302797     1.007825032230

  Basis Set: AUG-CC-PVTZ
    Blend: AUG-CC-PVTZ
  Basis Set: (AUG-CC-PVTZ AUX)
    Blend: AUG-CC-PVTZ-JKFIT
	 Reference Energy          =    -438.4960892885103476 [Eh]
	 Singles Energy            =      -0.0000000000000000 [Eh]
	 Same-Spin Energy          =      -0.4951214665118234 [Eh]
	 Opposite-Spin Energy      =      -1.5268853461002863 [Eh]
	 Correlation Energy        =      -2.0220068126121098 [Eh]
	 Total Energy              =    -440.5180961011224667 [Eh]

	 ================> DF-SCS-MP2 Energies <==================
	-----------------------------------------------------------
	 SCS Same-Spin Scale       =       0.3333333333333333 [-]
	 SCS Opposite-Spin Scale   =       1.2000000000000000 [-]
	 SCS Same-Spin Energy      =      -0.1650404888372745 [Eh]
	 SCS Opposite-Spin Energy  =      -1.8322624153203435 [Eh]
	 SCS Correlation Energy    =      -1.9973029041576180 [Eh]
	 SCS Total Energy          =    -440.4933921926679545 [Eh]
	-----------------------------------------------------------

  Dipole Moment: [D]
     X:    -0.5134      Y:    -1.2278      Z:    -0.6116     Total:     1.4646

*** Psi4 exiting successfully. Buy a developer a beer!
