                               Psi4 1.3.2 release

  ==> Input File <==

--------------------------------------------------------------------------
#psi4
#
memory 32 gb

molecule  {
0 1
  N        1.7773000    -0.9706020    -0.3863220
  C        1.0080060     0.0962300     0.0271750
  C       -0.4507830     0.0432590     0.0183630
  C        1.8938950     1.0905280     0.4329840
  C       -1.1961700     1.1987140    -0.2700270
  C       -1.1363230    -1.1523850     0.2941990
  C        2.9171931    -0.7167016    -0.2930978
  C        3.2093430     0.6071710     0.2411150
  C       -2.5895110     1.1608830    -0.2689850
  C       -2.5303830    -1.1922690     0.2696200
  C       -3.2626170    -0.0361670    -0.0095020
  H        1.3994420    -1.7974010    -0.8317830
  H        1.6076040     2.0422160     0.8629880
  H       -0.6712930     2.1216380    -0.5070250
  H       -0.5746270    -2.0444360     0.5668450
  H        3.8716190    -1.3816710    -0.5776140
  H        4.1315670     1.1252340     0.4699550
  H       -3.1528190     2.0640850    -0.4925600
  H       -3.0466780    -2.1247140     0.4868240
  H       -4.3493910    -0.0663800    -0.0199320
units angstrom
no_reorient  #important for SAPT in psi4, default
symmetry c1  #important for SAPT in psi4, default
}

set PROPERTIES_ORIGIN ["COM"]
properties('MP2/aug-cc-pvtz', properties = ['dipole'])
--------------------------------------------------------------------------

    Molecular point group: c1
  Charge       = 0
  Multiplicity = 1
  Basis Set: AUG-CC-PVTZ
    Blend: AUG-CC-PVTZ
  Basis Set: (AUG-CC-PVTZ AUX)
    Blend: AUG-CC-PVTZ-JKFIT

    Orbital Energies [Eh]
    ---------------------

    Doubly Occupied:

       1A    -15.624115     2A    -11.266792     3A    -11.250833
       4A    -11.245781     5A    -11.239146     6A    -11.237565
       7A    -11.235575     8A    -11.232073     9A    -11.231858
      10A    -11.220341    11A    -11.207454    12A     -1.373625
      13A     -1.153961    14A     -1.065912    15A     -1.037391
      16A     -1.013353    17A     -0.956909    18A     -0.834406
      19A     -0.827536    20A     -0.815928    21A     -0.783404
      22A     -0.728055    23A     -0.678417    24A     -0.642128
      25A     -0.632817    26A     -0.613541    27A     -0.604102
      28A     -0.585371    29A     -0.575634    30A     -0.551710
      31A     -0.506346    32A     -0.497235    33A     -0.492900
      34A     -0.486070    35A     -0.377133    36A     -0.345006
      37A     -0.338373    38A     -0.258834

  @DF-RHF Final Energy:  -438.44839778179988

   => Energetics <=

    Nuclear Repulsion Energy =            540.5856544530239489
    One-Electron Energy =               -1664.5328433503061660
    Two-Electron Energy =                 685.4987911154821631
    Total Energy =                       -438.4483977817999403
  Basis Set: (AUG-CC-PVTZ AUX)
    Blend: AUG-CC-PVTZ-RI
    Molecular point group: c1

    Geometry (in Angstrom), charge = 0, multiplicity = 1:

       Center              X                  Y                   Z               Mass
    ------------   -----------------  -----------------  -----------------  -----------------
         N            1.788142334269    -0.967371684665    -0.385272202722    14.003074004430
         C            1.018848334269     0.099460315335     0.028224797278    12.000000000000
         C           -0.439940665731     0.046489315335     0.019412797278    12.000000000000
         C            1.904737334269     1.093758315335     0.434033797278    12.000000000000
         C           -1.185327665731     1.201944315335    -0.268977202722    12.000000000000
         C           -1.125480665731    -1.149154684665     0.295248797278    12.000000000000
         C            2.928035434269    -0.713471284665    -0.292048002722    12.000000000000
         C            3.220185334269     0.610401315335     0.242164797278    12.000000000000
         C           -2.578668665731     1.164113315335    -0.267935202722    12.000000000000
         C           -2.519540665731    -1.189038684665     0.270669797278    12.000000000000
         C           -3.251774665731    -0.032936684665    -0.008452202722    12.000000000000
         H            1.410284334269    -1.794170684665    -0.830733202722     1.007825032230
         H            1.618446334269     2.045446315335     0.864037797278     1.007825032230
         H           -0.660450665731     2.124868315335    -0.505975202722     1.007825032230
         H           -0.563784665731    -2.041205684665     0.567894797278     1.007825032230
         H            3.882461334269    -1.378440684665    -0.576564202722     1.007825032230
         H            4.142409334269     1.128464315335     0.471004797278     1.007825032230
         H           -3.141976665731     2.067315315335    -0.491510202722     1.007825032230
         H           -3.035835665731    -2.121483684665     0.487873797278     1.007825032230
         H           -4.338548665731    -0.063149684665    -0.018882202722     1.007825032230

  Basis Set: AUG-CC-PVTZ
    Blend: AUG-CC-PVTZ
  Basis Set: (AUG-CC-PVTZ AUX)
    Blend: AUG-CC-PVTZ-JKFIT
	 Reference Energy          =    -438.4483977817998834 [Eh]
	 Singles Energy            =      -0.0000000000000000 [Eh]
	 Same-Spin Energy          =      -0.4963589450160102 [Eh]
	 Opposite-Spin Energy      =      -1.5245744745739764 [Eh]
	 Correlation Energy        =      -2.0209334195899866 [Eh]
	 Total Energy              =    -440.4693312013898776 [Eh]

	 ================> DF-SCS-MP2 Energies <==================
	-----------------------------------------------------------
	 SCS Same-Spin Scale       =       0.3333333333333333 [-]
	 SCS Opposite-Spin Scale   =       1.2000000000000000 [-]
	 SCS Same-Spin Energy      =      -0.1654529816720034 [Eh]
	 SCS Opposite-Spin Energy  =      -1.8294893694887717 [Eh]
	 SCS Correlation Energy    =      -1.9949423511607751 [Eh]
	 SCS Total Energy          =    -440.4433401329606568 [Eh]
	-----------------------------------------------------------

  Dipole Moment: [D]
     X:    -0.3034      Y:    -1.5908      Z:    -0.7596     Total:     1.7888

*** Psi4 exiting successfully. Buy a developer a beer!
