                               Psi4 1.3.2 release

  ==> Input File <==

--------------------------------------------------------------------------
#psi4
#
memory 32 gb

molecule  {
0 1
  N        1.7670685    -0.9272912    -0.3686766
  C        1.0080060     0.0962300     0.0271750
  C       -0.4507830     0.0432590     0.0183630
  C        1.8938950     1.0905280     0.4329840
  C       -1.1961700     1.1987140    -0.2700270
  C       -1.1363230    -1.1523850     0.2941990
  C        3.1117900    -0.6733570    -0.2771830
  C        3.2093430     0.6071710     0.2411150
  C       -2.5895110     1.1608830    -0.2689850
  C       -2.5303830    -1.1922690     0.2696200
  C       -3.2626170    -0.0361670    -0.0095020
  H        1.3994420    -1.7974010    -0.8317830
  H        1.6076040     2.0422160     0.8629880
  H       -0.6712930     2.1216380    -0.5070250
  H       -0.5746270    -2.0444360     0.5668450
  H        3.8716190    -1.3816710    -0.5776140
  H        4.1315670     1.1252340     0.4699550
  H       -3.1528190     2.0640850    -0.4925600
  H       -3.0466780    -2.1247140     0.4868240
  H       -4.3493910    -0.0663800    -0.0199320
units angstrom
no_reorient  #important for SAPT in psi4, default
symmetry c1  #important for SAPT in psi4, default
}

set PROPERTIES_ORIGIN ["COM"]
properties('MP2/aug-cc-pvtz', properties = ['dipole'])
--------------------------------------------------------------------------

    Molecular point group: c1
  Charge       = 0
  Multiplicity = 1
  Basis Set: AUG-CC-PVTZ
    Blend: AUG-CC-PVTZ
  Basis Set: (AUG-CC-PVTZ AUX)
    Blend: AUG-CC-PVTZ-JKFIT

    Orbital Energies [Eh]
    ---------------------

    Doubly Occupied:

       1A    -15.611778     2A    -11.258920     3A    -11.253770
       4A    -11.252906     5A    -11.242644     6A    -11.241347
       7A    -11.241135     8A    -11.238635     9A    -11.238339
      10A    -11.212802    11A    -11.208623    12A     -1.305103
      13A     -1.156750    14A     -1.048626    15A     -1.039357
      16A     -1.017077    17A     -0.963776    18A     -0.837855
      19A     -0.832883    20A     -0.779961    21A     -0.768692
      22A     -0.736745    23A     -0.681083    24A     -0.635937
      25A     -0.629936    26A     -0.592762    27A     -0.588256
      28A     -0.585070    29A     -0.570973    30A     -0.548571
      31A     -0.535042    32A     -0.505771    33A     -0.501241
      34A     -0.494699    35A     -0.362484    36A     -0.348240
      37A     -0.341831    38A     -0.274208

  @DF-RHF Final Energy:  -438.50499218864144

   => Energetics <=

    Nuclear Repulsion Energy =            537.8413869274178296
    One-Electron Energy =               -1659.3251038414864524
    Two-Electron Energy =                 682.9787247254272415
    Total Energy =                       -438.5049921886414950
  Basis Set: (AUG-CC-PVTZ AUX)
    Blend: AUG-CC-PVTZ-RI
    Molecular point group: c1

    Geometry (in Angstrom), charge = 0, multiplicity = 1:

       Center              X                  Y                   Z               Mass
    ------------   -----------------  -----------------  -----------------  -----------------
         N            1.762590803941    -0.931935295672    -0.370688637683    14.003074004430
         C            1.003528303941     0.091585904328     0.025162962317    12.000000000000
         C           -0.455260696059     0.038614904328     0.016350962317    12.000000000000
         C            1.889417303941     1.085883904328     0.430971962317    12.000000000000
         C           -1.200647696059     1.194069904328    -0.272039037683    12.000000000000
         C           -1.140800696059    -1.157029095672     0.292186962317    12.000000000000
         C            3.107312303941    -0.678001095672    -0.279195037683    12.000000000000
         C            3.204865303941     0.602526904328     0.239102962317    12.000000000000
         C           -2.593988696059     1.156238904328    -0.270997037683    12.000000000000
         C           -2.534860696059    -1.196913095672     0.267607962317    12.000000000000
         C           -3.267094696059    -0.040811095672    -0.011514037683    12.000000000000
         H            1.394964303941    -1.802045095672    -0.833795037683     1.007825032230
         H            1.603126303941     2.037571904328     0.860975962317     1.007825032230
         H           -0.675770696059     2.116993904328    -0.509037037683     1.007825032230
         H           -0.579104696059    -2.049080095672     0.564832962317     1.007825032230
         H            3.867141303941    -1.386315095672    -0.579626037683     1.007825032230
         H            4.127089303941     1.120589904328     0.467942962317     1.007825032230
         H           -3.157296696059     2.059440904328    -0.494572037683     1.007825032230
         H           -3.051155696059    -2.129358095672     0.484811962317     1.007825032230
         H           -4.353868696059    -0.071024095672    -0.021944037683     1.007825032230

  Basis Set: AUG-CC-PVTZ
    Blend: AUG-CC-PVTZ
  Basis Set: (AUG-CC-PVTZ AUX)
    Blend: AUG-CC-PVTZ-JKFIT
	 Reference Energy          =    -438.5049921886414381 [Eh]
	 Singles Energy            =      -0.0000000000000000 [Eh]
	 Same-Spin Energy          =      -0.4958002248962943 [Eh]
	 Opposite-Spin Energy      =      -1.5255758107814259 [Eh]
	 Correlation Energy        =      -2.0213760356777204 [Eh]
	 Total Energy              =    -440.5263682243191852 [Eh]

	 ================> DF-SCS-MP2 Energies <==================
	-----------------------------------------------------------
	 SCS Same-Spin Scale       =       0.3333333333333333 [-]
	 SCS Opposite-Spin Scale   =       1.2000000000000000 [-]
	 SCS Same-Spin Energy      =      -0.1652667416320981 [Eh]
	 SCS Opposite-Spin Energy  =      -1.8306909729377110 [Eh]
	 SCS Correlation Energy    =      -1.9959577145698091 [Eh]
	 SCS Total Energy          =    -440.5009499032112217 [Eh]
	-----------------------------------------------------------

  Dipole Moment: [D]
     X:    -0.4993      Y:    -1.4215      Z:    -0.6860     Total:     1.6554

*** Psi4 exiting successfully. Buy a developer a beer!
