                               Psi4 1.3.2 release

  ==> Input File <==

--------------------------------------------------------------------------
#psi4
#
memory 32 gb

molecule  {
0 1
  N        1.7773000    -0.9706020    -0.3863220
  C        1.0080060     0.0962300     0.0271750
  C       -0.6506476     0.0360016     0.0171557
  C        1.8938950     1.0905280     0.4329840
  C       -1.1961700     1.1987140    -0.2700270
  C       -1.1363230    -1.1523850     0.2941990
  C        3.1117900    -0.6733570    -0.2771830
  C        3.2093430     0.6071710     0.2411150
  C       -2.5895110     1.1608830    -0.2689850
  C       -2.5303830    -1.1922690     0.2696200
  C       -3.2626170    -0.0361670    -0.0095020
  H        1.3994420    -1.7974010    -0.8317830
  H        1.6076040     2.0422160     0.8629880
  H       -0.6712930     2.1216380    -0.5070250
  H       -0.5746270    -2.0444360     0.5668450
  H        3.8716190    -1.3816710    -0.5776140
  H        4.1315670     1.1252340     0.4699550
  H       -3.1528190     2.0640850    -0.4925600
  H       -3.0466780    -2.1247140     0.4868240
  H       -4.3493910    -0.0663800    -0.0199320
units angstrom
no_reorient  #important for SAPT in psi4, default
symmetry c1  #important for SAPT in psi4, default
}

set PROPERTIES_ORIGIN ["COM"]
properties('MP2/aug-cc-pvtz', properties = ['dipole'])
--------------------------------------------------------------------------

    Molecular point group: c1
  Charge       = 0
  Multiplicity = 1
  Basis Set: AUG-CC-PVTZ
    Blend: AUG-CC-PVTZ
  Basis Set: (AUG-CC-PVTZ AUX)
    Blend: AUG-CC-PVTZ-JKFIT

    Orbital Energies [Eh]
    ---------------------

    Doubly Occupied:

       1A    -15.603303     2A    -11.263220     3A    -11.251210
       4A    -11.248958     5A    -11.245363     6A    -11.244201
       7A    -11.238215     8A    -11.234223     9A    -11.231584
      10A    -11.208026    11A    -11.205076    12A     -1.285686
      13A     -1.180914    14A     -1.040816    15A     -1.036711
      16A     -1.031192    17A     -0.955975    18A     -0.846362
      19A     -0.824502    20A     -0.783948    21A     -0.758371
      22A     -0.732929    23A     -0.674650    24A     -0.647931
      25A     -0.633089    26A     -0.604113    27A     -0.586357
      28A     -0.570876    29A     -0.561459    30A     -0.544527
      31A     -0.532233    32A     -0.521494    33A     -0.516836
      34A     -0.455997    35A     -0.362083    36A     -0.348321
      37A     -0.344792    38A     -0.279429

  @DF-RHF Final Energy:  -438.46865340861973

   => Energetics <=

    Nuclear Repulsion Energy =            537.2062855763366542
    One-Electron Energy =               -1658.0799380163250589
    Two-Electron Energy =                 682.4049990313685612
    Total Energy =                       -438.4686534086197298
  Basis Set: (AUG-CC-PVTZ AUX)
    Blend: AUG-CC-PVTZ-RI
    Molecular point group: c1

    Geometry (in Angstrom), charge = 0, multiplicity = 1:

       Center              X                  Y                   Z               Mass
    ------------   -----------------  -----------------  -----------------  -----------------
         N            1.788584151939    -0.970398425481    -0.386505764499    14.003074004430
         C            1.019290151939     0.096433574519     0.026991235501    12.000000000000
         C           -0.639363448061     0.036205174519     0.016971935501    12.000000000000
         C            1.905179151939     1.090731574519     0.432800235501    12.000000000000
         C           -1.184885848061     1.198917574519    -0.270210764499    12.000000000000
         C           -1.125038848061    -1.152181425481     0.294015235501    12.000000000000
         C            3.123074151939    -0.673153425481    -0.277366764499    12.000000000000
         C            3.220627151939     0.607374574519     0.240931235501    12.000000000000
         C           -2.578226848061     1.161086574519    -0.269168764499    12.000000000000
         C           -2.519098848061    -1.192065425481     0.269436235501    12.000000000000
         C           -3.251332848061    -0.035963425481    -0.009685764499    12.000000000000
         H            1.410726151939    -1.797197425481    -0.831966764499     1.007825032230
         H            1.618888151939     2.042419574519     0.862804235501     1.007825032230
         H           -0.660008848061     2.121841574519    -0.507208764499     1.007825032230
         H           -0.563342848061    -2.044232425481     0.566661235501     1.007825032230
         H            3.882903151939    -1.381467425481    -0.577797764499     1.007825032230
         H            4.142851151939     1.125437574519     0.469771235501     1.007825032230
         H           -3.141534848061     2.064288574519    -0.492743764499     1.007825032230
         H           -3.035393848061    -2.124510425481     0.486640235501     1.007825032230
         H           -4.338106848061    -0.066176425481    -0.020115764499     1.007825032230

  Basis Set: AUG-CC-PVTZ
    Blend: AUG-CC-PVTZ
  Basis Set: (AUG-CC-PVTZ AUX)
    Blend: AUG-CC-PVTZ-JKFIT
	 Reference Energy          =    -438.4686534086197298 [Eh]
	 Singles Energy            =      -0.0000000000000000 [Eh]
	 Same-Spin Energy          =      -0.4946551872770106 [Eh]
	 Opposite-Spin Energy      =      -1.5248797413981898 [Eh]
	 Correlation Energy        =      -2.0195349286752005 [Eh]
	 Total Energy              =    -440.4881883372949574 [Eh]

	 ================> DF-SCS-MP2 Energies <==================
	-----------------------------------------------------------
	 SCS Same-Spin Scale       =       0.3333333333333333 [-]
	 SCS Opposite-Spin Scale   =       1.2000000000000000 [-]
	 SCS Same-Spin Energy      =      -0.1648850624256702 [Eh]
	 SCS Opposite-Spin Energy  =      -1.8298556896778277 [Eh]
	 SCS Correlation Energy    =      -1.9947407521034979 [Eh]
	 SCS Total Energy          =    -440.4633941607232259 [Eh]
	-----------------------------------------------------------

  Dipole Moment: [D]
     X:    -1.0846      Y:    -1.3472      Z:    -0.6599     Total:     1.8511

*** Psi4 exiting successfully. Buy a developer a beer!
