                               Psi4 1.3.2 release

  ==> Input File <==

--------------------------------------------------------------------------
#psi4
#
memory 32 gb

molecule  {
0 1
  N        1.7773000    -0.9706020    -0.3863220
  C        0.9710666     0.1255286     0.0389376
  C       -0.4507830     0.0432590     0.0183630
  C        1.8938950     1.0905280     0.4329840
  C       -1.1961700     1.1987140    -0.2700270
  C       -1.1363230    -1.1523850     0.2941990
  C        3.1117900    -0.6733570    -0.2771830
  C        3.2093430     0.6071710     0.2411150
  C       -2.5895110     1.1608830    -0.2689850
  C       -2.5303830    -1.1922690     0.2696200
  C       -3.2626170    -0.0361670    -0.0095020
  H        1.3994420    -1.7974010    -0.8317830
  H        1.6076040     2.0422160     0.8629880
  H       -0.6712930     2.1216380    -0.5070250
  H       -0.5746270    -2.0444360     0.5668450
  H        3.8716190    -1.3816710    -0.5776140
  H        4.1315670     1.1252340     0.4699550
  H       -3.1528190     2.0640850    -0.4925600
  H       -3.0466780    -2.1247140     0.4868240
  H       -4.3493910    -0.0663800    -0.0199320
units angstrom
no_reorient  #important for SAPT in psi4, default
symmetry c1  #important for SAPT in psi4, default
}

set PROPERTIES_ORIGIN ["COM"]
properties('MP2/aug-cc-pvtz', properties = ['dipole'])
--------------------------------------------------------------------------

    Molecular point group: c1
  Charge       = 0
  Multiplicity = 1
  Basis Set: AUG-CC-PVTZ
    Blend: AUG-CC-PVTZ
  Basis Set: (AUG-CC-PVTZ AUX)
    Blend: AUG-CC-PVTZ-JKFIT

    Orbital Energies [Eh]
    ---------------------

    Doubly Occupied:

       1A    -15.605477     2A    -11.262608     3A    -11.260549
       4A    -11.251025     5A    -11.242112     6A    -11.240698
       7A    -11.240454     8A    -11.237714     9A    -11.237371
      10A    -11.217266    11A    -11.213135    12A     -1.281437
      13A     -1.157438    14A     -1.053399    15A     -1.040820
      16A     -1.016721    17A     -0.957936    18A     -0.842470
      19A     -0.832720    20A     -0.784850    21A     -0.759914
      22A     -0.736376    23A     -0.680105    24A     -0.634593
      25A     -0.630500    26A     -0.591862    27A     -0.588812
      28A     -0.578757    29A     -0.565344    30A     -0.547016
      31A     -0.539164    32A     -0.505355    33A     -0.502798
      34A     -0.494246    35A     -0.367311    36A     -0.348707
      37A     -0.341377    38A     -0.271585

  @DF-RHF Final Energy:  -438.50400361316321

   => Energetics <=

    Nuclear Repulsion Energy =            536.6750346100726574
    One-Electron Energy =               -1657.0380377422873153
    Two-Electron Energy =                 681.8589995190513946
    Total Energy =                       -438.5040036131631496
  Basis Set: (AUG-CC-PVTZ AUX)
    Blend: AUG-CC-PVTZ-RI
    Molecular point group: c1

    Geometry (in Angstrom), charge = 0, multiplicity = 1:

       Center              X                  Y                   Z               Mass
    ------------   -----------------  -----------------  -----------------  -----------------
         N            1.774919130746    -0.973464485948    -0.387593588595    14.003074004430
         C            0.968685730746     0.122666114052     0.037666011405    12.000000000000
         C           -0.453163869254     0.040396514052     0.017091411405    12.000000000000
         C            1.891514130746     1.087665514052     0.431712411405    12.000000000000
         C           -1.198550869254     1.195851514052    -0.271298588595    12.000000000000
         C           -1.138703869254    -1.155247485948     0.292927411405    12.000000000000
         C            3.109409130746    -0.676219485948    -0.278454588595    12.000000000000
         C            3.206962130746     0.604308514052     0.239843411405    12.000000000000
         C           -2.591891869254     1.158020514052    -0.270256588595    12.000000000000
         C           -2.532763869254    -1.195131485948     0.268348411405    12.000000000000
         C           -3.264997869254    -0.039029485948    -0.010773588595    12.000000000000
         H            1.397061130746    -1.800263485948    -0.833054588595     1.007825032230
         H            1.605223130746     2.039353514052     0.861716411405     1.007825032230
         H           -0.673673869254     2.118775514052    -0.508296588595     1.007825032230
         H           -0.577007869254    -2.047298485948     0.565573411405     1.007825032230
         H            3.869238130746    -1.384533485948    -0.578885588595     1.007825032230
         H            4.129186130746     1.122371514052     0.468683411405     1.007825032230
         H           -3.155199869254     2.061222514052    -0.493831588595     1.007825032230
         H           -3.049058869254    -2.127576485948     0.485552411405     1.007825032230
         H           -4.351771869254    -0.069242485948    -0.021203588595     1.007825032230

  Basis Set: AUG-CC-PVTZ
    Blend: AUG-CC-PVTZ
  Basis Set: (AUG-CC-PVTZ AUX)
    Blend: AUG-CC-PVTZ-JKFIT
	 Reference Energy          =    -438.5040036131632064 [Eh]
	 Singles Energy            =      -0.0000000000000000 [Eh]
	 Same-Spin Energy          =      -0.4958573792976570 [Eh]
	 Opposite-Spin Energy      =      -1.5267184815952310 [Eh]
	 Correlation Energy        =      -2.0225758608928879 [Eh]
	 Total Energy              =    -440.5265794740561205 [Eh]

	 ================> DF-SCS-MP2 Energies <==================
	-----------------------------------------------------------
	 SCS Same-Spin Scale       =       0.3333333333333333 [-]
	 SCS Opposite-Spin Scale   =       1.2000000000000000 [-]
	 SCS Same-Spin Energy      =      -0.1652857930992190 [Eh]
	 SCS Opposite-Spin Energy  =      -1.8320621779142772 [Eh]
	 SCS Correlation Energy    =      -1.9973479710134963 [Eh]
	 SCS Total Energy          =    -440.5013515841766889 [Eh]
	-----------------------------------------------------------

  Dipole Moment: [D]
     X:    -0.4343      Y:    -1.2770      Z:    -0.6247     Total:     1.4864

*** Psi4 exiting successfully. Buy a developer a beer!
