                               Psi4 1.3.2 release

  ==> Input File <==

--------------------------------------------------------------------------
#psi4
#
memory 32 gb

molecule  {
0 1
  N        1.7773000    -0.9706020    -0.3863220
  C        0.9883471     0.0848737     0.0191997
  C       -0.4507830     0.0432590     0.0183630
  C        1.8938950     1.0905280     0.4329840
  C       -1.1961700     1.1987140    -0.2700270
  C       -1.1363230    -1.1523850     0.2941990
  C        3.1117900    -0.6733570    -0.2771830
  C        3.2093430     0.6071710     0.2411150
  C       -2.5895110     1.1608830    -0.2689850
  C       -2.5303830    -1.1922690     0.2696200
  C       -3.2626170    -0.0361670    -0.0095020
  H        1.3994420    -1.7974010    -0.8317830
  H        1.6076040     2.0422160     0.8629880
  H       -0.6712930     2.1216380    -0.5070250
  H       -0.5746270    -2.0444360     0.5668450
  H        3.8716190    -1.3816710    -0.5776140
  H        4.1315670     1.1252340     0.4699550
  H       -3.1528190     2.0640850    -0.4925600
  H       -3.0466780    -2.1247140     0.4868240
  H       -4.3493910    -0.0663800    -0.0199320
units angstrom
no_reorient  #important for SAPT in psi4, default
symmetry c1  #important for SAPT in psi4, default
}

set PROPERTIES_ORIGIN ["COM"]
properties('MP2/aug-cc-pvtz', properties = ['dipole'])
--------------------------------------------------------------------------

    Molecular point group: c1
  Charge       = 0
  Multiplicity = 1
  Basis Set: AUG-CC-PVTZ
    Blend: AUG-CC-PVTZ
  Basis Set: (AUG-CC-PVTZ AUX)
    Blend: AUG-CC-PVTZ-JKFIT

    Orbital Energies [Eh]
    ---------------------

    Doubly Occupied:

       1A    -15.609910     2A    -11.263144     3A    -11.256981
       4A    -11.252152     5A    -11.242012     6A    -11.240846
       7A    -11.240412     8A    -11.238076     9A    -11.237726
      10A    -11.215869    11A    -11.214027    12A     -1.293649
      13A     -1.156992    14A     -1.050240    15A     -1.042110
      16A     -1.016849    17A     -0.958159    18A     -0.840106
      19A     -0.832691    20A     -0.787987    21A     -0.764025
      22A     -0.736518    23A     -0.680076    24A     -0.634436
      25A     -0.630192    26A     -0.592333    27A     -0.588398
      28A     -0.585304    29A     -0.569034    30A     -0.547424
      31A     -0.536956    32A     -0.505893    33A     -0.501301
      34A     -0.493791    35A     -0.364133    36A     -0.349970
      37A     -0.341491    38A     -0.270346

  @DF-RHF Final Energy:  -438.50661275784233

   => Energetics <=

    Nuclear Repulsion Energy =            536.8411280638911194
    One-Electron Energy =               -1657.3323636000909573
    Two-Electron Energy =                 681.9846227783575614
    Total Energy =                       -438.5066127578422766
  Basis Set: (AUG-CC-PVTZ AUX)
    Blend: AUG-CC-PVTZ-RI
    Molecular point group: c1

    Geometry (in Angstrom), charge = 0, multiplicity = 1:

       Center              X                  Y                   Z               Mass
    ------------   -----------------  -----------------  -----------------  -----------------
         N            1.773469763805    -0.970054638545    -0.385938112206    14.003074004430
         C            0.984516863805     0.085421061455     0.019583587794    12.000000000000
         C           -0.454613236195     0.043806361455     0.018746887794    12.000000000000
         C            1.890064763805     1.091075361455     0.433367887794    12.000000000000
         C           -1.200000236195     1.199261361455    -0.269643112206    12.000000000000
         C           -1.140153236195    -1.151837638545     0.294582887794    12.000000000000
         C            3.107959763805    -0.672809638545    -0.276799112206    12.000000000000
         C            3.205512763805     0.607718361455     0.241498887794    12.000000000000
         C           -2.593341236195     1.161430361455    -0.268601112206    12.000000000000
         C           -2.534213236195    -1.191721638545     0.270003887794    12.000000000000
         C           -3.266447236195    -0.035619638545    -0.009118112206    12.000000000000
         H            1.395611763805    -1.796853638545    -0.831399112206     1.007825032230
         H            1.603773763805     2.042763361455     0.863371887794     1.007825032230
         H           -0.675123236195     2.122185361455    -0.506641112206     1.007825032230
         H           -0.578457236195    -2.043888638545     0.567228887794     1.007825032230
         H            3.867788763805    -1.381123638545    -0.577230112206     1.007825032230
         H            4.127736763805     1.125781361455     0.470338887794     1.007825032230
         H           -3.156649236195     2.064632361455    -0.492176112206     1.007825032230
         H           -3.050508236195    -2.124166638545     0.487207887794     1.007825032230
         H           -4.353221236195    -0.065832638545    -0.019548112206     1.007825032230

  Basis Set: AUG-CC-PVTZ
    Blend: AUG-CC-PVTZ
  Basis Set: (AUG-CC-PVTZ AUX)
    Blend: AUG-CC-PVTZ-JKFIT
	 Reference Energy          =    -438.5066127578423334 [Eh]
	 Singles Energy            =      -0.0000000000000000 [Eh]
	 Same-Spin Energy          =      -0.4959050565391501 [Eh]
	 Opposite-Spin Energy      =      -1.5262468310542139 [Eh]
	 Correlation Energy        =      -2.0221518875933642 [Eh]
	 Total Energy              =    -440.5287646454356718 [Eh]

	 ================> DF-SCS-MP2 Energies <==================
	-----------------------------------------------------------
	 SCS Same-Spin Scale       =       0.3333333333333333 [-]
	 SCS Opposite-Spin Scale   =       1.2000000000000000 [-]
	 SCS Same-Spin Energy      =      -0.1653016855130500 [Eh]
	 SCS Opposite-Spin Energy  =      -1.8314961972650565 [Eh]
	 SCS Correlation Energy    =      -1.9967978827781065 [Eh]
	 SCS Total Energy          =    -440.5034106406204160 [Eh]
	-----------------------------------------------------------

  Dipole Moment: [D]
     X:    -0.4157      Y:    -1.3344      Z:    -0.6536     Total:     1.5429

*** Psi4 exiting successfully. Buy a developer a beer!
