                               Psi4 1.3.2 release

  ==> Input File <==

--------------------------------------------------------------------------
#psi4
#
memory 32 gb

molecule  {
0 1
  N        1.7773000    -0.9706020    -0.3863220
  C        1.0080060     0.0962300     0.0271750
  C       -0.4507830     0.0432590     0.0183630
  C        1.8938950     1.0905280     0.4329840
  C       -1.1961700     1.1987140    -0.2700270
  C       -1.1363230    -1.1523850     0.2941990
  C        3.1117900    -0.6733570    -0.2771830
  C        3.2093430     0.6071710     0.2411150
  C       -2.5895110     1.1608830    -0.2689850
  C       -2.5303830    -1.1922690     0.2696200
  C       -3.2626170    -0.0361670    -0.0095020
  H        1.3994420    -1.7974010    -0.8317830
  H        1.6076040     2.0422160     0.8629880
  H       -0.6712930     2.1216380    -0.5070250
  H       -0.5746270    -2.0444360     0.5668450
  H        3.7310850    -1.2506649    -0.5220478
  H        4.1315670     1.1252340     0.4699550
  H       -3.1528190     2.0640850    -0.4925600
  H       -3.0466780    -2.1247140     0.4868240
  H       -4.3493910    -0.0663800    -0.0199320
units angstrom
no_reorient  #important for SAPT in psi4, default
symmetry c1  #important for SAPT in psi4, default
}

set PROPERTIES_ORIGIN ["COM"]
properties('MP2/aug-cc-pvtz', properties = ['dipole'])
--------------------------------------------------------------------------

    Molecular point group: c1
  Charge       = 0
  Multiplicity = 1
  Basis Set: AUG-CC-PVTZ
    Blend: AUG-CC-PVTZ
  Basis Set: (AUG-CC-PVTZ AUX)
    Blend: AUG-CC-PVTZ-JKFIT

    Orbital Energies [Eh]
    ---------------------

    Doubly Occupied:

       1A    -15.607207     2A    -11.261866     3A    -11.253014
       4A    -11.241953     5A    -11.240649     6A    -11.240419
       7A    -11.237876     8A    -11.237604     9A    -11.233334
      10A    -11.213151    11A    -11.212041    12A     -1.293930
      13A     -1.156188    14A     -1.050284    15A     -1.042944
      16A     -1.016685    17A     -0.970943    18A     -0.846967
      19A     -0.832236    20A     -0.791517    21A     -0.775832
      22A     -0.746346    23A     -0.687743    24A     -0.640989
      25A     -0.629523    26A     -0.593937    27A     -0.591674
      28A     -0.588236    29A     -0.568835    30A     -0.548831
      31A     -0.543073    32A     -0.504697    33A     -0.500680
      34A     -0.494332    35A     -0.363283    36A     -0.349471
      37A     -0.341267    38A     -0.273455

  @DF-RHF Final Energy:  -438.47262219676389

   => Energetics <=

    Nuclear Repulsion Energy =            538.0144589858051631
    One-Electron Energy =               -1659.5281396685234085
    Two-Electron Energy =                 683.0410584859542951
    Total Energy =                       -438.4726221967638367
  Basis Set: (AUG-CC-PVTZ AUX)
    Blend: AUG-CC-PVTZ-RI
    Molecular point group: c1

    Geometry (in Angstrom), charge = 0, multiplicity = 1:

       Center              X                  Y                   Z               Mass
    ------------   -----------------  -----------------  -----------------  -----------------
         N            1.772810849908    -0.971929946189    -0.386998438598    14.003074004430
         C            1.003516849908     0.094902053811     0.026498561402    12.000000000000
         C           -0.455272150092     0.041931053811     0.017686561402    12.000000000000
         C            1.889405849908     1.089200053811     0.432307561402    12.000000000000
         C           -1.200659150092     1.197386053811    -0.270703438598    12.000000000000
         C           -1.140812150092    -1.153712946189     0.293522561402    12.000000000000
         C            3.107300849908    -0.674684946189    -0.277859438598    12.000000000000
         C            3.204853849908     0.605843053811     0.240438561402    12.000000000000
         C           -2.594000150092     1.159555053811    -0.269661438598    12.000000000000
         C           -2.534872150092    -1.193596946189     0.268943561402    12.000000000000
         C           -3.267106150092    -0.037494946189    -0.010178438598    12.000000000000
         H            1.394952849908    -1.798728946189    -0.832459438598     1.007825032230
         H            1.603114849908     2.040888053811     0.862311561402     1.007825032230
         H           -0.675782150092     2.120310053811    -0.507701438598     1.007825032230
         H           -0.579116150092    -2.045763946189     0.566168561402     1.007825032230
         H            3.726595849908    -1.251992846189    -0.522724238598     1.007825032230
         H            4.127077849908     1.123906053811     0.469278561402     1.007825032230
         H           -3.157308150092     2.062757053811    -0.493236438598     1.007825032230
         H           -3.051167150092    -2.126041946189     0.486147561402     1.007825032230
         H           -4.353880150092    -0.067707946189    -0.020608438598     1.007825032230

  Basis Set: AUG-CC-PVTZ
    Blend: AUG-CC-PVTZ
  Basis Set: (AUG-CC-PVTZ AUX)
    Blend: AUG-CC-PVTZ-JKFIT
	 Reference Energy          =    -438.4726221967638935 [Eh]
	 Singles Energy            =      -0.0000000000000000 [Eh]
	 Same-Spin Energy          =      -0.4950567667856671 [Eh]
	 Opposite-Spin Energy      =      -1.5247361613697143 [Eh]
	 Correlation Energy        =      -2.0197929281553817 [Eh]
	 Total Energy              =    -440.4924151249192619 [Eh]

	 ================> DF-SCS-MP2 Energies <==================
	-----------------------------------------------------------
	 SCS Same-Spin Scale       =       0.3333333333333333 [-]
	 SCS Opposite-Spin Scale   =       1.2000000000000000 [-]
	 SCS Same-Spin Energy      =      -0.1650189222618890 [Eh]
	 SCS Opposite-Spin Energy  =      -1.8296833936436572 [Eh]
	 SCS Correlation Energy    =      -1.9947023159055461 [Eh]
	 SCS Total Energy          =    -440.4673245126694496 [Eh]
	-----------------------------------------------------------

  Dipole Moment: [D]
     X:    -0.4569      Y:    -1.3163      Z:    -0.6466     Total:     1.5361

*** Psi4 exiting successfully. Buy a developer a beer!
