                               Psi4 1.3.2 release

  ==> Input File <==

--------------------------------------------------------------------------
#psi4
#
memory 32 gb

molecule  {
0 1
  N        1.7773000    -0.9706020    -0.3863220
  C        1.1318168     0.1655928     0.0533782
  C       -0.4507830     0.0432590     0.0183630
  C        1.8938950     1.0905280     0.4329840
  C       -1.1961700     1.1987140    -0.2700270
  C       -1.1363230    -1.1523850     0.2941990
  C        3.1117900    -0.6733570    -0.2771830
  C        3.2093430     0.6071710     0.2411150
  C       -2.5895110     1.1608830    -0.2689850
  C       -2.5303830    -1.1922690     0.2696200
  C       -3.2626170    -0.0361670    -0.0095020
  H        1.3994420    -1.7974010    -0.8317830
  H        1.6076040     2.0422160     0.8629880
  H       -0.6712930     2.1216380    -0.5070250
  H       -0.5746270    -2.0444360     0.5668450
  H        3.8716190    -1.3816710    -0.5776140
  H        4.1315670     1.1252340     0.4699550
  H       -3.1528190     2.0640850    -0.4925600
  H       -3.0466780    -2.1247140     0.4868240
  H       -4.3493910    -0.0663800    -0.0199320
units angstrom
no_reorient  #important for SAPT in psi4, default
symmetry c1  #important for SAPT in psi4, default
}

set PROPERTIES_ORIGIN ["COM"]
properties('MP2/aug-cc-pvtz', properties = ['dipole'])
--------------------------------------------------------------------------

    Molecular point group: c1
  Charge       = 0
  Multiplicity = 1
  Basis Set: AUG-CC-PVTZ
    Blend: AUG-CC-PVTZ
  Basis Set: (AUG-CC-PVTZ AUX)
    Blend: AUG-CC-PVTZ-JKFIT

    Orbital Energies [Eh]
    ---------------------

    Doubly Occupied:

       1A    -15.599643     2A    -11.257321     3A    -11.255634
       4A    -11.255588     5A    -11.241363     6A    -11.240086
       7A    -11.239221     8A    -11.236830     9A    -11.235722
      10A    -11.210643    11A    -11.197771    12A     -1.299914
      13A     -1.151518    14A     -1.068191    15A     -1.030758
      16A     -1.015598    17A     -0.963399    18A     -0.828975
      19A     -0.825628    20A     -0.792004    21A     -0.773196
      22A     -0.726451    23A     -0.677900    24A     -0.629394
      25A     -0.626812    26A     -0.611448    27A     -0.589187
      28A     -0.578479    29A     -0.562612    30A     -0.555787
      31A     -0.537010    32A     -0.502477    33A     -0.494218
      34A     -0.480754    35A     -0.368720    36A     -0.348187
      37A     -0.339843    38A     -0.289038

  @DF-RHF Final Energy:  -438.48445775698218

   => Energetics <=

    Nuclear Repulsion Energy =            537.0089031878386550
    One-Electron Energy =               -1657.7120796963865814
    Two-Electron Energy =                 682.2187187515659161
    Total Energy =                       -438.4844577569821240
  Basis Set: (AUG-CC-PVTZ AUX)
    Blend: AUG-CC-PVTZ-RI
    Molecular point group: c1

    Geometry (in Angstrom), charge = 0, multiplicity = 1:

       Center              X                  Y                   Z               Mass
    ------------   -----------------  -----------------  -----------------  -----------------
         N            1.761436533273    -0.976824789585    -0.388804764675    14.003074004430
         C            1.115953333273     0.159370010415     0.050895435325    12.000000000000
         C           -0.466646466727     0.037036210415     0.015880235325    12.000000000000
         C            1.878031533273     1.084305210415     0.430501235325    12.000000000000
         C           -1.212033466727     1.192491210415    -0.272509764675    12.000000000000
         C           -1.152186466727    -1.158607789585     0.291716235325    12.000000000000
         C            3.095926533273    -0.679579789585    -0.279665764675    12.000000000000
         C            3.193479533273     0.600948210415     0.238632235325    12.000000000000
         C           -2.605374466727     1.154660210415    -0.271467764675    12.000000000000
         C           -2.546246466727    -1.198491789585     0.267137235325    12.000000000000
         C           -3.278480466727    -0.042389789585    -0.011984764675    12.000000000000
         H            1.383578533273    -1.803623789585    -0.834265764675     1.007825032230
         H            1.591740533273     2.035993210415     0.860505235325     1.007825032230
         H           -0.687156466727     2.115415210415    -0.509507764675     1.007825032230
         H           -0.590490466727    -2.050658789585     0.564362235325     1.007825032230
         H            3.855755533273    -1.387893789585    -0.580096764675     1.007825032230
         H            4.115703533273     1.119011210415     0.467472235325     1.007825032230
         H           -3.168682466727     2.057862210415    -0.495042764675     1.007825032230
         H           -3.062541466727    -2.130936789585     0.484341235325     1.007825032230
         H           -4.365254466727    -0.072602789585    -0.022414764675     1.007825032230

  Basis Set: AUG-CC-PVTZ
    Blend: AUG-CC-PVTZ
  Basis Set: (AUG-CC-PVTZ AUX)
    Blend: AUG-CC-PVTZ-JKFIT
	 Reference Energy          =    -438.4844577569821809 [Eh]
	 Singles Energy            =      -0.0000000000000000 [Eh]
	 Same-Spin Energy          =      -0.4925291348599381 [Eh]
	 Opposite-Spin Energy      =      -1.5220466759957461 [Eh]
	 Correlation Energy        =      -2.0145758108556842 [Eh]
	 Total Energy              =    -440.4990335678378415 [Eh]

	 ================> DF-SCS-MP2 Energies <==================
	-----------------------------------------------------------
	 SCS Same-Spin Scale       =       0.3333333333333333 [-]
	 SCS Opposite-Spin Scale   =       1.2000000000000000 [-]
	 SCS Same-Spin Energy      =      -0.1641763782866460 [Eh]
	 SCS Opposite-Spin Energy  =      -1.8264560111948951 [Eh]
	 SCS Correlation Energy    =      -1.9906323894815412 [Eh]
	 SCS Total Energy          =    -440.4750901464637423 [Eh]
	-----------------------------------------------------------

  Dipole Moment: [D]
     X:    -0.5433      Y:    -1.1995      Z:    -0.5938     Total:     1.4445

*** Psi4 exiting successfully. Buy a developer a beer!
