                               Psi4 1.4a3.dev225

  ==> Input File <==

--------------------------------------------------------------------------
#psi4
#
memory 32 gb

molecule  {
0 1
  N        1.7773000    -0.9706020    -0.3863220
  C        1.0080060     0.0962300     0.0271750
  C       -0.4507830     0.0432590     0.0183630
  C        1.8938950     1.0905280     0.4329840
  C       -1.1961700     1.1987140    -0.2700270
  C       -1.1363230    -1.1523850     0.2941990
  C        3.1117900    -0.6733570    -0.2771830
  C        3.2093430     0.6071710     0.2411150
  C       -2.5895110     1.1608830    -0.2689850
  C       -2.5303830    -1.1922690     0.2696200
  C       -3.2626170    -0.0361670    -0.0095020
  H        1.4181048    -1.7565645    -0.8097812
  H        1.6076040     2.0422160     0.8629880
  H       -0.6712930     2.1216380    -0.5070250
  H       -0.5746270    -2.0444360     0.5668450
  H        3.8716190    -1.3816710    -0.5776140
  H        4.1315670     1.1252340     0.4699550
  H       -3.1528190     2.0640850    -0.4925600
  H       -3.0466780    -2.1247140     0.4868240
  H       -4.3493910    -0.0663800    -0.0199320
units angstrom
no_reorient  #important for SAPT in psi4, default
symmetry c1  #important for SAPT in psi4, default
}

set PROPERTIES_ORIGIN ["COM"]
properties('MP2/aug-cc-pvtz', properties = ['dipole'])
--------------------------------------------------------------------------

    Molecular point group: c1
  Charge       = 0
  Multiplicity = 1
  Basis Set: AUG-CC-PVTZ
    Blend: AUG-CC-PVTZ
  Basis Set: (AUG-CC-PVTZ AUX)
    Blend: AUG-CC-PVTZ-JKFIT

    Orbital Energies [Eh]
    ---------------------

    Doubly Occupied:

       1A    -15.603512     2A    -11.262325     3A    -11.256837
       4A    -11.253365     5A    -11.242090     6A    -11.240813
       7A    -11.240585     8A    -11.238067     9A    -11.237787
      10A    -11.214198    11A    -11.213077    12A     -1.298265
      13A     -1.156345    14A     -1.052057    15A     -1.045318
      16A     -1.017036    17A     -0.959461    18A     -0.838783
      19A     -0.832348    20A     -0.798880    21A     -0.765566
      22A     -0.735872    23A     -0.680274    24A     -0.633409
      25A     -0.630178    26A     -0.596463    27A     -0.589697
      28A     -0.583339    29A     -0.570119    30A     -0.549852
      31A     -0.537392    32A     -0.504720    33A     -0.500926
      34A     -0.494526    35A     -0.363712    36A     -0.350895
      37A     -0.341420    38A     -0.273600

  @DF-RHF Final Energy:  -438.50862365861502

   => Energetics <=

    Nuclear Repulsion Energy =            537.1303929708186615
    One-Electron Energy =               -1657.8718148736834337
    Two-Electron Energy =                 682.2327982442496932
    Total Energy =                       -438.5086236586149653
  Basis Set: (AUG-CC-PVTZ AUX)
    Blend: AUG-CC-PVTZ-RI
    Molecular point group: c1

    Geometry (in Angstrom), charge = 0, multiplicity = 1:

       Center              X                  Y                   Z               Mass
    ------------   -----------------  -----------------  -----------------  -----------------
         N            1.771689450621    -0.971294781882    -0.386762007374    14.003074004430
         C            1.002395450621     0.095537218118     0.026734992626    12.000000000000
         C           -0.456393549379     0.042566218118     0.017922992626    12.000000000000
         C            1.888284450621     1.089835218118     0.432543992626    12.000000000000
         C           -1.201780549379     1.198021218118    -0.270467007374    12.000000000000
         C           -1.141933549379    -1.153077781882     0.293758992626    12.000000000000
         C            3.106179450621    -0.674049781882    -0.277623007374    12.000000000000
         C            3.203732450621     0.606478218118     0.240674992626    12.000000000000
         C           -2.595121549379     1.160190218118    -0.269425007374    12.000000000000
         C           -2.535993549379    -1.192961781882     0.269179992626    12.000000000000
         C           -3.268227549379    -0.036859781882    -0.009942007374    12.000000000000
         H            1.412494250621    -1.757257281882    -0.810221207374     1.007825032230
         H            1.601993450621     2.041523218118     0.862547992626     1.007825032230
         H           -0.676903549379     2.120945218118    -0.507465007374     1.007825032230
         H           -0.580237549379    -2.045128781882     0.566404992626     1.007825032230
         H            3.866008450621    -1.382363781882    -0.578054007374     1.007825032230
         H            4.125956450621     1.124541218118     0.469514992626     1.007825032230
         H           -3.158429549379     2.063392218118    -0.493000007374     1.007825032230
         H           -3.052288549379    -2.125406781882     0.486383992626     1.007825032230
         H           -4.355001549379    -0.067072781882    -0.020372007374     1.007825032230

  Basis Set: AUG-CC-PVTZ
    Blend: AUG-CC-PVTZ
  Basis Set: (AUG-CC-PVTZ AUX)
    Blend: AUG-CC-PVTZ-JKFIT
	 Reference Energy          =    -438.5086236586150221 [Eh]
	 Singles Energy            =      -0.0000000000000000 [Eh]
	 Same-Spin Energy          =      -0.4948211312419210 [Eh]
	 Opposite-Spin Energy      =      -1.5244390185294128 [Eh]
	 Correlation Energy        =      -2.0192601497713336 [Eh]
	 Total Energy              =    -440.5278838083863775 [Eh]

	 ================> DF-SCS-MP2 Energies <==================
	-----------------------------------------------------------
	 SCS Same-Spin Scale       =       0.3333333333333333 [-]
	 SCS Opposite-Spin Scale   =       1.2000000000000000 [-]
	 SCS Same-Spin Energy      =      -0.1649403770806403 [Eh]
	 SCS Opposite-Spin Energy  =      -1.8293268222352952 [Eh]
	 SCS Correlation Energy    =      -1.9942671993159355 [Eh]
	 SCS Total Energy          =    -440.5028908579309359 [Eh]
	-----------------------------------------------------------

  Dipole Moment: [D]
     X:    -0.4398      Y:    -1.2754      Z:    -0.6234     Total:     1.4861

*** Psi4 exiting successfully. Buy a developer a beer!
