                               Psi4 1.3.2 release

  ==> Input File <==

--------------------------------------------------------------------------
#psi4
#
memory 32 gb

molecule  {
0 1
  N        1.7773000    -0.9706020    -0.3863220
  C        0.8937749     0.0233424    -0.0224795
  C       -0.4507830     0.0432590     0.0183630
  C        1.8938950     1.0905280     0.4329840
  C       -1.1961700     1.1987140    -0.2700270
  C       -1.1363230    -1.1523850     0.2941990
  C        3.1117900    -0.6733570    -0.2771830
  C        3.2093430     0.6071710     0.2411150
  C       -2.5895110     1.1608830    -0.2689850
  C       -2.5303830    -1.1922690     0.2696200
  C       -3.2626170    -0.0361670    -0.0095020
  H        1.3994420    -1.7974010    -0.8317830
  H        1.6076040     2.0422160     0.8629880
  H       -0.6712930     2.1216380    -0.5070250
  H       -0.5746270    -2.0444360     0.5668450
  H        3.8716190    -1.3816710    -0.5776140
  H        4.1315670     1.1252340     0.4699550
  H       -3.1528190     2.0640850    -0.4925600
  H       -3.0466780    -2.1247140     0.4868240
  H       -4.3493910    -0.0663800    -0.0199320
units angstrom
no_reorient  #important for SAPT in psi4, default
symmetry c1  #important for SAPT in psi4, default
}

set PROPERTIES_ORIGIN ["COM"]
properties('MP2/aug-cc-pvtz', properties = ['dipole'])
--------------------------------------------------------------------------

    Molecular point group: c1
  Charge       = 0
  Multiplicity = 1
  Basis Set: AUG-CC-PVTZ
    Blend: AUG-CC-PVTZ
  Basis Set: (AUG-CC-PVTZ AUX)
    Blend: AUG-CC-PVTZ-JKFIT

    Orbital Energies [Eh]
    ---------------------

    Doubly Occupied:

       1A    -15.618617     2A    -11.267847     3A    -11.259431
       4A    -11.245864     5A    -11.241704     6A    -11.241276
       7A    -11.239551     8A    -11.238681     9A    -11.237234
      10A    -11.226493    11A    -11.218369    12A     -1.292519
      13A     -1.162048    14A     -1.063659    15A     -1.036923
      16A     -1.016957    17A     -0.952057    18A     -0.851980
      19A     -0.834910    20A     -0.784351    21A     -0.761414
      22A     -0.741120    23A     -0.680478    24A     -0.641995
      25A     -0.633276    26A     -0.598121    27A     -0.590579
      28A     -0.585069    29A     -0.568389    30A     -0.538148
      31A     -0.533429    32A     -0.511590    33A     -0.501242
      34A     -0.484164    35A     -0.369491    36A     -0.348940
      37A     -0.342018    38A     -0.254673

  @DF-RHF Final Energy:  -438.47245374619604

   => Energetics <=

    Nuclear Repulsion Energy =            537.0386835762302553
    One-Electron Energy =               -1657.5930555938273301
    Two-Electron Energy =                 682.0819182714009230
    Total Energy =                       -438.4724537461960381
  Basis Set: (AUG-CC-PVTZ AUX)
    Blend: AUG-CC-PVTZ-RI
    Molecular point group: c1

    Geometry (in Angstrom), charge = 0, multiplicity = 1:

       Center              X                  Y                   Z               Mass
    ------------   -----------------  -----------------  -----------------  -----------------
         N            1.781401815551    -0.964893825371    -0.382442353715    14.003074004430
         C            0.897876715551     0.029050574629    -0.018599853715    12.000000000000
         C           -0.446681184449     0.048967174629     0.022242646285    12.000000000000
         C            1.897996815551     1.096236174629     0.436863646285    12.000000000000
         C           -1.192068184449     1.204422174629    -0.266147353715    12.000000000000
         C           -1.132221184449    -1.146676825371     0.298078646285    12.000000000000
         C            3.115891815551    -0.667648825371    -0.273303353715    12.000000000000
         C            3.213444815551     0.612879174629     0.244994646285    12.000000000000
         C           -2.585409184449     1.166591174629    -0.265105353715    12.000000000000
         C           -2.526281184449    -1.186560825371     0.273499646285    12.000000000000
         C           -3.258515184449    -0.030458825371    -0.005622353715    12.000000000000
         H            1.403543815551    -1.791692825371    -0.827903353715     1.007825032230
         H            1.611705815551     2.047924174629     0.866867646285     1.007825032230
         H           -0.667191184449     2.127346174629    -0.503145353715     1.007825032230
         H           -0.570525184449    -2.038727825371     0.570724646285     1.007825032230
         H            3.875720815551    -1.375962825371    -0.573734353715     1.007825032230
         H            4.135668815551     1.130942174629     0.473834646285     1.007825032230
         H           -3.148717184449     2.069793174629    -0.488680353715     1.007825032230
         H           -3.042576184449    -2.119005825371     0.490703646285     1.007825032230
         H           -4.345289184449    -0.060671825371    -0.016052353715     1.007825032230

  Basis Set: AUG-CC-PVTZ
    Blend: AUG-CC-PVTZ
  Basis Set: (AUG-CC-PVTZ AUX)
    Blend: AUG-CC-PVTZ-JKFIT
	 Reference Energy          =    -438.4724537461960381 [Eh]
	 Singles Energy            =      -0.0000000000000000 [Eh]
	 Same-Spin Energy          =      -0.4998572001727229 [Eh]
	 Opposite-Spin Energy      =      -1.5322585025403015 [Eh]
	 Correlation Energy        =      -2.0321157027130243 [Eh]
	 Total Energy              =    -440.5045694489090806 [Eh]

	 ================> DF-SCS-MP2 Energies <==================
	-----------------------------------------------------------
	 SCS Same-Spin Scale       =       0.3333333333333333 [-]
	 SCS Opposite-Spin Scale   =       1.2000000000000000 [-]
	 SCS Same-Spin Energy      =      -0.1666190667242410 [Eh]
	 SCS Opposite-Spin Energy  =      -1.8387102030483617 [Eh]
	 SCS Correlation Energy    =      -2.0053292697726026 [Eh]
	 SCS Total Energy          =    -440.4777830159686687 [Eh]
	-----------------------------------------------------------

  Dipole Moment: [D]
     X:    -0.1865      Y:    -1.3971      Z:    -0.6745     Total:     1.5626

*** Psi4 exiting successfully. Buy a developer a beer!
