                               Psi4 1.3.2 release

  ==> Input File <==

--------------------------------------------------------------------------
#psi4
#
memory 32 gb

molecule  {
0 1
  N        1.7773000    -0.9706020    -0.3863220
  C        1.0080060     0.0962300     0.0271750
  C       -0.4507830     0.0432590     0.0183630
  C        1.8938950     1.0905280     0.4329840
  C       -1.1961700     1.1987140    -0.2700270
  C       -1.1363230    -1.1523850     0.2941990
  C        3.1117900    -0.6733570    -0.2771830
  C        3.1478627     0.4852758     0.1838134
  C       -2.5895110     1.1608830    -0.2689850
  C       -2.5303830    -1.1922690     0.2696200
  C       -3.2626170    -0.0361670    -0.0095020
  H        1.3994420    -1.7974010    -0.8317830
  H        1.6076040     2.0422160     0.8629880
  H       -0.6712930     2.1216380    -0.5070250
  H       -0.5746270    -2.0444360     0.5668450
  H        3.8716190    -1.3816710    -0.5776140
  H        4.1315670     1.1252340     0.4699550
  H       -3.1528190     2.0640850    -0.4925600
  H       -3.0466780    -2.1247140     0.4868240
  H       -4.3493910    -0.0663800    -0.0199320
units angstrom
no_reorient  #important for SAPT in psi4, default
symmetry c1  #important for SAPT in psi4, default
}

set PROPERTIES_ORIGIN ["COM"]
properties('MP2/aug-cc-pvtz', properties = ['dipole'])
--------------------------------------------------------------------------

    Molecular point group: c1
  Charge       = 0
  Multiplicity = 1
  Basis Set: AUG-CC-PVTZ
    Blend: AUG-CC-PVTZ
  Basis Set: (AUG-CC-PVTZ AUX)
    Blend: AUG-CC-PVTZ-JKFIT

    Orbital Energies [Eh]
    ---------------------

    Doubly Occupied:

       1A    -15.596868     2A    -11.264940     3A    -11.252775
       4A    -11.242594     5A    -11.241476     6A    -11.241236
       7A    -11.239260     8A    -11.238916     9A    -11.235403
      10A    -11.209172    11A    -11.205456    12A     -1.301865
      13A     -1.157362    14A     -1.055056    15A     -1.047130
      16A     -1.017617    17A     -0.970942    18A     -0.843340
      19A     -0.832122    20A     -0.779104    21A     -0.754512
      22A     -0.737933    23A     -0.681465    24A     -0.634017
      25A     -0.630360    26A     -0.592142    27A     -0.588805
      28A     -0.581990    29A     -0.573125    30A     -0.569932
      31A     -0.515641    32A     -0.505833    33A     -0.497512
      34A     -0.481537    35A     -0.368317    36A     -0.352184
      37A     -0.341922    38A     -0.284693

  @DF-RHF Final Energy:  -438.47861350215311

   => Energetics <=

    Nuclear Repulsion Energy =            539.5507966230353532
    One-Electron Energy =               -1662.7297062521863609
    Two-Electron Energy =                 684.7002961269977277
    Total Energy =                       -438.4786135021531663
  Basis Set: (AUG-CC-PVTZ AUX)
    Blend: AUG-CC-PVTZ-RI
    Molecular point group: c1

    Geometry (in Angstrom), charge = 0, multiplicity = 1:

       Center              X                  Y                   Z               Mass
    ------------   -----------------  -----------------  -----------------  -----------------
         N            1.776977449033    -0.960783412172    -0.381800968689    14.003074004430
         C            1.007683449033     0.106048587828     0.031696031311    12.000000000000
         C           -0.451105550967     0.053077587828     0.022884031311    12.000000000000
         C            1.893572449033     1.100346587828     0.437505031311    12.000000000000
         C           -1.196492550967     1.208532587828    -0.265505968689    12.000000000000
         C           -1.136645550967    -1.142566412172     0.298720031311    12.000000000000
         C            3.111467449033    -0.663538412172    -0.272661968689    12.000000000000
         C            3.147540149033     0.495094387828     0.188334431311    12.000000000000
         C           -2.589833550967     1.170701587828    -0.264463968689    12.000000000000
         C           -2.530705550967    -1.182450412172     0.274141031311    12.000000000000
         C           -3.262939550967    -0.026348412172    -0.004980968689    12.000000000000
         H            1.399119449033    -1.787582412172    -0.827261968689     1.007825032230
         H            1.607281449033     2.052034587828     0.867509031311     1.007825032230
         H           -0.671615550967     2.131456587828    -0.502503968689     1.007825032230
         H           -0.574949550967    -2.034617412172     0.571366031311     1.007825032230
         H            3.871296449033    -1.371852412172    -0.573092968689     1.007825032230
         H            4.131244449033     1.135052587828     0.474476031311     1.007825032230
         H           -3.153141550967     2.073903587828    -0.488038968689     1.007825032230
         H           -3.047000550967    -2.114895412172     0.491345031311     1.007825032230
         H           -4.349713550967    -0.056561412172    -0.015410968689     1.007825032230

  Basis Set: AUG-CC-PVTZ
    Blend: AUG-CC-PVTZ
  Basis Set: (AUG-CC-PVTZ AUX)
    Blend: AUG-CC-PVTZ-JKFIT
	 Reference Energy          =    -438.4786135021531095 [Eh]
	 Singles Energy            =      -0.0000000000000000 [Eh]
	 Same-Spin Energy          =      -0.4942448783942818 [Eh]
	 Opposite-Spin Energy      =      -1.5235992689923041 [Eh]
	 Correlation Energy        =      -2.0178441473865858 [Eh]
	 Total Energy              =    -440.4964576495397068 [Eh]

	 ================> DF-SCS-MP2 Energies <==================
	-----------------------------------------------------------
	 SCS Same-Spin Scale       =       0.3333333333333333 [-]
	 SCS Opposite-Spin Scale   =       1.2000000000000000 [-]
	 SCS Same-Spin Energy      =      -0.1647482927980939 [Eh]
	 SCS Opposite-Spin Energy  =      -1.8283191227907649 [Eh]
	 SCS Correlation Energy    =      -1.9930674155888588 [Eh]
	 SCS Total Energy          =    -440.4716809177419918 [Eh]
	-----------------------------------------------------------

  Dipole Moment: [D]
     X:    -0.5020      Y:    -1.3124      Z:    -0.6368     Total:     1.5427

*** Psi4 exiting successfully. Buy a developer a beer!
