                               Psi4 1.3.2 release

  ==> Input File <==

--------------------------------------------------------------------------
#psi4
#
memory 32 gb

molecule  {
0 1
  N        1.7773000    -0.9706020    -0.3863220
  C        0.9948442     0.2442410    -0.0084146
  C       -0.4507830     0.0432590     0.0183630
  C        1.8938950     1.0905280     0.4329840
  C       -1.1961700     1.1987140    -0.2700270
  C       -1.1363230    -1.1523850     0.2941990
  C        3.1117900    -0.6733570    -0.2771830
  C        3.2093430     0.6071710     0.2411150
  C       -2.5895110     1.1608830    -0.2689850
  C       -2.5303830    -1.1922690     0.2696200
  C       -3.2626170    -0.0361670    -0.0095020
  H        1.3994420    -1.7974010    -0.8317830
  H        1.6076040     2.0422160     0.8629880
  H       -0.6712930     2.1216380    -0.5070250
  H       -0.5746270    -2.0444360     0.5668450
  H        3.8716190    -1.3816710    -0.5776140
  H        4.1315670     1.1252340     0.4699550
  H       -3.1528190     2.0640850    -0.4925600
  H       -3.0466780    -2.1247140     0.4868240
  H       -4.3493910    -0.0663800    -0.0199320
units angstrom
no_reorient  #important for SAPT in psi4, default
symmetry c1  #important for SAPT in psi4, default
}

set PROPERTIES_ORIGIN ["COM"]
properties('MP2/aug-cc-pvtz', properties = ['dipole'])
--------------------------------------------------------------------------

    Molecular point group: c1
  Charge       = 0
  Multiplicity = 1
  Basis Set: AUG-CC-PVTZ
    Blend: AUG-CC-PVTZ
  Basis Set: (AUG-CC-PVTZ AUX)
    Blend: AUG-CC-PVTZ-JKFIT

    Orbital Energies [Eh]
    ---------------------

    Doubly Occupied:

       1A    -15.595157     2A    -11.264292     3A    -11.260662
       4A    -11.254028     5A    -11.242959     6A    -11.241734
       7A    -11.239482     8A    -11.237370     9A    -11.235583
      10A    -11.213841    11A    -11.210215    12A     -1.268095
      13A     -1.155976    14A     -1.059001    15A     -1.038804
      16A     -1.016588    17A     -0.960459    18A     -0.840759
      19A     -0.830936    20A     -0.783687    21A     -0.755840
      22A     -0.733128    23A     -0.679313    24A     -0.634352
      25A     -0.629544    26A     -0.595532    27A     -0.589041
      28A     -0.565646    29A     -0.562291    30A     -0.546708
      31A     -0.540168    32A     -0.503728    33A     -0.502188
      34A     -0.490231    35A     -0.374380    36A     -0.346499
      37A     -0.341011    38A     -0.279197

  @DF-RHF Final Energy:  -438.49006414955915

   => Energetics <=

    Nuclear Repulsion Energy =            536.3112418489725997
    One-Electron Energy =               -1656.3657626345661811
    Two-Electron Energy =                 681.5644566360343788
    Total Energy =                       -438.4900641495590889
  Basis Set: (AUG-CC-PVTZ AUX)
    Blend: AUG-CC-PVTZ-RI
    Molecular point group: c1

    Geometry (in Angstrom), charge = 0, multiplicity = 1:

       Center              X                  Y                   Z               Mass
    ------------   -----------------  -----------------  -----------------  -----------------
         N            1.772924832700    -0.983421248081    -0.383622018718    14.003074004430
         C            0.990469032700     0.231421751919    -0.005714618718    12.000000000000
         C           -0.455158167300     0.030439751919     0.021062981282    12.000000000000
         C            1.889519832700     1.077708751919     0.435683981282    12.000000000000
         C           -1.200545167300     1.185894751919    -0.267327018718    12.000000000000
         C           -1.140698167300    -1.165204248081     0.296898981282    12.000000000000
         C            3.107414832700    -0.686176248081    -0.274483018718    12.000000000000
         C            3.204967832700     0.594351751919     0.243814981282    12.000000000000
         C           -2.593886167300     1.148063751919    -0.266285018718    12.000000000000
         C           -2.534758167300    -1.205088248081     0.272319981282    12.000000000000
         C           -3.266992167300    -0.048986248081    -0.006802018718    12.000000000000
         H            1.395066832700    -1.810220248081    -0.829083018718     1.007825032230
         H            1.603228832700     2.029396751919     0.865687981282     1.007825032230
         H           -0.675668167300     2.108818751919    -0.504325018718     1.007825032230
         H           -0.579002167300    -2.057255248081     0.569544981282     1.007825032230
         H            3.867243832700    -1.394490248081    -0.574914018718     1.007825032230
         H            4.127191832700     1.112414751919     0.472654981282     1.007825032230
         H           -3.157194167300     2.051265751919    -0.489860018718     1.007825032230
         H           -3.051053167300    -2.137533248081     0.489523981282     1.007825032230
         H           -4.353766167300    -0.079199248081    -0.017232018718     1.007825032230

  Basis Set: AUG-CC-PVTZ
    Blend: AUG-CC-PVTZ
  Basis Set: (AUG-CC-PVTZ AUX)
    Blend: AUG-CC-PVTZ-JKFIT
	 Reference Energy          =    -438.4900641495591458 [Eh]
	 Singles Energy            =      -0.0000000000000000 [Eh]
	 Same-Spin Energy          =      -0.4944688335318018 [Eh]
	 Opposite-Spin Energy      =      -1.5259180453478369 [Eh]
	 Correlation Energy        =      -2.0203868788796386 [Eh]
	 Total Energy              =    -440.5104510284388084 [Eh]

	 ================> DF-SCS-MP2 Energies <==================
	-----------------------------------------------------------
	 SCS Same-Spin Scale       =       0.3333333333333333 [-]
	 SCS Opposite-Spin Scale   =       1.2000000000000000 [-]
	 SCS Same-Spin Energy      =      -0.1648229445106006 [Eh]
	 SCS Opposite-Spin Energy  =      -1.8311016544174041 [Eh]
	 SCS Correlation Energy    =      -1.9959245989280048 [Eh]
	 SCS Total Energy          =    -440.4859887484871592 [Eh]
	-----------------------------------------------------------

  Dipole Moment: [D]
     X:    -0.5107      Y:    -1.1469      Z:    -0.5402     Total:     1.3667

*** Psi4 exiting successfully. Buy a developer a beer!
