                               Psi4 1.3.2 release

  ==> Input File <==

--------------------------------------------------------------------------
#psi4
#
memory 32 gb

molecule  {
0 1
  N        1.7773000    -0.9706020    -0.3863220
  C        1.0080060     0.0962300     0.0271750
  C       -0.4301129     0.0560966     0.0153304
  C        1.8938950     1.0905280     0.4329840
  C       -1.1961700     1.1987140    -0.2700270
  C       -1.1363230    -1.1523850     0.2941990
  C        3.1117900    -0.6733570    -0.2771830
  C        3.2093430     0.6071710     0.2411150
  C       -2.5895110     1.1608830    -0.2689850
  C       -2.5303830    -1.1922690     0.2696200
  C       -3.2626170    -0.0361670    -0.0095020
  H        1.3994420    -1.7974010    -0.8317830
  H        1.6076040     2.0422160     0.8629880
  H       -0.6712930     2.1216380    -0.5070250
  H       -0.5746270    -2.0444360     0.5668450
  H        3.8716190    -1.3816710    -0.5776140
  H        4.1315670     1.1252340     0.4699550
  H       -3.1528190     2.0640850    -0.4925600
  H       -3.0466780    -2.1247140     0.4868240
  H       -4.3493910    -0.0663800    -0.0199320
units angstrom
no_reorient  #important for SAPT in psi4, default
symmetry c1  #important for SAPT in psi4, default
}

set PROPERTIES_ORIGIN ["COM"]
properties('MP2/aug-cc-pvtz', properties = ['dipole'])
--------------------------------------------------------------------------

    Molecular point group: c1
  Charge       = 0
  Multiplicity = 1
  Basis Set: AUG-CC-PVTZ
    Blend: AUG-CC-PVTZ
  Basis Set: (AUG-CC-PVTZ AUX)
    Blend: AUG-CC-PVTZ-JKFIT

    Orbital Energies [Eh]
    ---------------------

    Doubly Occupied:

       1A    -15.608913     2A    -11.261217     3A    -11.257575
       4A    -11.253719     5A    -11.242911     6A    -11.241186
       7A    -11.240519     8A    -11.237779     9A    -11.237504
      10A    -11.214534    11A    -11.213447    12A     -1.295104
      13A     -1.154067    14A     -1.051057    15A     -1.043443
      16A     -1.015445    17A     -0.959075    18A     -0.840023
      19A     -0.830690    20A     -0.789157    21A     -0.765408
      22A     -0.735944    23A     -0.680259    24A     -0.633501
      25A     -0.628569    26A     -0.593838    27A     -0.587324
      28A     -0.584610    29A     -0.570399    30A     -0.549901
      31A     -0.537546    32A     -0.506019    33A     -0.500936
      34A     -0.490711    35A     -0.364152    36A     -0.350727
      37A     -0.340757    38A     -0.272018

  @DF-RHF Final Energy:  -438.50743557052067

   => Energetics <=

    Nuclear Repulsion Energy =            536.8214725977135231
    One-Electron Energy =               -1657.2978518802713097
    Two-Electron Energy =                 681.9689437120372304
    Total Energy =                       -438.5074355705206699
  Basis Set: (AUG-CC-PVTZ AUX)
    Blend: AUG-CC-PVTZ-RI
    Molecular point group: c1

    Geometry (in Angstrom), charge = 0, multiplicity = 1:

       Center              X                  Y                   Z               Mass
    ------------   -----------------  -----------------  -----------------  -----------------
         N            1.770087250604    -0.972083852910    -0.386352671158    14.003074004430
         C            1.000793250604     0.094748147090     0.027144328842    12.000000000000
         C           -0.437325649396     0.054614747090     0.015299728842    12.000000000000
         C            1.886682250604     1.089046147090     0.432953328842    12.000000000000
         C           -1.203382749396     1.197232147090    -0.270057671158    12.000000000000
         C           -1.143535749396    -1.153866852910     0.294168328842    12.000000000000
         C            3.104577250604    -0.674838852910    -0.277213671158    12.000000000000
         C            3.202130250604     0.605689147090     0.241084328842    12.000000000000
         C           -2.596723749396     1.159401147090    -0.269015671158    12.000000000000
         C           -2.537595749396    -1.193750852910     0.269589328842    12.000000000000
         C           -3.269829749396    -0.037648852910    -0.009532671158    12.000000000000
         H            1.392229250604    -1.798882852910    -0.831813671158     1.007825032230
         H            1.600391250604     2.040734147090     0.862957328842     1.007825032230
         H           -0.678505749396     2.120156147090    -0.507055671158     1.007825032230
         H           -0.581839749396    -2.045917852910     0.566814328842     1.007825032230
         H            3.864406250604    -1.383152852910    -0.577644671158     1.007825032230
         H            4.124354250604     1.123752147090     0.469924328842     1.007825032230
         H           -3.160031749396     2.062603147090    -0.492590671158     1.007825032230
         H           -3.053890749396    -2.126195852910     0.486793328842     1.007825032230
         H           -4.356603749396    -0.067861852910    -0.019962671158     1.007825032230

  Basis Set: AUG-CC-PVTZ
    Blend: AUG-CC-PVTZ
  Basis Set: (AUG-CC-PVTZ AUX)
    Blend: AUG-CC-PVTZ-JKFIT
	 Reference Energy          =    -438.5074355705206699 [Eh]
	 Singles Energy            =      -0.0000000000000000 [Eh]
	 Same-Spin Energy          =      -0.4955873430448101 [Eh]
	 Opposite-Spin Energy      =      -1.5258483906923015 [Eh]
	 Correlation Energy        =      -2.0214357337371114 [Eh]
	 Total Energy              =    -440.5288713042577911 [Eh]

	 ================> DF-SCS-MP2 Energies <==================
	-----------------------------------------------------------
	 SCS Same-Spin Scale       =       0.3333333333333333 [-]
	 SCS Opposite-Spin Scale   =       1.2000000000000000 [-]
	 SCS Same-Spin Energy      =      -0.1651957810149367 [Eh]
	 SCS Opposite-Spin Energy  =      -1.8310180688307618 [Eh]
	 SCS Correlation Energy    =      -1.9962138498456985 [Eh]
	 SCS Total Energy          =    -440.5036494203663437 [Eh]
	-----------------------------------------------------------

  Dipole Moment: [D]
     X:    -0.3772      Y:    -1.3176      Z:    -0.6474     Total:     1.5157

*** Psi4 exiting successfully. Buy a developer a beer!
