                               Psi4 1.3.2 release

  ==> Input File <==

--------------------------------------------------------------------------
#psi4
#
memory 32 gb

molecule  {
0 1
  N        1.7773000    -0.9706020    -0.3863220
  C        1.0080060     0.0962300     0.0271750
  C       -0.4507830     0.0432590     0.0183630
  C        1.8938950     1.0905280     0.4329840
  C       -1.1961700     1.1987140    -0.2700270
  C       -1.1363230    -1.1523850     0.2941990
  C        3.1117900    -0.6733570    -0.2771830
  C        3.2266625     0.6490473     0.2607144
  C       -2.5895110     1.1608830    -0.2689850
  C       -2.5303830    -1.1922690     0.2696200
  C       -3.2626170    -0.0361670    -0.0095020
  H        1.3994420    -1.7974010    -0.8317830
  H        1.6076040     2.0422160     0.8629880
  H       -0.6712930     2.1216380    -0.5070250
  H       -0.5746270    -2.0444360     0.5668450
  H        3.8716190    -1.3816710    -0.5776140
  H        4.1315670     1.1252340     0.4699550
  H       -3.1528190     2.0640850    -0.4925600
  H       -3.0466780    -2.1247140     0.4868240
  H       -4.3493910    -0.0663800    -0.0199320
units angstrom
no_reorient  #important for SAPT in psi4, default
symmetry c1  #important for SAPT in psi4, default
}

set PROPERTIES_ORIGIN ["COM"]
properties('MP2/aug-cc-pvtz', properties = ['dipole'])
--------------------------------------------------------------------------

    Molecular point group: c1
  Charge       = 0
  Multiplicity = 1
  Basis Set: AUG-CC-PVTZ
    Blend: AUG-CC-PVTZ
  Basis Set: (AUG-CC-PVTZ AUX)
    Blend: AUG-CC-PVTZ-JKFIT

    Orbital Energies [Eh]
    ---------------------

    Doubly Occupied:

       1A    -15.612469     2A    -11.263303     3A    -11.261372
       4A    -11.253453     5A    -11.241883     6A    -11.240530
       7A    -11.240266     8A    -11.237540     9A    -11.237286
      10A    -11.216646    11A    -11.215179    12A     -1.293180
      13A     -1.155885    14A     -1.049406    15A     -1.040123
      16A     -1.016556    17A     -0.956258    18A     -0.836513
      19A     -0.832469    20A     -0.794701    21A     -0.766481
      22A     -0.734839    23A     -0.679670    24A     -0.633251
      25A     -0.629782    26A     -0.597958    27A     -0.589671
      28A     -0.582307    29A     -0.568719    30A     -0.557154
      31A     -0.527023    32A     -0.504307    33A     -0.501661
      34A     -0.494663    35A     -0.363517    36A     -0.349476
      37A     -0.341196    38A     -0.269557

  @DF-RHF Final Energy:  -438.50383843968802

   => Energetics <=

    Nuclear Repulsion Energy =            536.0291510190760391
    One-Electron Energy =               -1655.6934833350555891
    Two-Electron Energy =                 681.1604938762916390
    Total Energy =                       -438.5038384396880247
  Basis Set: (AUG-CC-PVTZ AUX)
    Blend: AUG-CC-PVTZ-RI
    Molecular point group: c1

    Geometry (in Angstrom), charge = 0, multiplicity = 1:

       Center              X                  Y                   Z               Mass
    ------------   -----------------  -----------------  -----------------  -----------------
         N            1.770368275394    -0.974519415063    -0.388250884324    14.003074004430
         C            1.001074275394     0.092312584937     0.025246115676    12.000000000000
         C           -0.457714724606     0.039341584937     0.016434115676    12.000000000000
         C            1.886963275394     1.086610584937     0.431055115676    12.000000000000
         C           -1.203101724606     1.194796584937    -0.271955884324    12.000000000000
         C           -1.143254724606    -1.156302415063     0.292270115676    12.000000000000
         C            3.104858275394    -0.677274415063    -0.279111884324    12.000000000000
         C            3.219730775394     0.645129884937     0.258785515676    12.000000000000
         C           -2.596442724606     1.156965584937    -0.270913884324    12.000000000000
         C           -2.537314724606    -1.196186415063     0.267691115676    12.000000000000
         C           -3.269548724606    -0.040084415063    -0.011430884324    12.000000000000
         H            1.392510275394    -1.801318415063    -0.833711884324     1.007825032230
         H            1.600672275394     2.038298584937     0.861059115676     1.007825032230
         H           -0.678224724606     2.117720584937    -0.508953884324     1.007825032230
         H           -0.581558724606    -2.048353415063     0.564916115676     1.007825032230
         H            3.864687275394    -1.385588415063    -0.579542884324     1.007825032230
         H            4.124635275394     1.121316584937     0.468026115676     1.007825032230
         H           -3.159750724606     2.060167584937    -0.494488884324     1.007825032230
         H           -3.053609724606    -2.128631415063     0.484895115676     1.007825032230
         H           -4.356322724606    -0.070297415063    -0.021860884324     1.007825032230

  Basis Set: AUG-CC-PVTZ
    Blend: AUG-CC-PVTZ
  Basis Set: (AUG-CC-PVTZ AUX)
    Blend: AUG-CC-PVTZ-JKFIT
	 Reference Energy          =    -438.5038384396880247 [Eh]
	 Singles Energy            =      -0.0000000000000000 [Eh]
	 Same-Spin Energy          =      -0.4958228245991342 [Eh]
	 Opposite-Spin Energy      =      -1.5265163418145027 [Eh]
	 Correlation Energy        =      -2.0223391664136368 [Eh]
	 Total Energy              =    -440.5261776061016690 [Eh]

	 ================> DF-SCS-MP2 Energies <==================
	-----------------------------------------------------------
	 SCS Same-Spin Scale       =       0.3333333333333333 [-]
	 SCS Opposite-Spin Scale   =       1.2000000000000000 [-]
	 SCS Same-Spin Energy      =      -0.1652742748663781 [Eh]
	 SCS Opposite-Spin Energy  =      -1.8318196101774031 [Eh]
	 SCS Correlation Energy    =      -1.9970938850437812 [Eh]
	 SCS Total Energy          =    -440.5009323247318207 [Eh]
	-----------------------------------------------------------

  Dipole Moment: [D]
     X:    -0.4587      Y:    -1.3280      Z:    -0.6545     Total:     1.5499

*** Psi4 exiting successfully. Buy a developer a beer!
