                               Psi4 1.3.2 release

  ==> Input File <==

--------------------------------------------------------------------------
#psi4
#
memory 32 gb

molecule  {
0 1
  N        1.7773000    -0.9706020    -0.3863220
  C        1.0080060     0.0962300     0.0271750
  C       -0.4507830     0.0432590     0.0183630
  C        1.8938950     1.0905280     0.4329840
  C       -1.1961700     1.1987140    -0.2700270
  C       -1.1363230    -1.1523850     0.2941990
  C        3.1117900    -0.6733570    -0.2771830
  C        3.2093430     0.6071710     0.2411150
  C       -2.5895110     1.1608830    -0.2689850
  C       -2.5303830    -1.1922690     0.2696200
  C       -3.2626170    -0.0361670    -0.0095020
  H        1.3994420    -1.7974010    -0.8317830
  H        1.6076040     2.0422160     0.8629880
  H       -0.6712930     2.1216380    -0.5070250
  H       -0.5746270    -2.0444360     0.5668450
  H        3.8716190    -1.3816710    -0.5776140
  H        4.1315670     1.1252340     0.4699550
  H       -3.1528190     2.0640850    -0.4925600
  H       -3.0466780    -2.1247140     0.4868240
  H       -4.3493910    -0.0663800    -0.0199320
units angstrom
no_reorient  #important for SAPT in psi4, default
symmetry c1  #important for SAPT in psi4, default
}

set PROPERTIES_ORIGIN ["COM"]
properties('MP2/aug-cc-pvtz', properties = ['dipole'])
--------------------------------------------------------------------------

    Molecular point group: c1
  Charge       = 0
  Multiplicity = 1
  Basis Set: AUG-CC-PVTZ
    Blend: AUG-CC-PVTZ
  Basis Set: (AUG-CC-PVTZ AUX)
    Blend: AUG-CC-PVTZ-JKFIT

    Orbital Energies [Eh]
    ---------------------

    Doubly Occupied:

       1A    -15.608276     2A    -11.262105     3A    -11.256624
       4A    -11.253225     5A    -11.242012     6A    -11.240719
       7A    -11.240475     8A    -11.237933     9A    -11.237662
      10A    -11.213923    11A    -11.212821    12A     -1.294157
      13A     -1.156153    14A     -1.048919    15A     -1.042907
      16A     -1.016780    17A     -0.959227    18A     -0.837861
      19A     -0.832212    20A     -0.788619    21A     -0.764953
      22A     -0.735316    23A     -0.679894    24A     -0.633252
      25A     -0.629686    26A     -0.593575    27A     -0.588847
      28A     -0.582922    29A     -0.569320    30A     -0.549472
      31A     -0.536984    32A     -0.504581    33A     -0.500796
      34A     -0.494363    35A     -0.363441    36A     -0.350229
      37A     -0.341337    38A     -0.273381

  @DF-RHF Final Energy:  -438.50888381520269

   => Energetics <=

    Nuclear Repulsion Energy =            536.8298293525020881
    One-Electron Energy =               -1657.3275078151943944
    Two-Electron Energy =                 681.9887946474897262
    Total Energy =                       -438.5088838152026938
  Basis Set: (AUG-CC-PVTZ AUX)
    Blend: AUG-CC-PVTZ-RI
    Molecular point group: c1

    Geometry (in Angstrom), charge = 0, multiplicity = 1:

       Center              X                  Y                   Z               Mass
    ------------   -----------------  -----------------  -----------------  -----------------
         N            1.771820913381    -0.971007125209    -0.386607024342    14.003074004430
         C            1.002526913381     0.095824874791     0.026889975658    12.000000000000
         C           -0.456262086619     0.042853874791     0.018077975658    12.000000000000
         C            1.888415913381     1.090122874791     0.432698975658    12.000000000000
         C           -1.201649086619     1.198308874791    -0.270312024342    12.000000000000
         C           -1.141802086619    -1.152790125209     0.293913975658    12.000000000000
         C            3.106310913381    -0.673762125209    -0.277468024342    12.000000000000
         C            3.203863913381     0.606765874791     0.240829975658    12.000000000000
         C           -2.594990086619     1.160477874791    -0.269270024342    12.000000000000
         C           -2.535862086619    -1.192674125209     0.269334975658    12.000000000000
         C           -3.268096086619    -0.036572125209    -0.009787024342    12.000000000000
         H            1.393962913381    -1.797806125209    -0.832068024342     1.007825032230
         H            1.602124913381     2.041810874791     0.862702975658     1.007825032230
         H           -0.676772086619     2.121232874791    -0.507310024342     1.007825032230
         H           -0.580106086619    -2.044841125209     0.566559975658     1.007825032230
         H            3.866139913381    -1.382076125209    -0.577899024342     1.007825032230
         H            4.126087913381     1.124828874791     0.469669975658     1.007825032230
         H           -3.158298086619     2.063679874791    -0.492845024342     1.007825032230
         H           -3.052157086619    -2.125119125209     0.486538975658     1.007825032230
         H           -4.354870086619    -0.066785125209    -0.020217024342     1.007825032230

  Basis Set: AUG-CC-PVTZ
    Blend: AUG-CC-PVTZ
  Basis Set: (AUG-CC-PVTZ AUX)
    Blend: AUG-CC-PVTZ-JKFIT
	 Reference Energy          =    -438.5088838152026938 [Eh]
	 Singles Energy            =      -0.0000000000000000 [Eh]
	 Same-Spin Energy          =      -0.4952546385873265 [Eh]
	 Opposite-Spin Energy      =      -1.5253342548786306 [Eh]
	 Correlation Energy        =      -2.0205888934659573 [Eh]
	 Total Energy              =    -440.5294727086686635 [Eh]

	 ================> DF-SCS-MP2 Energies <==================
	-----------------------------------------------------------
	 SCS Same-Spin Scale       =       0.3333333333333333 [-]
	 SCS Opposite-Spin Scale   =       1.2000000000000000 [-]
	 SCS Same-Spin Energy      =      -0.1650848795291088 [Eh]
	 SCS Opposite-Spin Energy  =      -1.8304011058543566 [Eh]
	 SCS Correlation Energy    =      -1.9954859853834654 [Eh]
	 SCS Total Energy          =    -440.5043698005861756 [Eh]
	-----------------------------------------------------------

  Dipole Moment: [D]
     X:    -0.4510      Y:    -1.3189      Z:    -0.6475     Total:     1.5369

*** Psi4 exiting successfully. Buy a developer a beer!
