                               Psi4 1.3.2 release

  ==> Input File <==

--------------------------------------------------------------------------
#psi4
#
memory 32 gb

molecule  {
0 1
  N        1.7773000    -0.9706020    -0.3863220
  C        1.0069206     0.1209828     0.0212396
  C       -0.4507830     0.0432590     0.0183630
  C        1.8938950     1.0905280     0.4329840
  C       -1.1961700     1.1987140    -0.2700270
  C       -1.1363230    -1.1523850     0.2941990
  C        3.1117900    -0.6733570    -0.2771830
  C        3.2093430     0.6071710     0.2411150
  C       -2.5895110     1.1608830    -0.2689850
  C       -2.5303830    -1.1922690     0.2696200
  C       -3.2626170    -0.0361670    -0.0095020
  H        1.3994420    -1.7974010    -0.8317830
  H        1.6076040     2.0422160     0.8629880
  H       -0.6712930     2.1216380    -0.5070250
  H       -0.5746270    -2.0444360     0.5668450
  H        3.8716190    -1.3816710    -0.5776140
  H        4.1315670     1.1252340     0.4699550
  H       -3.1528190     2.0640850    -0.4925600
  H       -3.0466780    -2.1247140     0.4868240
  H       -4.3493910    -0.0663800    -0.0199320
units angstrom
no_reorient  #important for SAPT in psi4, default
symmetry c1  #important for SAPT in psi4, default
}

set PROPERTIES_ORIGIN ["COM"]
properties('MP2/aug-cc-pvtz', properties = ['dipole'])
--------------------------------------------------------------------------

    Molecular point group: c1
  Charge       = 0
  Multiplicity = 1
  Basis Set: AUG-CC-PVTZ
    Blend: AUG-CC-PVTZ
  Basis Set: (AUG-CC-PVTZ AUX)
    Blend: AUG-CC-PVTZ-JKFIT

    Orbital Energies [Eh]
    ---------------------

    Doubly Occupied:

       1A    -15.606170     2A    -11.261590     3A    -11.258002
       4A    -11.253152     5A    -11.242075     6A    -11.240677
       7A    -11.240403     8A    -11.237701     9A    -11.237294
      10A    -11.213661    11A    -11.212533    12A     -1.289447
      13A     -1.156021    14A     -1.050299    15A     -1.042200
      16A     -1.016669    17A     -0.959432    18A     -0.838110
      19A     -0.831994    20A     -0.787432    21A     -0.763591
      22A     -0.734992    23A     -0.679822    24A     -0.632969
      25A     -0.629634    26A     -0.593405    27A     -0.588760
      28A     -0.580265    29A     -0.567690    30A     -0.550078
      31A     -0.537950    32A     -0.504106    33A     -0.501083
      34A     -0.494687    35A     -0.364804    36A     -0.349697
      37A     -0.341216    38A     -0.274666

  @DF-RHF Final Energy:  -438.50846321389031

   => Energetics <=

    Nuclear Repulsion Energy =            536.7535578209796086
    One-Electron Energy =               -1657.1954850826541588
    Two-Electron Energy =                 681.9334640477843550
    Total Energy =                       -438.5084632138903089
  Basis Set: (AUG-CC-PVTZ AUX)
    Blend: AUG-CC-PVTZ-RI
    Molecular point group: c1

    Geometry (in Angstrom), charge = 0, multiplicity = 1:

       Center              X                  Y                   Z               Mass
    ------------   -----------------  -----------------  -----------------  -----------------
         N            1.771911949107    -0.973083216179    -0.386109204687    14.003074004430
         C            1.001532549107     0.118501583821     0.021452395313    12.000000000000
         C           -0.456171050893     0.040777783821     0.018575795313    12.000000000000
         C            1.888506949107     1.088046783821     0.433196795313    12.000000000000
         C           -1.201558050893     1.196232783821    -0.269814204687    12.000000000000
         C           -1.141711050893    -1.154866216179     0.294411795313    12.000000000000
         C            3.106401949107    -0.675838216179    -0.276970204687    12.000000000000
         C            3.203954949107     0.604689783821     0.241327795313    12.000000000000
         C           -2.594899050893     1.158401783821    -0.268772204687    12.000000000000
         C           -2.535771050893    -1.194750216179     0.269832795313    12.000000000000
         C           -3.268005050893    -0.038648216179    -0.009289204687    12.000000000000
         H            1.394053949107    -1.799882216179    -0.831570204687     1.007825032230
         H            1.602215949107     2.039734783821     0.863200795313     1.007825032230
         H           -0.676681050893     2.119156783821    -0.506812204687     1.007825032230
         H           -0.580015050893    -2.046917216179     0.567057795313     1.007825032230
         H            3.866230949107    -1.384152216179    -0.577401204687     1.007825032230
         H            4.126178949107     1.122752783821     0.470167795313     1.007825032230
         H           -3.158207050893     2.061603783821    -0.492347204687     1.007825032230
         H           -3.052066050893    -2.127195216179     0.487036795313     1.007825032230
         H           -4.354779050893    -0.068861216179    -0.019719204687     1.007825032230

  Basis Set: AUG-CC-PVTZ
    Blend: AUG-CC-PVTZ
  Basis Set: (AUG-CC-PVTZ AUX)
    Blend: AUG-CC-PVTZ-JKFIT
	 Reference Energy          =    -438.5084632138903089 [Eh]
	 Singles Energy            =      -0.0000000000000000 [Eh]
	 Same-Spin Energy          =      -0.4950522817038515 [Eh]
	 Opposite-Spin Energy      =      -1.5252765850969829 [Eh]
	 Correlation Energy        =      -2.0203288668008343 [Eh]
	 Total Energy              =    -440.5287920806911188 [Eh]

	 ================> DF-SCS-MP2 Energies <==================
	-----------------------------------------------------------
	 SCS Same-Spin Scale       =       0.3333333333333333 [-]
	 SCS Opposite-Spin Scale   =       1.2000000000000000 [-]
	 SCS Same-Spin Energy      =      -0.1650174272346172 [Eh]
	 SCS Opposite-Spin Energy  =      -1.8303319021163795 [Eh]
	 SCS Correlation Energy    =      -1.9953493293509967 [Eh]
	 SCS Total Energy          =    -440.5038125432412812 [Eh]
	-----------------------------------------------------------

  Dipole Moment: [D]
     X:    -0.4574      Y:    -1.2921      Z:    -0.6300     Total:     1.5085

*** Psi4 exiting successfully. Buy a developer a beer!
