                               Psi4 1.4a3.dev225

  ==> Input File <==

--------------------------------------------------------------------------
#psi4
#
memory 32 gb

molecule  {
0 1
  N        1.7773000    -0.9706020    -0.3863220
  C        1.0080060     0.0962300     0.0271750
  C       -0.4507830     0.0432590     0.0183630
  C        1.8938950     1.0905280     0.4329840
  C       -1.1961700     1.1987140    -0.2700270
  C       -1.1363230    -1.1523850     0.2941990
  C        3.1117900    -0.6733570    -0.2771830
  C        3.2093430     0.6071710     0.2411150
  C       -2.5895110     1.1608830    -0.2689850
  C       -2.5303830    -1.1922690     0.2696200
  C       -3.2626170    -0.0361670    -0.0095020
  H        1.3994420    -1.7974010    -0.8317830
  H        1.6076040     2.0422160     0.8629880
  H       -0.6712930     2.1216380    -0.5070250
  H       -0.5746270    -2.0444360     0.5668450
  H        3.8716190    -1.3816710    -0.5776140
  H        4.0889600     1.1012994     0.4593825
  H       -3.1528190     2.0640850    -0.4925600
  H       -3.0466780    -2.1247140     0.4868240
  H       -4.3493910    -0.0663800    -0.0199320
units angstrom
no_reorient  #important for SAPT in psi4, default
symmetry c1  #important for SAPT in psi4, default
}

set PROPERTIES_ORIGIN ["COM"]
properties('MP2/aug-cc-pvtz', properties = ['dipole'])
--------------------------------------------------------------------------

    Molecular point group: c1
  Charge       = 0
  Multiplicity = 1
  Basis Set: AUG-CC-PVTZ
    Blend: AUG-CC-PVTZ
  Basis Set: (AUG-CC-PVTZ AUX)
    Blend: AUG-CC-PVTZ-JKFIT

    Orbital Energies [Eh]
    ---------------------

    Doubly Occupied:

       1A    -15.608040     2A    -11.261810     3A    -11.256313
       4A    -11.253073     5A    -11.241908     6A    -11.240619
       7A    -11.240356     8A    -11.237821     9A    -11.237551
      10A    -11.212903    11A    -11.207547    12A     -1.293872
      13A     -1.156036    14A     -1.048830    15A     -1.043833
      16A     -1.016725    17A     -0.959490    18A     -0.837764
      19A     -0.832464    20A     -0.792647    21A     -0.766917
      22A     -0.735482    23A     -0.680003    24A     -0.633154
      25A     -0.629640    26A     -0.597085    27A     -0.589570
      28A     -0.582754    29A     -0.569104    30A     -0.553987
      31A     -0.536696    32A     -0.504461    33A     -0.500957
      34A     -0.494390    35A     -0.363286    36A     -0.350005
      37A     -0.341237    38A     -0.273189

  @DF-RHF Final Energy:  -438.50800696096792

   => Energetics <=

    Nuclear Repulsion Energy =            537.0935514883962014
    One-Electron Energy =               -1657.8400751036708698
    Two-Electron Energy =                 682.2385166543068635
    Total Energy =                       -438.5080069609679185
  Basis Set: (AUG-CC-PVTZ AUX)
    Blend: AUG-CC-PVTZ-RI
    Molecular point group: c1

    Geometry (in Angstrom), charge = 0, multiplicity = 1:

       Center              X                  Y                   Z               Mass
    ------------   -----------------  -----------------  -----------------  -----------------
         N            1.772121041646    -0.970838527326    -0.386532550521    14.003074004430
         C            1.002827041646     0.095993472674     0.026964449479    12.000000000000
         C           -0.455961958354     0.043022472674     0.018152449479    12.000000000000
         C            1.888716041646     1.090291472674     0.432773449479    12.000000000000
         C           -1.201348958354     1.198477472674    -0.270237550521    12.000000000000
         C           -1.141501958354    -1.152621527326     0.293988449479    12.000000000000
         C            3.106611041646    -0.673593527326    -0.277393550521    12.000000000000
         C            3.204164041646     0.606934472674     0.240904449479    12.000000000000
         C           -2.594689958354     1.160646472674    -0.269195550521    12.000000000000
         C           -2.535561958354    -1.192505527326     0.269409449479    12.000000000000
         C           -3.267795958354    -0.036403527326    -0.009712550521    12.000000000000
         H            1.394263041646    -1.797637527326    -0.831993550521     1.007825032230
         H            1.602425041646     2.041979472674     0.862777449479     1.007825032230
         H           -0.676471958354     2.121401472674    -0.507235550521     1.007825032230
         H           -0.579805958354    -2.044672527326     0.566634449479     1.007825032230
         H            3.866440041646    -1.381907527326    -0.577824550521     1.007825032230
         H            4.083781041646     1.101062872674     0.459171949479     1.007825032230
         H           -3.157997958354     2.063848472674    -0.492770550521     1.007825032230
         H           -3.051856958354    -2.124950527326     0.486613449479     1.007825032230
         H           -4.354569958354    -0.066616527326    -0.020142550521     1.007825032230

  Basis Set: AUG-CC-PVTZ
    Blend: AUG-CC-PVTZ
  Basis Set: (AUG-CC-PVTZ AUX)
    Blend: AUG-CC-PVTZ-JKFIT
	 Reference Energy          =    -438.5080069609679185 [Eh]
	 Singles Energy            =      -0.0000000000000000 [Eh]
	 Same-Spin Energy          =      -0.4951910448018861 [Eh]
	 Opposite-Spin Energy      =      -1.5250535216149572 [Eh]
	 Correlation Energy        =      -2.0202445664168431 [Eh]
	 Total Energy              =    -440.5282515273847821 [Eh]

	 ================> DF-SCS-MP2 Energies <==================
	-----------------------------------------------------------
	 SCS Same-Spin Scale       =       0.3333333333333333 [-]
	 SCS Opposite-Spin Scale   =       1.2000000000000000 [-]
	 SCS Same-Spin Energy      =      -0.1650636816006287 [Eh]
	 SCS Opposite-Spin Energy  =      -1.8300642259379485 [Eh]
	 SCS Correlation Energy    =      -1.9951279075385773 [Eh]
	 SCS Total Energy          =    -440.5031348685064927 [Eh]
	-----------------------------------------------------------

  Dipole Moment: [D]
     X:    -0.4375      Y:    -1.3173      Z:    -0.6469     Total:     1.5314

*** Psi4 exiting successfully. Buy a developer a beer!
