                               Psi4 1.3.2 release

  ==> Input File <==

--------------------------------------------------------------------------
#psi4
#
memory 32 gb

molecule  {
0 1
  N        1.7773000    -0.9706020    -0.3863220
  C        1.0080060     0.0962300     0.0271750
  C       -0.3508507     0.0468877     0.0189667
  C        1.8938950     1.0905280     0.4329840
  C       -1.1961700     1.1987140    -0.2700270
  C       -1.1363230    -1.1523850     0.2941990
  C        3.1117900    -0.6733570    -0.2771830
  C        3.2093430     0.6071710     0.2411150
  C       -2.5895110     1.1608830    -0.2689850
  C       -2.5303830    -1.1922690     0.2696200
  C       -3.2626170    -0.0361670    -0.0095020
  H        1.3994420    -1.7974010    -0.8317830
  H        1.6076040     2.0422160     0.8629880
  H       -0.6712930     2.1216380    -0.5070250
  H       -0.5746270    -2.0444360     0.5668450
  H        3.8716190    -1.3816710    -0.5776140
  H        4.1315670     1.1252340     0.4699550
  H       -3.1528190     2.0640850    -0.4925600
  H       -3.0466780    -2.1247140     0.4868240
  H       -4.3493910    -0.0663800    -0.0199320
units angstrom
no_reorient  #important for SAPT in psi4, default
symmetry c1  #important for SAPT in psi4, default
}

set PROPERTIES_ORIGIN ["COM"]
properties('MP2/aug-cc-pvtz', properties = ['dipole'])
--------------------------------------------------------------------------

    Molecular point group: c1
  Charge       = 0
  Multiplicity = 1
  Basis Set: AUG-CC-PVTZ
    Blend: AUG-CC-PVTZ
  Basis Set: (AUG-CC-PVTZ AUX)
    Blend: AUG-CC-PVTZ-JKFIT

    Orbital Energies [Eh]
    ---------------------

    Doubly Occupied:

       1A    -15.610393     2A    -11.261454     3A    -11.257264
       4A    -11.255281     5A    -11.245035     6A    -11.242230
       7A    -11.240292     8A    -11.239085     9A    -11.236821
      10A    -11.218204    11A    -11.216497    12A     -1.299119
      13A     -1.146903    14A     -1.059766    15A     -1.047112
      16A     -1.010735    17A     -0.957380    18A     -0.848823
      19A     -0.825614    20A     -0.790553    21A     -0.768107
      22A     -0.737808    23A     -0.680840    24A     -0.634561
      25A     -0.626489    26A     -0.595648    27A     -0.589850
      28A     -0.579984    29A     -0.573967    30A     -0.552192
      31A     -0.540405    32A     -0.513172    33A     -0.495299
      34A     -0.478381    35A     -0.367242    36A     -0.353103
      37A     -0.338708    38A     -0.265698

  @DF-RHF Final Energy:  -438.49130119656695

   => Energetics <=

    Nuclear Repulsion Energy =            536.9037748298234192
    One-Electron Energy =               -1657.3901173706663030
    Two-Electron Energy =                 681.9950413442760464
    Total Energy =                       -438.4913011965669511
  Basis Set: (AUG-CC-PVTZ AUX)
    Blend: AUG-CC-PVTZ-RI
    Molecular point group: c1

    Geometry (in Angstrom), charge = 0, multiplicity = 1:

       Center              X                  Y                   Z               Mass
    ------------   -----------------  -----------------  -----------------  -----------------
         N            1.763439294102    -0.971311475072    -0.386657658457    14.003074004430
         C            0.994145294102     0.095520524928     0.026839341543    12.000000000000
         C           -0.364711405898     0.046178224928     0.018631041543    12.000000000000
         C            1.880034294102     1.089818524928     0.432648341543    12.000000000000
         C           -1.210030705898     1.198004524928    -0.270362658457    12.000000000000
         C           -1.150183705898    -1.153094475072     0.293863341543    12.000000000000
         C            3.097929294102    -0.674066475072    -0.277518658457    12.000000000000
         C            3.195482294102     0.606461524928     0.240779341543    12.000000000000
         C           -2.603371705898     1.160173524928    -0.269320658457    12.000000000000
         C           -2.544243705898    -1.192978475072     0.269284341543    12.000000000000
         C           -3.276477705898    -0.036876475072    -0.009837658457    12.000000000000
         H            1.385581294102    -1.798110475072    -0.832118658457     1.007825032230
         H            1.593743294102     2.041506524928     0.862652341543     1.007825032230
         H           -0.685153705898     2.120928524928    -0.507360658457     1.007825032230
         H           -0.588487705898    -2.045145475072     0.566509341543     1.007825032230
         H            3.857758294102    -1.382380475072    -0.577949658457     1.007825032230
         H            4.117706294102     1.124524524928     0.469619341543     1.007825032230
         H           -3.166679705898     2.063375524928    -0.492895658457     1.007825032230
         H           -3.060538705898    -2.125423475072     0.486488341543     1.007825032230
         H           -4.363251705898    -0.067089475072    -0.020267658457     1.007825032230

  Basis Set: AUG-CC-PVTZ
    Blend: AUG-CC-PVTZ
  Basis Set: (AUG-CC-PVTZ AUX)
    Blend: AUG-CC-PVTZ-JKFIT
	 Reference Energy          =    -438.4913011965669511 [Eh]
	 Singles Energy            =      -0.0000000000000000 [Eh]
	 Same-Spin Energy          =      -0.4973759785712158 [Eh]
	 Opposite-Spin Energy      =      -1.5285870265682173 [Eh]
	 Correlation Energy        =      -2.0259630051394333 [Eh]
	 Total Energy              =    -440.5172642017063822 [Eh]

	 ================> DF-SCS-MP2 Energies <==================
	-----------------------------------------------------------
	 SCS Same-Spin Scale       =       0.3333333333333333 [-]
	 SCS Opposite-Spin Scale   =       1.2000000000000000 [-]
	 SCS Same-Spin Energy      =      -0.1657919928570719 [Eh]
	 SCS Opposite-Spin Energy  =      -1.8343044318818607 [Eh]
	 SCS Correlation Energy    =      -2.0000964247389326 [Eh]
	 SCS Total Energy          =    -440.4913976213059073 [Eh]
	-----------------------------------------------------------

  Dipole Moment: [D]
     X:    -0.0590      Y:    -1.3013      Z:    -0.6385     Total:     1.4507

*** Psi4 exiting successfully. Buy a developer a beer!
