                               Psi4 1.3.2 release

  ==> Input File <==

--------------------------------------------------------------------------
#psi4
#
memory 32 gb

molecule  {
0 1
  N        1.7773000    -0.9706020    -0.3863220
  C        1.0080060     0.0962300     0.0271750
  C       -0.4507830     0.0432590     0.0183630
  C        1.8938950     1.0905280     0.4329840
  C       -1.1961700     1.1987140    -0.2700270
  C       -1.1363230    -1.1523850     0.2941990
  C        3.1117900    -0.6733570    -0.2771830
  C        3.2093430     0.6071710     0.2411150
  C       -2.5895110     1.1608830    -0.2689850
  C       -2.5303830    -1.1922690     0.2696200
  C       -3.2626170    -0.0361670    -0.0095020
  H        1.4367676    -1.7157280    -0.7877794
  H        1.6076040     2.0422160     0.8629880
  H       -0.6712930     2.1216380    -0.5070250
  H       -0.5746270    -2.0444360     0.5668450
  H        3.8716190    -1.3816710    -0.5776140
  H        4.1315670     1.1252340     0.4699550
  H       -3.1528190     2.0640850    -0.4925600
  H       -3.0466780    -2.1247140     0.4868240
  H       -4.3493910    -0.0663800    -0.0199320
units angstrom
no_reorient  #important for SAPT in psi4, default
symmetry c1  #important for SAPT in psi4, default
}

set PROPERTIES_ORIGIN ["COM"]
properties('MP2/aug-cc-pvtz', properties = ['dipole'])
--------------------------------------------------------------------------

    Molecular point group: c1
  Charge       = 0
  Multiplicity = 1
  Basis Set: AUG-CC-PVTZ
    Blend: AUG-CC-PVTZ
  Basis Set: (AUG-CC-PVTZ AUX)
    Blend: AUG-CC-PVTZ-JKFIT

    Orbital Energies [Eh]
    ---------------------

    Doubly Occupied:

       1A    -15.598357     2A    -11.262576     3A    -11.257076
       4A    -11.253502     5A    -11.242161     6A    -11.240903
       7A    -11.240687     8A    -11.238199     9A    -11.237908
      10A    -11.214496    11A    -11.213352    12A     -1.303214
      13A     -1.156551    14A     -1.057472    15A     -1.046328
      16A     -1.017261    17A     -0.959704    18A     -0.840288
      19A     -0.832477    20A     -0.809133    21A     -0.766118
      22A     -0.736310    23A     -0.680626    24A     -0.633572
      25A     -0.630693    26A     -0.599473    27A     -0.590100
      28A     -0.583704    29A     -0.570871    30A     -0.550247
      31A     -0.537788    32A     -0.504858    33A     -0.501052
      34A     -0.494678    35A     -0.363996    36A     -0.351591
      37A     -0.341494    38A     -0.273823

  @DF-RHF Final Energy:  -438.50261478923153

   => Energetics <=

    Nuclear Repulsion Energy =            537.4538195490138150
    One-Electron Energy =               -1658.4475890510150293
    Two-Electron Energy =                 682.4911547127696849
    Total Energy =                       -438.5026147892315294
  Basis Set: (AUG-CC-PVTZ AUX)
    Blend: AUG-CC-PVTZ-RI
    Molecular point group: c1

    Geometry (in Angstrom), charge = 0, multiplicity = 1:

       Center              X                  Y                   Z               Mass
    ------------   -----------------  -----------------  -----------------  -----------------
         N            1.771557987862    -0.971582438556    -0.386916990407    14.003074004430
         C            1.002263987862     0.095249561444     0.026580009593    12.000000000000
         C           -0.456525012138     0.042278561444     0.017768009593    12.000000000000
         C            1.888152987862     1.089547561444     0.432389009593    12.000000000000
         C           -1.201912012138     1.197733561444    -0.270621990407    12.000000000000
         C           -1.142065012138    -1.153365438556     0.293604009593    12.000000000000
         C            3.106047987862    -0.674337438556    -0.277777990407    12.000000000000
         C            3.203600987862     0.606190561444     0.240520009593    12.000000000000
         C           -2.595253012138     1.159902561444    -0.269579990407    12.000000000000
         C           -2.536125012138    -1.193249438556     0.269025009593    12.000000000000
         C           -3.268359012138    -0.037147438556    -0.010096990407    12.000000000000
         H            1.431025587862    -1.716708438556    -0.788374390407     1.007825032230
         H            1.601861987862     2.041235561444     0.862393009593     1.007825032230
         H           -0.677035012138     2.120657561444    -0.507619990407     1.007825032230
         H           -0.580369012138    -2.045416438556     0.566250009593     1.007825032230
         H            3.865876987862    -1.382651438556    -0.578208990407     1.007825032230
         H            4.125824987862     1.124253561444     0.469360009593     1.007825032230
         H           -3.158561012138     2.063104561444    -0.493154990407     1.007825032230
         H           -3.052420012138    -2.125694438556     0.486229009593     1.007825032230
         H           -4.355133012138    -0.067360438556    -0.020526990407     1.007825032230

  Basis Set: AUG-CC-PVTZ
    Blend: AUG-CC-PVTZ
  Basis Set: (AUG-CC-PVTZ AUX)
    Blend: AUG-CC-PVTZ-JKFIT
	 Reference Energy          =    -438.5026147892315294 [Eh]
	 Singles Energy            =      -0.0000000000000000 [Eh]
	 Same-Spin Energy          =      -0.4944141894428448 [Eh]
	 Opposite-Spin Energy      =      -1.5236622139446991 [Eh]
	 Correlation Energy        =      -2.0180764033875440 [Eh]
	 Total Energy              =    -440.5206911926190969 [Eh]

	 ================> DF-SCS-MP2 Energies <==================
	-----------------------------------------------------------
	 SCS Same-Spin Scale       =       0.3333333333333333 [-]
	 SCS Opposite-Spin Scale   =       1.2000000000000000 [-]
	 SCS Same-Spin Energy      =      -0.1648047298142816 [Eh]
	 SCS Opposite-Spin Energy  =      -1.8283946567336389 [Eh]
	 SCS Correlation Energy    =      -1.9931993865479205 [Eh]
	 SCS Total Energy          =    -440.4958141757794579 [Eh]
	-----------------------------------------------------------

  Dipole Moment: [D]
     X:    -0.4287      Y:    -1.2317      Z:    -0.5994     Total:     1.4353

*** Psi4 exiting successfully. Buy a developer a beer!
