                               Psi4 1.3.2 release

  ==> Input File <==

--------------------------------------------------------------------------
#psi4
#
memory 32 gb

molecule  {
0 1
  N        1.7369022    -0.9951378    -0.3953771
  C        1.0080060     0.0962300     0.0271750
  C       -0.4507830     0.0432590     0.0183630
  C        1.8938950     1.0905280     0.4329840
  C       -1.1961700     1.1987140    -0.2700270
  C       -1.1363230    -1.1523850     0.2941990
  C        3.1117900    -0.6733570    -0.2771830
  C        3.2093430     0.6071710     0.2411150
  C       -2.5895110     1.1608830    -0.2689850
  C       -2.5303830    -1.1922690     0.2696200
  C       -3.2626170    -0.0361670    -0.0095020
  H        1.3994420    -1.7974010    -0.8317830
  H        1.6076040     2.0422160     0.8629880
  H       -0.6712930     2.1216380    -0.5070250
  H       -0.5746270    -2.0444360     0.5668450
  H        3.8716190    -1.3816710    -0.5776140
  H        4.1315670     1.1252340     0.4699550
  H       -3.1528190     2.0640850    -0.4925600
  H       -3.0466780    -2.1247140     0.4868240
  H       -4.3493910    -0.0663800    -0.0199320
units angstrom
no_reorient  #important for SAPT in psi4, default
symmetry c1  #important for SAPT in psi4, default
}

set PROPERTIES_ORIGIN ["COM"]
properties('MP2/aug-cc-pvtz', properties = ['dipole'])
--------------------------------------------------------------------------

    Molecular point group: c1
  Charge       = 0
  Multiplicity = 1
  Basis Set: AUG-CC-PVTZ
    Blend: AUG-CC-PVTZ
  Basis Set: (AUG-CC-PVTZ AUX)
    Blend: AUG-CC-PVTZ-JKFIT

    Orbital Energies [Eh]
    ---------------------

    Doubly Occupied:

       1A    -15.604008     2A    -11.265868     3A    -11.259464
       4A    -11.252153     5A    -11.241870     6A    -11.240567
       7A    -11.240364     8A    -11.237970     9A    -11.237650
      10A    -11.217993    11A    -11.213839    12A     -1.285268
      13A     -1.155574    14A     -1.051054    15A     -1.044970
      16A     -1.016790    17A     -0.955561    18A     -0.838649
      19A     -0.831848    20A     -0.796997    21A     -0.762090
      22A     -0.733934    23A     -0.678138    24A     -0.632063
      25A     -0.628322    26A     -0.601329    27A     -0.589202
      28A     -0.578107    29A     -0.564198    30A     -0.550272
      31A     -0.537604    32A     -0.503222    33A     -0.500518
      34A     -0.494539    35A     -0.361531    36A     -0.354078
      37A     -0.341177    38A     -0.273801

  @DF-RHF Final Energy:  -438.50576603026508

   => Energetics <=

    Nuclear Repulsion Energy =            536.4215931392731136
    One-Electron Energy =               -1656.5095614916792783
    Two-Electron Energy =                 681.5822023221411428
    Total Energy =                       -438.5057660302651357
  Basis Set: (AUG-CC-PVTZ AUX)
    Blend: AUG-CC-PVTZ-RI
    Molecular point group: c1

    Geometry (in Angstrom), charge = 0, multiplicity = 1:

       Center              X                  Y                   Z               Mass
    ------------   -----------------  -----------------  -----------------  -----------------
         N            1.735376978952    -0.993141525754    -0.394775871919    14.003074004430
         C            1.006480778952     0.098226274246     0.027776228081    12.000000000000
         C           -0.452308221048     0.045255274246     0.018964228081    12.000000000000
         C            1.892369778952     1.092524274246     0.433585228081    12.000000000000
         C           -1.197695221048     1.200710274246    -0.269425771919    12.000000000000
         C           -1.137848221048    -1.150388725754     0.294800228081    12.000000000000
         C            3.110264778952    -0.671360725754    -0.276581771919    12.000000000000
         C            3.207817778952     0.609167274246     0.241716228081    12.000000000000
         C           -2.591036221048     1.162879274246    -0.268383771919    12.000000000000
         C           -2.531908221048    -1.190272725754     0.270221228081    12.000000000000
         C           -3.264142221048    -0.034170725754    -0.008900771919    12.000000000000
         H            1.397916778952    -1.795404725754    -0.831181771919     1.007825032230
         H            1.606078778952     2.044212274246     0.863589228081     1.007825032230
         H           -0.672818221048     2.123634274246    -0.506423771919     1.007825032230
         H           -0.576152221048    -2.042439725754     0.567446228081     1.007825032230
         H            3.870093778952    -1.379674725754    -0.577012771919     1.007825032230
         H            4.130041778952     1.127230274246     0.470556228081     1.007825032230
         H           -3.154344221048     2.066081274246    -0.491958771919     1.007825032230
         H           -3.048203221048    -2.122717725754     0.487425228081     1.007825032230
         H           -4.350916221048    -0.064383725754    -0.019330771919     1.007825032230

  Basis Set: AUG-CC-PVTZ
    Blend: AUG-CC-PVTZ
  Basis Set: (AUG-CC-PVTZ AUX)
    Blend: AUG-CC-PVTZ-JKFIT
	 Reference Energy          =    -438.5057660302650788 [Eh]
	 Singles Energy            =      -0.0000000000000000 [Eh]
	 Same-Spin Energy          =      -0.4947526173460429 [Eh]
	 Opposite-Spin Energy      =      -1.5254272916413874 [Eh]
	 Correlation Energy        =      -2.0201799089874304 [Eh]
	 Total Energy              =    -440.5259459392524946 [Eh]

	 ================> DF-SCS-MP2 Energies <==================
	-----------------------------------------------------------
	 SCS Same-Spin Scale       =       0.3333333333333333 [-]
	 SCS Opposite-Spin Scale   =       1.2000000000000000 [-]
	 SCS Same-Spin Energy      =      -0.1649175391153476 [Eh]
	 SCS Opposite-Spin Energy  =      -1.8305127499696647 [Eh]
	 SCS Correlation Energy    =      -1.9954302890850124 [Eh]
	 SCS Total Energy          =    -440.5011963193500719 [Eh]
	-----------------------------------------------------------

  Dipole Moment: [D]
     X:    -0.3838      Y:    -1.2078      Z:    -0.6061     Total:     1.4048

*** Psi4 exiting successfully. Buy a developer a beer!
