                               Psi4 1.4a3.dev225

  ==> Input File <==

--------------------------------------------------------------------------
#psi4
#
memory 32 gb

molecule  {
0 1
  N        1.7773000    -0.9706020    -0.3863220
  C        1.0080060     0.0962300     0.0271750
  C       -0.4507830     0.0432590     0.0183630
  C        1.8938950     1.0905280     0.4329840
  C       -1.1696426     1.1575927    -0.2597635
  C       -1.1363230    -1.1523850     0.2941990
  C        3.1117900    -0.6733570    -0.2771830
  C        3.2093430     0.6071710     0.2411150
  C       -2.5895110     1.1608830    -0.2689850
  C       -2.5303830    -1.1922690     0.2696200
  C       -3.2626170    -0.0361670    -0.0095020
  H        1.3994420    -1.7974010    -0.8317830
  H        1.6076040     2.0422160     0.8629880
  H       -0.6712930     2.1216380    -0.5070250
  H       -0.5746270    -2.0444360     0.5668450
  H        3.8716190    -1.3816710    -0.5776140
  H        4.1315670     1.1252340     0.4699550
  H       -3.1528190     2.0640850    -0.4925600
  H       -3.0466780    -2.1247140     0.4868240
  H       -4.3493910    -0.0663800    -0.0199320
units angstrom
no_reorient  #important for SAPT in psi4, default
symmetry c1  #important for SAPT in psi4, default
}

set PROPERTIES_ORIGIN ["COM"]
properties('MP2/aug-cc-pvtz', properties = ['dipole'])
--------------------------------------------------------------------------

    Molecular point group: c1
  Charge       = 0
  Multiplicity = 1
  Basis Set: AUG-CC-PVTZ
    Blend: AUG-CC-PVTZ
  Basis Set: (AUG-CC-PVTZ AUX)
    Blend: AUG-CC-PVTZ-JKFIT

    Orbital Energies [Eh]
    ---------------------

    Doubly Occupied:

       1A    -15.607984     2A    -11.261567     3A    -11.255975
       4A    -11.247626     5A    -11.243332     6A    -11.242098
       7A    -11.240877     8A    -11.238150     9A    -11.237168
      10A    -11.213385    11A    -11.212215    12A     -1.293873
      13A     -1.159783    14A     -1.052026    15A     -1.042722
      16A     -1.013317    17A     -0.960653    18A     -0.838124
      19A     -0.832325    20A     -0.788624    21A     -0.764122
      22A     -0.737029    23A     -0.677518    24A     -0.636172
      25A     -0.628564    26A     -0.591746    27A     -0.586638
      28A     -0.584848    29A     -0.569650    30A     -0.548274
      31A     -0.536000    32A     -0.506066    33A     -0.504241
      34A     -0.490060    35A     -0.366826    36A     -0.349945
      37A     -0.337937    38A     -0.275076

  @DF-RHF Final Energy:  -438.50593839739577

   => Energetics <=

    Nuclear Repulsion Energy =            537.5536192481754370
    One-Electron Energy =               -1658.7740464774192333
    Two-Electron Energy =                 682.7144888318480298
    Total Energy =                       -438.5059383973957665
  Basis Set: (AUG-CC-PVTZ AUX)
    Blend: AUG-CC-PVTZ-RI
    Molecular point group: c1

    Geometry (in Angstrom), charge = 0, multiplicity = 1:

       Center              X                  Y                   Z               Mass
    ------------   -----------------  -----------------  -----------------  -----------------
         N            1.769595981429    -0.967558159450    -0.387467854618    14.003074004430
         C            1.000301981429     0.099273840550     0.026029145382    12.000000000000
         C           -0.458487018571     0.046302840550     0.017217145382    12.000000000000
         C            1.886190981429     1.093571840550     0.431838145382    12.000000000000
         C           -1.177346618571     1.160636540550    -0.260909354618    12.000000000000
         C           -1.144027018571    -1.149341159450     0.293053145382    12.000000000000
         C            3.104085981429    -0.670313159450    -0.278328854618    12.000000000000
         C            3.201638981429     0.610214840550     0.239969145382    12.000000000000
         C           -2.597215018571     1.163926840550    -0.270130854618    12.000000000000
         C           -2.538087018571    -1.189225159450     0.268474145382    12.000000000000
         C           -3.270321018571    -0.033123159450    -0.010647854618    12.000000000000
         H            1.391737981429    -1.794357159450    -0.832928854618     1.007825032230
         H            1.599899981429     2.045259840550     0.861842145382     1.007825032230
         H           -0.678997018571     2.124681840550    -0.508170854618     1.007825032230
         H           -0.582331018571    -2.041392159450     0.565699145382     1.007825032230
         H            3.863914981429    -1.378627159450    -0.578759854618     1.007825032230
         H            4.123862981429     1.128277840550     0.468809145382     1.007825032230
         H           -3.160523018571     2.067128840550    -0.493705854618     1.007825032230
         H           -3.054382018571    -2.121670159450     0.485678145382     1.007825032230
         H           -4.357095018571    -0.063336159450    -0.021077854618     1.007825032230

  Basis Set: AUG-CC-PVTZ
    Blend: AUG-CC-PVTZ
  Basis Set: (AUG-CC-PVTZ AUX)
    Blend: AUG-CC-PVTZ-JKFIT
	 Reference Energy          =    -438.5059383973957665 [Eh]
	 Singles Energy            =      -0.0000000000000000 [Eh]
	 Same-Spin Energy          =      -0.4952127760060797 [Eh]
	 Opposite-Spin Energy      =      -1.5254498885852907 [Eh]
	 Correlation Energy        =      -2.0206626645913706 [Eh]
	 Total Energy              =    -440.5266010619871508 [Eh]

	 ================> DF-SCS-MP2 Energies <==================
	-----------------------------------------------------------
	 SCS Same-Spin Scale       =       0.3333333333333333 [-]
	 SCS Opposite-Spin Scale   =       1.2000000000000000 [-]
	 SCS Same-Spin Energy      =      -0.1650709253353599 [Eh]
	 SCS Opposite-Spin Energy  =      -1.8305398663023489 [Eh]
	 SCS Correlation Energy    =      -1.9956107916377088 [Eh]
	 SCS Total Energy          =    -440.5015491890334829 [Eh]
	-----------------------------------------------------------

  Dipole Moment: [D]
     X:    -0.5083      Y:    -1.3201      Z:    -0.6475     Total:     1.5557

*** Psi4 exiting successfully. Buy a developer a beer!
