                               Psi4 1.3.2 release

  ==> Input File <==

--------------------------------------------------------------------------
#psi4
#
memory 32 gb

molecule  {
0 1
  N        1.7773000    -0.9706020    -0.3863220
  C        1.0080060     0.0962300     0.0271750
  C       -0.4507830     0.0432590     0.0183630
  C        1.8938950     1.0905280     0.4329840
  C       -1.1961700     1.1987140    -0.2700270
  C       -1.1363230    -1.1523850     0.2941990
  C        3.0144915    -0.6950293    -0.2851404
  C        3.2093430     0.6071710     0.2411150
  C       -2.5895110     1.1608830    -0.2689850
  C       -2.5303830    -1.1922690     0.2696200
  C       -3.2626170    -0.0361670    -0.0095020
  H        1.3994420    -1.7974010    -0.8317830
  H        1.6076040     2.0422160     0.8629880
  H       -0.6712930     2.1216380    -0.5070250
  H       -0.5746270    -2.0444360     0.5668450
  H        3.8716190    -1.3816710    -0.5776140
  H        4.1315670     1.1252340     0.4699550
  H       -3.1528190     2.0640850    -0.4925600
  H       -3.0466780    -2.1247140     0.4868240
  H       -4.3493910    -0.0663800    -0.0199320
units angstrom
no_reorient  #important for SAPT in psi4, default
symmetry c1  #important for SAPT in psi4, default
}

set PROPERTIES_ORIGIN ["COM"]
properties('MP2/aug-cc-pvtz', properties = ['dipole'])
--------------------------------------------------------------------------

    Molecular point group: c1
  Charge       = 0
  Multiplicity = 1
  Basis Set: AUG-CC-PVTZ
    Blend: AUG-CC-PVTZ
  Basis Set: (AUG-CC-PVTZ AUX)
    Blend: AUG-CC-PVTZ-JKFIT

    Orbital Energies [Eh]
    ---------------------

    Doubly Occupied:

       1A    -15.616523     2A    -11.260902     3A    -11.254288
       4A    -11.251971     5A    -11.240607     6A    -11.239195
       7A    -11.238213     8A    -11.235161     9A    -11.234953
      10A    -11.216584    11A    -11.210038    12A     -1.328522
      13A     -1.155146    14A     -1.056298    15A     -1.040272
      16A     -1.015188    17A     -0.957702    18A     -0.833429
      19A     -0.831515    20A     -0.800644    21A     -0.773181
      22A     -0.732436    23A     -0.679268    24A     -0.636402
      25A     -0.629131    26A     -0.603389    27A     -0.592906
      28A     -0.583216    29A     -0.577613    30A     -0.552295
      31A     -0.517780    32A     -0.503151    33A     -0.499132
      34A     -0.492661    35A     -0.368764    36A     -0.347790
      37A     -0.339938    38A     -0.266778

  @DF-RHF Final Energy:  -438.49619412156511

   => Energetics <=

    Nuclear Repulsion Energy =            538.6047546704032811
    One-Electron Energy =               -1660.7759329222310498
    Two-Electron Energy =                 683.6749841302626010
    Total Energy =                       -438.4961941215651677
  Basis Set: (AUG-CC-PVTZ AUX)
    Blend: AUG-CC-PVTZ-RI
    Molecular point group: c1

    Geometry (in Angstrom), charge = 0, multiplicity = 1:

       Center              X                  Y                   Z               Mass
    ------------   -----------------  -----------------  -----------------  -----------------
         N            1.779981628019    -0.969189404937    -0.385939613532    14.003074004430
         C            1.010687628019     0.097642595063     0.027557386468    12.000000000000
         C           -0.448101371981     0.044671595063     0.018745386468    12.000000000000
         C            1.896576628019     1.091940595063     0.433366386468    12.000000000000
         C           -1.193488371981     1.200126595063    -0.269644613532    12.000000000000
         C           -1.133641371981    -1.150972404937     0.294581386468    12.000000000000
         C            3.017173128019    -0.693616704937    -0.284758013532    12.000000000000
         C            3.212024628019     0.608583595063     0.241497386468    12.000000000000
         C           -2.586829371981     1.162295595063    -0.268602613532    12.000000000000
         C           -2.527701371981    -1.190856404937     0.270002386468    12.000000000000
         C           -3.259935371981    -0.034754404937    -0.009119613532    12.000000000000
         H            1.402123628019    -1.795988404937    -0.831400613532     1.007825032230
         H            1.610285628019     2.043628595063     0.863370386468     1.007825032230
         H           -0.668611371981     2.123050595063    -0.506642613532     1.007825032230
         H           -0.571945371981    -2.043023404937     0.567227386468     1.007825032230
         H            3.874300628019    -1.380258404937    -0.577231613532     1.007825032230
         H            4.134248628019     1.126646595063     0.470337386468     1.007825032230
         H           -3.150137371981     2.065497595063    -0.492177613532     1.007825032230
         H           -3.043996371981    -2.123301404937     0.487206386468     1.007825032230
         H           -4.346709371981    -0.064967404937    -0.019549613532     1.007825032230

  Basis Set: AUG-CC-PVTZ
    Blend: AUG-CC-PVTZ
  Basis Set: (AUG-CC-PVTZ AUX)
    Blend: AUG-CC-PVTZ-JKFIT
	 Reference Energy          =    -438.4961941215651109 [Eh]
	 Singles Energy            =      -0.0000000000000000 [Eh]
	 Same-Spin Energy          =      -0.4958956367197207 [Eh]
	 Opposite-Spin Energy      =      -1.5248492228164294 [Eh]
	 Correlation Energy        =      -2.0207448595361504 [Eh]
	 Total Energy              =    -440.5169389811012479 [Eh]

	 ================> DF-SCS-MP2 Energies <==================
	-----------------------------------------------------------
	 SCS Same-Spin Scale       =       0.3333333333333333 [-]
	 SCS Opposite-Spin Scale   =       1.2000000000000000 [-]
	 SCS Same-Spin Energy      =      -0.1652985455732402 [Eh]
	 SCS Opposite-Spin Energy  =      -1.8298190673797152 [Eh]
	 SCS Correlation Energy    =      -1.9951176129529555 [Eh]
	 SCS Total Energy          =    -440.4913117345180922 [Eh]
	-----------------------------------------------------------

  Dipole Moment: [D]
     X:    -0.3977      Y:    -1.4400      Z:    -0.6974     Total:     1.6486

*** Psi4 exiting successfully. Buy a developer a beer!
