                               Psi4 1.3.2 release

  ==> Input File <==

--------------------------------------------------------------------------
#psi4
#
memory 32 gb

molecule  {
0 1
  N        1.7773000    -0.9706020    -0.3863220
  C        1.0080060     0.0962300     0.0271750
  C       -0.4507830     0.0432590     0.0183630
  C        1.8765474     1.0476930     0.4156071
  C       -1.1961700     1.1987140    -0.2700270
  C       -1.1363230    -1.1523850     0.2941990
  C        3.1117900    -0.6733570    -0.2771830
  C        3.2093430     0.6071710     0.2411150
  C       -2.5895110     1.1608830    -0.2689850
  C       -2.5303830    -1.1922690     0.2696200
  C       -3.2626170    -0.0361670    -0.0095020
  H        1.3994420    -1.7974010    -0.8317830
  H        1.6076040     2.0422160     0.8629880
  H       -0.6712930     2.1216380    -0.5070250
  H       -0.5746270    -2.0444360     0.5668450
  H        3.8716190    -1.3816710    -0.5776140
  H        4.1315670     1.1252340     0.4699550
  H       -3.1528190     2.0640850    -0.4925600
  H       -3.0466780    -2.1247140     0.4868240
  H       -4.3493910    -0.0663800    -0.0199320
units angstrom
no_reorient  #important for SAPT in psi4, default
symmetry c1  #important for SAPT in psi4, default
}

set PROPERTIES_ORIGIN ["COM"]
properties('MP2/aug-cc-pvtz', properties = ['dipole'])
--------------------------------------------------------------------------

    Molecular point group: c1
  Charge       = 0
  Multiplicity = 1
  Basis Set: AUG-CC-PVTZ
    Blend: AUG-CC-PVTZ
  Basis Set: (AUG-CC-PVTZ AUX)
    Blend: AUG-CC-PVTZ-JKFIT

    Orbital Energies [Eh]
    ---------------------

    Doubly Occupied:

       1A    -15.604639     2A    -11.257608     3A    -11.255775
       4A    -11.253169     5A    -11.241976     6A    -11.240679
       7A    -11.240480     8A    -11.237974     9A    -11.237693
      10A    -11.212250    11A    -11.210717    12A     -1.296305
      13A     -1.156157    14A     -1.051372    15A     -1.043125
      16A     -1.016757    17A     -0.962977    18A     -0.837288
      19A     -0.832382    20A     -0.788124    21A     -0.760741
      22A     -0.736013    23A     -0.680583    24A     -0.633602
      25A     -0.629778    26A     -0.592054    27A     -0.588986
      28A     -0.581400    29A     -0.571743    30A     -0.554930
      31A     -0.525734    32A     -0.504473    33A     -0.501792
      34A     -0.494877    35A     -0.365363    36A     -0.349361
      37A     -0.341237    38A     -0.277859

  @DF-RHF Final Energy:  -438.50705858817423

   => Energetics <=

    Nuclear Repulsion Energy =            537.8092758694076565
    One-Electron Energy =               -1659.2967229997541381
    Two-Electron Energy =                 682.9803885421722498
    Total Energy =                       -438.5070585881742318
  Basis Set: (AUG-CC-PVTZ AUX)
    Blend: AUG-CC-PVTZ-RI
    Molecular point group: c1

    Geometry (in Angstrom), charge = 0, multiplicity = 1:

       Center              X                  Y                   Z               Mass
    ------------   -----------------  -----------------  -----------------  -----------------
         N            1.773275908198    -0.967414426333    -0.385149572046    14.003074004430
         C            1.003981908198     0.099417573667     0.028347427954    12.000000000000
         C           -0.454807091802     0.046446573667     0.019535427954    12.000000000000
         C            1.872523308198     1.050880573667     0.416779527954    12.000000000000
         C           -1.200194091802     1.201901573667    -0.268854572046    12.000000000000
         C           -1.140347091802    -1.149197426333     0.295371427954    12.000000000000
         C            3.107765908198    -0.670169426333    -0.276010572046    12.000000000000
         C            3.205318908198     0.610358573667     0.242287427954    12.000000000000
         C           -2.593535091802     1.164070573667    -0.267812572046    12.000000000000
         C           -2.534407091802    -1.189081426333     0.270792427954    12.000000000000
         C           -3.266641091802    -0.032979426333    -0.008329572046    12.000000000000
         H            1.395417908198    -1.794213426333    -0.830610572046     1.007825032230
         H            1.603579908198     2.045403573667     0.864160427954     1.007825032230
         H           -0.675317091802     2.124825573667    -0.505852572046     1.007825032230
         H           -0.578651091802    -2.041248426333     0.568017427954     1.007825032230
         H            3.867594908198    -1.378483426333    -0.576441572046     1.007825032230
         H            4.127542908198     1.128421573667     0.471127427954     1.007825032230
         H           -3.156843091802     2.067272573667    -0.491387572046     1.007825032230
         H           -3.050702091802    -2.121526426333     0.487996427954     1.007825032230
         H           -4.353415091802    -0.063192426333    -0.018759572046     1.007825032230

  Basis Set: AUG-CC-PVTZ
    Blend: AUG-CC-PVTZ
  Basis Set: (AUG-CC-PVTZ AUX)
    Blend: AUG-CC-PVTZ-JKFIT
	 Reference Energy          =    -438.5070585881742318 [Eh]
	 Singles Energy            =      -0.0000000000000000 [Eh]
	 Same-Spin Energy          =      -0.4947496064753572 [Eh]
	 Opposite-Spin Energy      =      -1.5245467859885984 [Eh]
	 Correlation Energy        =      -2.0192963924639553 [Eh]
	 Total Energy              =    -440.5263549806381889 [Eh]

	 ================> DF-SCS-MP2 Energies <==================
	-----------------------------------------------------------
	 SCS Same-Spin Scale       =       0.3333333333333333 [-]
	 SCS Opposite-Spin Scale   =       1.2000000000000000 [-]
	 SCS Same-Spin Energy      =      -0.1649165354917857 [Eh]
	 SCS Opposite-Spin Energy  =      -1.8294561431863179 [Eh]
	 SCS Correlation Energy    =      -1.9943726786781035 [Eh]
	 SCS Total Energy          =    -440.5014312668523075 [Eh]
	-----------------------------------------------------------

  Dipole Moment: [D]
     X:    -0.4771      Y:    -1.2973      Z:    -0.6419     Total:     1.5240

*** Psi4 exiting successfully. Buy a developer a beer!
