                               Psi4 1.3.2 release

  ==> Input File <==

--------------------------------------------------------------------------
#psi4
#
memory 32 gb

molecule  {
0 1
  N        1.7773000    -0.9706020    -0.3863220
  C        0.9300679     0.0434423     0.0071695
  C       -0.4507830     0.0432590     0.0183630
  C        1.8938950     1.0905280     0.4329840
  C       -1.1961700     1.1987140    -0.2700270
  C       -1.1363230    -1.1523850     0.2941990
  C        3.1117900    -0.6733570    -0.2771830
  C        3.2093430     0.6071710     0.2411150
  C       -2.5895110     1.1608830    -0.2689850
  C       -2.5303830    -1.1922690     0.2696200
  C       -3.2626170    -0.0361670    -0.0095020
  H        1.3994420    -1.7974010    -0.8317830
  H        1.6076040     2.0422160     0.8629880
  H       -0.6712930     2.1216380    -0.5070250
  H       -0.5746270    -2.0444360     0.5668450
  H        3.8716190    -1.3816710    -0.5776140
  H        4.1315670     1.1252340     0.4699550
  H       -3.1528190     2.0640850    -0.4925600
  H       -3.0466780    -2.1247140     0.4868240
  H       -4.3493910    -0.0663800    -0.0199320
units angstrom
no_reorient  #important for SAPT in psi4, default
symmetry c1  #important for SAPT in psi4, default
}

set PROPERTIES_ORIGIN ["COM"]
properties('MP2/aug-cc-pvtz', properties = ['dipole'])
--------------------------------------------------------------------------

    Molecular point group: c1
  Charge       = 0
  Multiplicity = 1
  Basis Set: AUG-CC-PVTZ
    Blend: AUG-CC-PVTZ
  Basis Set: (AUG-CC-PVTZ AUX)
    Blend: AUG-CC-PVTZ-JKFIT

    Orbital Energies [Eh]
    ---------------------

    Doubly Occupied:

       1A    -15.615112     2A    -11.266078     3A    -11.258239
       4A    -11.248443     5A    -11.241872     6A    -11.241242
       7A    -11.239969     8A    -11.238664     9A    -11.237639
      10A    -11.222385    11A    -11.216555    12A     -1.292661
      13A     -1.159916    14A     -1.058149    15A     -1.038259
      16A     -1.016996    17A     -0.954526    18A     -0.847283
      19A     -0.834128    20A     -0.785879    21A     -0.761993
      22A     -0.739625    23A     -0.680445    24A     -0.638715
      25A     -0.632042    26A     -0.594267    27A     -0.590694
      28A     -0.585586    29A     -0.568313    30A     -0.540035
      31A     -0.536463    32A     -0.509554    33A     -0.501558
      34A     -0.489528    35A     -0.367220    36A     -0.349108
      37A     -0.341889    38A     -0.260901

  @DF-RHF Final Energy:  -438.49018689239438

   => Energetics <=

    Nuclear Repulsion Energy =            536.9421982103676783
    One-Electron Energy =               -1657.4609123394966446
    Two-Electron Energy =                 682.0285272367345897
    Total Energy =                       -438.4901868923943766
  Basis Set: (AUG-CC-PVTZ AUX)
    Blend: AUG-CC-PVTZ-RI
    Molecular point group: c1

    Geometry (in Angstrom), charge = 0, multiplicity = 1:

       Center              X                  Y                   Z               Mass
    ------------   -----------------  -----------------  -----------------  -----------------
         N            1.778357813677    -0.966579663777    -0.384929103544    14.003074004430
         C            0.931125713677     0.047464636223     0.008562396456    12.000000000000
         C           -0.449725186323     0.047281336223     0.019755896456    12.000000000000
         C            1.894952813677     1.094550336223     0.434376896456    12.000000000000
         C           -1.195112186323     1.202736336223    -0.268634103544    12.000000000000
         C           -1.135265186323    -1.148362663777     0.295591896456    12.000000000000
         C            3.112847813677    -0.669334663777    -0.275790103544    12.000000000000
         C            3.210400813677     0.611193336223     0.242507896456    12.000000000000
         C           -2.588453186323     1.164905336223    -0.267592103544    12.000000000000
         C           -2.529325186323    -1.188246663777     0.271012896456    12.000000000000
         C           -3.261559186323    -0.032144663777    -0.008109103544    12.000000000000
         H            1.400499813677    -1.793378663777    -0.830390103544     1.007825032230
         H            1.608661813677     2.046238336223     0.864380896456     1.007825032230
         H           -0.670235186323     2.125660336223    -0.505632103544     1.007825032230
         H           -0.573569186323    -2.040413663777     0.568237896456     1.007825032230
         H            3.872676813677    -1.377648663777    -0.576221103544     1.007825032230
         H            4.132624813677     1.129256336223     0.471347896456     1.007825032230
         H           -3.151761186323     2.068107336223    -0.491167103544     1.007825032230
         H           -3.045620186323    -2.120691663777     0.488216896456     1.007825032230
         H           -4.348333186323    -0.062357663777    -0.018539103544     1.007825032230

  Basis Set: AUG-CC-PVTZ
    Blend: AUG-CC-PVTZ
  Basis Set: (AUG-CC-PVTZ AUX)
    Blend: AUG-CC-PVTZ-JKFIT
	 Reference Energy          =    -438.4901868923943766 [Eh]
	 Singles Energy            =      -0.0000000000000000 [Eh]
	 Same-Spin Energy          =      -0.4981707293302999 [Eh]
	 Opposite-Spin Energy      =      -1.5296080440073498 [Eh]
	 Correlation Energy        =      -2.0277787733376496 [Eh]
	 Total Energy              =    -440.5179656657320493 [Eh]

	 ================> DF-SCS-MP2 Energies <==================
	-----------------------------------------------------------
	 SCS Same-Spin Scale       =       0.3333333333333333 [-]
	 SCS Opposite-Spin Scale   =       1.2000000000000000 [-]
	 SCS Same-Spin Energy      =      -0.1660569097767666 [Eh]
	 SCS Opposite-Spin Energy  =      -1.8355296528088196 [Eh]
	 SCS Correlation Energy    =      -2.0015865625855862 [Eh]
	 SCS Total Energy          =    -440.4917734549799775 [Eh]
	-----------------------------------------------------------

  Dipole Moment: [D]
     X:    -0.2931      Y:    -1.3748      Z:    -0.6725     Total:     1.5582

*** Psi4 exiting successfully. Buy a developer a beer!
