                               Psi4 1.3.2 release

  ==> Input File <==

--------------------------------------------------------------------------
#psi4
#
memory 32 gb

molecule  {
0 1
  N        1.7773000    -0.9706020    -0.3863220
  C        0.9685443     0.0704703     0.0174182
  C       -0.4507830     0.0432590     0.0183630
  C        1.8938950     1.0905280     0.4329840
  C       -1.1961700     1.1987140    -0.2700270
  C       -1.1363230    -1.1523850     0.2941990
  C        3.1117900    -0.6733570    -0.2771830
  C        3.2093430     0.6071710     0.2411150
  C       -2.5895110     1.1608830    -0.2689850
  C       -2.5303830    -1.1922690     0.2696200
  C       -3.2626170    -0.0361670    -0.0095020
  H        1.3994420    -1.7974010    -0.8317830
  H        1.6076040     2.0422160     0.8629880
  H       -0.6712930     2.1216380    -0.5070250
  H       -0.5746270    -2.0444360     0.5668450
  H        3.8716190    -1.3816710    -0.5776140
  H        4.1315670     1.1252340     0.4699550
  H       -3.1528190     2.0640850    -0.4925600
  H       -3.0466780    -2.1247140     0.4868240
  H       -4.3493910    -0.0663800    -0.0199320
units angstrom
no_reorient  #important for SAPT in psi4, default
symmetry c1  #important for SAPT in psi4, default
}

set PROPERTIES_ORIGIN ["COM"]
properties('MP2/aug-cc-pvtz', properties = ['dipole'])
--------------------------------------------------------------------------

    Molecular point group: c1
  Charge       = 0
  Multiplicity = 1
  Basis Set: AUG-CC-PVTZ
    Blend: AUG-CC-PVTZ
  Basis Set: (AUG-CC-PVTZ AUX)
    Blend: AUG-CC-PVTZ-JKFIT

    Orbital Energies [Eh]
    ---------------------

    Doubly Occupied:

       1A    -15.611619     2A    -11.264160     3A    -11.257348
       4A    -11.250969     5A    -11.241981     6A    -11.241005
       7A    -11.240289     8A    -11.238309     9A    -11.237757
      10A    -11.218087    11A    -11.214872    12A     -1.293216
      13A     -1.157917    14A     -1.052628    15A     -1.040691
      16A     -1.016918    17A     -0.956992    18A     -0.842467
      19A     -0.833193    20A     -0.787315    21A     -0.763201
      22A     -0.737659    23A     -0.680238    24A     -0.635759
      25A     -0.630775    26A     -0.591831    27A     -0.588977
      28A     -0.586455    29A     -0.568760    30A     -0.544984
      31A     -0.536896    32A     -0.507190    33A     -0.501563
      34A     -0.492826    35A     -0.365025    36A     -0.349656
      37A     -0.341644    38A     -0.267221

  @DF-RHF Final Energy:  -438.50267622312117

   => Energetics <=

    Nuclear Repulsion Energy =            536.8655526985994584
    One-Electron Energy =               -1657.3596732315254485
    Two-Electron Energy =                 681.9914443098048196
    Total Energy =                       -438.5026762231211706
  Basis Set: (AUG-CC-PVTZ AUX)
    Blend: AUG-CC-PVTZ-RI
    Molecular point group: c1

    Geometry (in Angstrom), charge = 0, multiplicity = 1:

       Center              X                  Y                   Z               Mass
    ------------   -----------------  -----------------  -----------------  -----------------
         N            1.775130683550    -0.968846582540    -0.385788692501    14.003074004430
         C            0.966374983550     0.072225717460     0.017951507499    12.000000000000
         C           -0.452952316450     0.045014417460     0.018896307499    12.000000000000
         C            1.891725683550     1.092283417460     0.433517307499    12.000000000000
         C           -1.198339316450     1.200469417460    -0.269493692501    12.000000000000
         C           -1.138492316450    -1.150629582540     0.294732307499    12.000000000000
         C            3.109620683550    -0.671601582540    -0.276649692501    12.000000000000
         C            3.207173683550     0.608926417460     0.241648307499    12.000000000000
         C           -2.591680316450     1.162638417460    -0.268451692501    12.000000000000
         C           -2.532552316450    -1.190513582540     0.270153307499    12.000000000000
         C           -3.264786316450    -0.034411582540    -0.008968692501    12.000000000000
         H            1.397272683550    -1.795645582540    -0.831249692501     1.007825032230
         H            1.605434683550     2.043971417460     0.863521307499     1.007825032230
         H           -0.673462316450     2.123393417460    -0.506491692501     1.007825032230
         H           -0.576796316450    -2.042680582540     0.567378307499     1.007825032230
         H            3.869449683550    -1.379915582540    -0.577080692501     1.007825032230
         H            4.129397683550     1.126989417460     0.470488307499     1.007825032230
         H           -3.154988316450     2.065840417460    -0.492026692501     1.007825032230
         H           -3.048847316450    -2.122958582540     0.487357307499     1.007825032230
         H           -4.351560316450    -0.064624582540    -0.019398692501     1.007825032230

  Basis Set: AUG-CC-PVTZ
    Blend: AUG-CC-PVTZ
  Basis Set: (AUG-CC-PVTZ AUX)
    Blend: AUG-CC-PVTZ-JKFIT
	 Reference Energy          =    -438.5026762231211706 [Eh]
	 Singles Energy            =      -0.0000000000000000 [Eh]
	 Same-Spin Energy          =      -0.4966161210340853 [Eh]
	 Opposite-Spin Energy      =      -1.5272734770937728 [Eh]
	 Correlation Energy        =      -2.0238895981278580 [Eh]
	 Total Energy              =    -440.5265658212490507 [Eh]

	 ================> DF-SCS-MP2 Energies <==================
	-----------------------------------------------------------
	 SCS Same-Spin Scale       =       0.3333333333333333 [-]
	 SCS Opposite-Spin Scale   =       1.2000000000000000 [-]
	 SCS Same-Spin Energy      =      -0.1655387070113618 [Eh]
	 SCS Opposite-Spin Energy  =      -1.8327281725125273 [Eh]
	 SCS Correlation Energy    =      -1.9982668795238889 [Eh]
	 SCS Total Energy          =    -440.5009431026450670 [Eh]
	-----------------------------------------------------------

  Dipole Moment: [D]
     X:    -0.3790      Y:    -1.3489      Z:    -0.6611     Total:     1.5493

*** Psi4 exiting successfully. Buy a developer a beer!
