                               Psi4 1.3.2 release

  ==> Input File <==

--------------------------------------------------------------------------
#psi4
#
memory 32 gb

molecule  {
0 1
  N        1.7773000    -0.9706020    -0.3863220
  C        1.0080060     0.0962300     0.0271750
  C       -0.4507830     0.0432590     0.0183630
  C        1.8938950     1.0905280     0.4329840
  C       -1.1961700     1.1987140    -0.2700270
  C       -1.1363230    -1.1523850     0.2941990
  C        3.1170411    -0.6936536    -0.2887366
  C        3.2093430     0.6071710     0.2411150
  C       -2.5895110     1.1608830    -0.2689850
  C       -2.5303830    -1.1922690     0.2696200
  C       -3.2626170    -0.0361670    -0.0095020
  H        1.3994420    -1.7974010    -0.8317830
  H        1.6076040     2.0422160     0.8629880
  H       -0.6712930     2.1216380    -0.5070250
  H       -0.5746270    -2.0444360     0.5668450
  H        3.8716190    -1.3816710    -0.5776140
  H        4.1315670     1.1252340     0.4699550
  H       -3.1528190     2.0640850    -0.4925600
  H       -3.0466780    -2.1247140     0.4868240
  H       -4.3493910    -0.0663800    -0.0199320
units angstrom
no_reorient  #important for SAPT in psi4, default
symmetry c1  #important for SAPT in psi4, default
}

set PROPERTIES_ORIGIN ["COM"]
properties('MP2/aug-cc-pvtz', properties = ['dipole'])
--------------------------------------------------------------------------

    Molecular point group: c1
  Charge       = 0
  Multiplicity = 1
  Basis Set: AUG-CC-PVTZ
    Blend: AUG-CC-PVTZ
  Basis Set: (AUG-CC-PVTZ AUX)
    Blend: AUG-CC-PVTZ-JKFIT

    Orbital Energies [Eh]
    ---------------------

    Doubly Occupied:

       1A    -15.610067     2A    -11.262422     3A    -11.257530
       4A    -11.253491     5A    -11.242088     6A    -11.240822
       7A    -11.240543     8A    -11.238030     9A    -11.237743
      10A    -11.216213    11A    -11.213827    12A     -1.293524
      13A     -1.156248    14A     -1.049559    15A     -1.040032
      16A     -1.016772    17A     -0.959292    18A     -0.838283
      19A     -0.832248    20A     -0.788455    21A     -0.765455
      22A     -0.736714    23A     -0.681128    24A     -0.635234
      25A     -0.629612    26A     -0.592369    27A     -0.588591
      28A     -0.584926    29A     -0.568947    30A     -0.548145
      31A     -0.537090    32A     -0.504771    33A     -0.500860
      34A     -0.494504    35A     -0.363663    36A     -0.348752
      37A     -0.341428    38A     -0.272052

  @DF-RHF Final Energy:  -438.50716848678451

   => Energetics <=

    Nuclear Repulsion Energy =            536.4728202262849663
    One-Electron Energy =               -1656.5971164727741325
    Two-Electron Energy =                 681.6171277597046583
    Total Energy =                       -438.5071684867845079
  Basis Set: (AUG-CC-PVTZ AUX)
    Blend: AUG-CC-PVTZ-RI
    Molecular point group: c1

    Geometry (in Angstrom), charge = 0, multiplicity = 1:

       Center              X                  Y                   Z               Mass
    ------------   -----------------  -----------------  -----------------  -----------------
         N            1.771380488003    -0.969304788988    -0.385637989540    14.003074004430
         C            1.002086488003     0.097527211012     0.027859010460    12.000000000000
         C           -0.456702511997     0.044556211012     0.019047010460    12.000000000000
         C            1.887975488003     1.091825211012     0.433668010460    12.000000000000
         C           -1.202089511997     1.200011211012    -0.269342989540    12.000000000000
         C           -1.142242511997    -1.151087788988     0.294883010460    12.000000000000
         C            3.111121588003    -0.692356388988    -0.288052589540    12.000000000000
         C            3.203423488003     0.608468211012     0.241799010460    12.000000000000
         C           -2.595430511997     1.162180211012    -0.268300989540    12.000000000000
         C           -2.536302511997    -1.190971788988     0.270304010460    12.000000000000
         C           -3.268536511997    -0.034869788988    -0.008817989540    12.000000000000
         H            1.393522488003    -1.796103788988    -0.831098989540     1.007825032230
         H            1.601684488003     2.043513211012     0.863672010460     1.007825032230
         H           -0.677212511997     2.122935211012    -0.506340989540     1.007825032230
         H           -0.580546511997    -2.043138788988     0.567529010460     1.007825032230
         H            3.865699488003    -1.380373788988    -0.576929989540     1.007825032230
         H            4.125647488003     1.126531211012     0.470639010460     1.007825032230
         H           -3.158738511997     2.065382211012    -0.491875989540     1.007825032230
         H           -3.052597511997    -2.123416788988     0.487508010460     1.007825032230
         H           -4.355310511997    -0.065082788988    -0.019247989540     1.007825032230

  Basis Set: AUG-CC-PVTZ
    Blend: AUG-CC-PVTZ
  Basis Set: (AUG-CC-PVTZ AUX)
    Blend: AUG-CC-PVTZ-JKFIT
	 Reference Energy          =    -438.5071684867845079 [Eh]
	 Singles Energy            =      -0.0000000000000000 [Eh]
	 Same-Spin Energy          =      -0.4955582097036378 [Eh]
	 Opposite-Spin Energy      =      -1.5258927794374384 [Eh]
	 Correlation Energy        =      -2.0214509891410763 [Eh]
	 Total Energy              =    -440.5286194759256091 [Eh]

	 ================> DF-SCS-MP2 Energies <==================
	-----------------------------------------------------------
	 SCS Same-Spin Scale       =       0.3333333333333333 [-]
	 SCS Opposite-Spin Scale   =       1.2000000000000000 [-]
	 SCS Same-Spin Energy      =      -0.1651860699012126 [Eh]
	 SCS Opposite-Spin Energy  =      -1.8310713353249259 [Eh]
	 SCS Correlation Energy    =      -1.9962574052261386 [Eh]
	 SCS Total Energy          =    -440.5034258920106254 [Eh]
	-----------------------------------------------------------

  Dipole Moment: [D]
     X:    -0.4765      Y:    -1.3293      Z:    -0.6480     Total:     1.5538

*** Psi4 exiting successfully. Buy a developer a beer!
