                               Psi4 1.3.2 release

  ==> Input File <==

--------------------------------------------------------------------------
#psi4
#
memory 32 gb

molecule  {
0 1
  N        1.7773000    -0.9706020    -0.3863220
  C        1.0080060     0.0962300     0.0271750
  C       -0.4507830     0.0432590     0.0183630
  C        1.8938950     1.0905280     0.4329840
  C       -1.1961700     1.1987140    -0.2700270
  C       -1.1363230    -1.1523850     0.2941990
  C        3.1000701    -0.6330416    -0.2541791
  C        3.2093430     0.6071710     0.2411150
  C       -2.5895110     1.1608830    -0.2689850
  C       -2.5303830    -1.1922690     0.2696200
  C       -3.2626170    -0.0361670    -0.0095020
  H        1.3994420    -1.7974010    -0.8317830
  H        1.6076040     2.0422160     0.8629880
  H       -0.6712930     2.1216380    -0.5070250
  H       -0.5746270    -2.0444360     0.5668450
  H        3.8716190    -1.3816710    -0.5776140
  H        4.1315670     1.1252340     0.4699550
  H       -3.1528190     2.0640850    -0.4925600
  H       -3.0466780    -2.1247140     0.4868240
  H       -4.3493910    -0.0663800    -0.0199320
units angstrom
no_reorient  #important for SAPT in psi4, default
symmetry c1  #important for SAPT in psi4, default
}

set PROPERTIES_ORIGIN ["COM"]
properties('MP2/aug-cc-pvtz', properties = ['dipole'])
--------------------------------------------------------------------------

    Molecular point group: c1
  Charge       = 0
  Multiplicity = 1
  Basis Set: AUG-CC-PVTZ
    Blend: AUG-CC-PVTZ
  Basis Set: (AUG-CC-PVTZ AUX)
    Blend: AUG-CC-PVTZ-JKFIT

    Orbital Energies [Eh]
    ---------------------

    Doubly Occupied:

       1A    -15.604934     2A    -11.261597     3A    -11.254854
       4A    -11.252740     5A    -11.241897     6A    -11.240555
       7A    -11.240373     8A    -11.237811     9A    -11.237510
      10A    -11.212151    11A    -11.208035    12A     -1.295760
      13A     -1.156018    14A     -1.050149    15A     -1.047319
      16A     -1.016810    17A     -0.959089    18A     -0.837616
      19A     -0.831999    20A     -0.789214    21A     -0.764237
      22A     -0.732415    23A     -0.677879    24A     -0.630008
      25A     -0.629972    26A     -0.598703    27A     -0.589686
      28A     -0.577947    29A     -0.569948    30A     -0.552472
      31A     -0.532583    32A     -0.504110    33A     -0.500726
      34A     -0.494079    35A     -0.363561    36A     -0.353446
      37A     -0.341187    38A     -0.275849

  @DF-RHF Final Energy:  -438.50703657133107

   => Energetics <=

    Nuclear Repulsion Energy =            537.5799782918181791
    One-Electron Energy =               -1658.8435512333417137
    Two-Electron Energy =                 682.7565363701924070
    Total Energy =                       -438.5070365713311276
  Basis Set: (AUG-CC-PVTZ AUX)
    Blend: AUG-CC-PVTZ-RI
    Molecular point group: c1

    Geometry (in Angstrom), charge = 0, multiplicity = 1:

       Center              X                  Y                   Z               Mass
    ------------   -----------------  -----------------  -----------------  -----------------
         N            1.772803896258    -0.974388497737    -0.388536429867    14.003074004430
         C            1.003509896258     0.092443502263     0.024960570133    12.000000000000
         C           -0.455279103742     0.039472502263     0.016148570133    12.000000000000
         C            1.889398896258     1.086741502263     0.430769570133    12.000000000000
         C           -1.200666103742     1.194927502263    -0.272241429867    12.000000000000
         C           -1.140819103742    -1.156171497737     0.291984570133    12.000000000000
         C            3.095573996258    -0.636828097737    -0.256393529867    12.000000000000
         C            3.204846896258     0.603384502263     0.238900570133    12.000000000000
         C           -2.594007103742     1.157096502263    -0.271199429867    12.000000000000
         C           -2.534879103742    -1.196055497737     0.267405570133    12.000000000000
         C           -3.267113103742    -0.039953497737    -0.011716429867    12.000000000000
         H            1.394945896258    -1.801187497737    -0.833997429867     1.007825032230
         H            1.603107896258     2.038429502263     0.860773570133     1.007825032230
         H           -0.675789103742     2.117851502263    -0.509239429867     1.007825032230
         H           -0.579123103742    -2.048222497737     0.564630570133     1.007825032230
         H            3.867122896258    -1.385457497737    -0.579828429867     1.007825032230
         H            4.127070896258     1.121447502263     0.467740570133     1.007825032230
         H           -3.157315103742     2.060298502263    -0.494774429867     1.007825032230
         H           -3.051174103742    -2.128500497737     0.484609570133     1.007825032230
         H           -4.353887103742    -0.070166497737    -0.022146429867     1.007825032230

  Basis Set: AUG-CC-PVTZ
    Blend: AUG-CC-PVTZ
  Basis Set: (AUG-CC-PVTZ AUX)
    Blend: AUG-CC-PVTZ-JKFIT
	 Reference Energy          =    -438.5070365713310707 [Eh]
	 Singles Energy            =      -0.0000000000000000 [Eh]
	 Same-Spin Energy          =      -0.4947408390432668 [Eh]
	 Opposite-Spin Energy      =      -1.5244935395182400 [Eh]
	 Correlation Energy        =      -2.0192343785615066 [Eh]
	 Total Energy              =    -440.5262709498925915 [Eh]

	 ================> DF-SCS-MP2 Energies <==================
	-----------------------------------------------------------
	 SCS Same-Spin Scale       =       0.3333333333333333 [-]
	 SCS Opposite-Spin Scale   =       1.2000000000000000 [-]
	 SCS Same-Spin Energy      =      -0.1649136130144223 [Eh]
	 SCS Opposite-Spin Energy  =      -1.8293922474218878 [Eh]
	 SCS Correlation Energy    =      -1.9943058604363100 [Eh]
	 SCS Total Energy          =    -440.5013424317673980 [Eh]
	-----------------------------------------------------------

  Dipole Moment: [D]
     X:    -0.4085      Y:    -1.2883      Z:    -0.6413     Total:     1.4960

*** Psi4 exiting successfully. Buy a developer a beer!
