                               Psi4 1.3.2 release

  ==> Input File <==

--------------------------------------------------------------------------
#psi4
#
memory 32 gb

molecule  {
0 1
  N        1.7773000    -0.9706020    -0.3863220
  C        1.0080060     0.0962300     0.0271750
  C       -0.4507830     0.0432590     0.0183630
  C        1.8938950     1.0905280     0.4329840
  C       -1.1961700     1.1987140    -0.2700270
  C       -1.1363230    -1.1523850     0.2941990
  C        3.1117900    -0.6733570    -0.2771830
  C        3.2093430     0.6071710     0.2411150
  C       -2.5895110     1.1608830    -0.2689850
  C       -2.5303830    -1.1922690     0.2696200
  C       -3.2626170    -0.0361670    -0.0095020
  H        1.3994420    -1.7974010    -0.8317830
  H        1.6076040     2.0422160     0.8629880
  H       -0.6712930     2.1216380    -0.5070250
  H       -0.5746270    -2.0444360     0.5668450
  H        4.0121530    -1.5126771    -0.6331802
  H        4.1315670     1.1252340     0.4699550
  H       -3.1528190     2.0640850    -0.4925600
  H       -3.0466780    -2.1247140     0.4868240
  H       -4.3493910    -0.0663800    -0.0199320
units angstrom
no_reorient  #important for SAPT in psi4, default
symmetry c1  #important for SAPT in psi4, default
}

set PROPERTIES_ORIGIN ["COM"]
properties('MP2/aug-cc-pvtz', properties = ['dipole'])
--------------------------------------------------------------------------

    Molecular point group: c1
  Charge       = 0
  Multiplicity = 1
  Basis Set: AUG-CC-PVTZ
    Blend: AUG-CC-PVTZ
  Basis Set: (AUG-CC-PVTZ AUX)
    Blend: AUG-CC-PVTZ-JKFIT

    Orbital Energies [Eh]
    ---------------------

    Doubly Occupied:

       1A    -15.610179     2A    -11.277394     3A    -11.263052
       4A    -11.253769     5A    -11.242330     6A    -11.241054
       7A    -11.240823     8A    -11.238309     9A    -11.238015
      10A    -11.215563    11A    -11.214288    12A     -1.295395
      13A     -1.156495    14A     -1.049179    15A     -1.043634
      16A     -1.017160    17A     -0.954537    18A     -0.835125
      19A     -0.832279    20A     -0.789100    21A     -0.761998
      22A     -0.725728    23A     -0.673371    24A     -0.630188
      25A     -0.626101    26A     -0.594609    27A     -0.589509
      28A     -0.573283    29A     -0.568879    30A     -0.550647
      31A     -0.521859    32A     -0.504039    33A     -0.501225
      34A     -0.494517    35A     -0.364035    36A     -0.351486
      37A     -0.341665    38A     -0.274077

  @DF-RHF Final Energy:  -438.48578142189706

   => Energetics <=

    Nuclear Repulsion Energy =            535.9040246045586855
    One-Electron Energy =               -1655.4698248204711035
    Two-Electron Energy =                 681.0800187940154728
    Total Energy =                       -438.4857814218970589
  Basis Set: (AUG-CC-PVTZ AUX)
    Blend: AUG-CC-PVTZ-RI
    Molecular point group: c1

    Geometry (in Angstrom), charge = 0, multiplicity = 1:

       Center              X                  Y                   Z               Mass
    ------------   -----------------  -----------------  -----------------  -----------------
         N            1.770830976853    -0.970084304228    -0.386215610085    14.003074004430
         C            1.001536976853     0.096747695772     0.027281389915    12.000000000000
         C           -0.457252023147     0.043776695772     0.018469389915    12.000000000000
         C            1.887425976853     1.091045695772     0.433090389915    12.000000000000
         C           -1.202639023147     1.199231695772    -0.269920610085    12.000000000000
         C           -1.142792023147    -1.151867304228     0.294305389915    12.000000000000
         C            3.105320976853    -0.672839304228    -0.277076610085    12.000000000000
         C            3.202873976853     0.607688695772     0.241221389915    12.000000000000
         C           -2.595980023147     1.161400695772    -0.268878610085    12.000000000000
         C           -2.536852023147    -1.191751304228     0.269726389915    12.000000000000
         C           -3.269086023147    -0.035649304228    -0.009395610085    12.000000000000
         H            1.392972976853    -1.796883304228    -0.831676610085     1.007825032230
         H            1.601134976853     2.042733695772     0.863094389915     1.007825032230
         H           -0.677762023147     2.122155695772    -0.506918610085     1.007825032230
         H           -0.581096023147    -2.043918304228     0.566951389915     1.007825032230
         H            4.005683976853    -1.512159404228    -0.633073810085     1.007825032230
         H            4.125097976853     1.125751695772     0.470061389915     1.007825032230
         H           -3.159288023147     2.064602695772    -0.492453610085     1.007825032230
         H           -3.053147023147    -2.124196304228     0.486930389915     1.007825032230
         H           -4.355860023147    -0.065862304228    -0.019825610085     1.007825032230

  Basis Set: AUG-CC-PVTZ
    Blend: AUG-CC-PVTZ
  Basis Set: (AUG-CC-PVTZ AUX)
    Blend: AUG-CC-PVTZ-JKFIT
	 Reference Energy          =    -438.4857814218970589 [Eh]
	 Singles Energy            =      -0.0000000000000000 [Eh]
	 Same-Spin Energy          =      -0.4957755476850134 [Eh]
	 Opposite-Spin Energy      =      -1.5275897938068153 [Eh]
	 Correlation Energy        =      -2.0233653414918287 [Eh]
	 Total Energy              =    -440.5091467633889124 [Eh]

	 ================> DF-SCS-MP2 Energies <==================
	-----------------------------------------------------------
	 SCS Same-Spin Scale       =       0.3333333333333333 [-]
	 SCS Opposite-Spin Scale   =       1.2000000000000000 [-]
	 SCS Same-Spin Energy      =      -0.1652585158950045 [Eh]
	 SCS Opposite-Spin Energy  =      -1.8331077525681783 [Eh]
	 SCS Correlation Energy    =      -1.9983662684631827 [Eh]
	 SCS Total Energy          =    -440.4841476903602597 [Eh]
	-----------------------------------------------------------

  Dipole Moment: [D]
     X:    -0.4891      Y:    -1.2939      Z:    -0.6366     Total:     1.5227

*** Psi4 exiting successfully. Buy a developer a beer!
