                               Psi4 1.4a3.dev225

  ==> Input File <==

--------------------------------------------------------------------------
#psi4
#
memory 32 gb

molecule  {
0 1
  N        1.7773000    -0.9706020    -0.3863220
  C        1.0191654     0.0807545     0.0211768
  C       -0.4507830     0.0432590     0.0183630
  C        1.8938950     1.0905280     0.4329840
  C       -1.1961700     1.1987140    -0.2700270
  C       -1.1363230    -1.1523850     0.2941990
  C        3.1117900    -0.6733570    -0.2771830
  C        3.2093430     0.6071710     0.2411150
  C       -2.5895110     1.1608830    -0.2689850
  C       -2.5303830    -1.1922690     0.2696200
  C       -3.2626170    -0.0361670    -0.0095020
  H        1.3994420    -1.7974010    -0.8317830
  H        1.6076040     2.0422160     0.8629880
  H       -0.6712930     2.1216380    -0.5070250
  H       -0.5746270    -2.0444360     0.5668450
  H        3.8716190    -1.3816710    -0.5776140
  H        4.1315670     1.1252340     0.4699550
  H       -3.1528190     2.0640850    -0.4925600
  H       -3.0466780    -2.1247140     0.4868240
  H       -4.3493910    -0.0663800    -0.0199320
units angstrom
no_reorient  #important for SAPT in psi4, default
symmetry c1  #important for SAPT in psi4, default
}

set PROPERTIES_ORIGIN ["COM"]
properties('MP2/aug-cc-pvtz', properties = ['dipole'])
--------------------------------------------------------------------------

    Molecular point group: c1
  Charge       = 0
  Multiplicity = 1
  Basis Set: AUG-CC-PVTZ
    Blend: AUG-CC-PVTZ
  Basis Set: (AUG-CC-PVTZ AUX)
    Blend: AUG-CC-PVTZ-JKFIT

    Orbital Energies [Eh]
    ---------------------

    Doubly Occupied:

       1A    -15.609762     2A    -11.262252     3A    -11.254951
       4A    -11.253920     5A    -11.241993     6A    -11.240860
       7A    -11.240417     8A    -11.238128     9A    -11.237796
      10A    -11.213949    11A    -11.212060    12A     -1.300008
      13A     -1.155875    14A     -1.047412    15A     -1.043655
      16A     -1.016847    17A     -0.959536    18A     -0.836530
      19A     -0.832138    20A     -0.790460    21A     -0.766966
      22A     -0.734974    23A     -0.679832    24A     -0.633116
      25A     -0.629490    26A     -0.595166    27A     -0.589372
      28A     -0.584103    29A     -0.570994    30A     -0.549600
      31A     -0.535884    32A     -0.504946    33A     -0.499695
      34A     -0.493827    35A     -0.361988    36A     -0.350880
      37A     -0.341382    38A     -0.273289

  @DF-RHF Final Energy:  -438.50891339241116

   => Energetics <=

    Nuclear Repulsion Energy =            536.9082451922465680
    One-Electron Energy =               -1657.4662106397661319
    Two-Electron Energy =                 682.0490520551084046
    Total Energy =                       -438.5089133924111593
  Basis Set: (AUG-CC-PVTZ AUX)
    Blend: AUG-CC-PVTZ-RI
    Molecular point group: c1

    Geometry (in Angstrom), charge = 0, multiplicity = 1:

       Center              X                  Y                   Z               Mass
    ------------   -----------------  -----------------  -----------------  -----------------
         N            1.770884941306    -0.969709148987    -0.386103937464    14.003074004430
         C            1.012750341306     0.081647351013     0.021394862536    12.000000000000
         C           -0.457198058694     0.044151851013     0.018581062536    12.000000000000
         C            1.887479941306     1.091420851013     0.433202062536    12.000000000000
         C           -1.202585058694     1.199606851013    -0.269808937464    12.000000000000
         C           -1.142738058694    -1.151492148987     0.294417062536    12.000000000000
         C            3.105374941306    -0.672464148987    -0.276964937464    12.000000000000
         C            3.202927941306     0.608063851013     0.241333062536    12.000000000000
         C           -2.595926058694     1.161775851013    -0.268766937464    12.000000000000
         C           -2.536798058694    -1.191376148987     0.269838062536    12.000000000000
         C           -3.269032058694    -0.035274148987    -0.009283937464    12.000000000000
         H            1.393026941306    -1.796508148987    -0.831564937464     1.007825032230
         H            1.601188941306     2.043108851013     0.863206062536     1.007825032230
         H           -0.677708058694     2.122530851013    -0.506806937464     1.007825032230
         H           -0.581042058694    -2.043543148987     0.567063062536     1.007825032230
         H            3.865203941306    -1.380778148987    -0.577395937464     1.007825032230
         H            4.125151941306     1.126126851013     0.470173062536     1.007825032230
         H           -3.159234058694     2.064977851013    -0.492341937464     1.007825032230
         H           -3.053093058694    -2.123821148987     0.487042062536     1.007825032230
         H           -4.355806058694    -0.065487148987    -0.019713937464     1.007825032230

  Basis Set: AUG-CC-PVTZ
    Blend: AUG-CC-PVTZ
  Basis Set: (AUG-CC-PVTZ AUX)
    Blend: AUG-CC-PVTZ-JKFIT
	 Reference Energy          =    -438.5089133924111593 [Eh]
	 Singles Energy            =      -0.0000000000000000 [Eh]
	 Same-Spin Energy          =      -0.4951863001980364 [Eh]
	 Opposite-Spin Energy      =      -1.5250172097410408 [Eh]
	 Correlation Energy        =      -2.0202035099390772 [Eh]
	 Total Energy              =    -440.5291169023502107 [Eh]

	 ================> DF-SCS-MP2 Energies <==================
	-----------------------------------------------------------
	 SCS Same-Spin Scale       =       0.3333333333333333 [-]
	 SCS Opposite-Spin Scale   =       1.2000000000000000 [-]
	 SCS Same-Spin Energy      =      -0.1650621000660121 [Eh]
	 SCS Opposite-Spin Energy  =      -1.8300206516892490 [Eh]
	 SCS Correlation Energy    =      -1.9950827517552612 [Eh]
	 SCS Total Energy          =    -440.5039961441664218 [Eh]
	-----------------------------------------------------------

  Dipole Moment: [D]
     X:    -0.4552      Y:    -1.3409      Z:    -0.6592     Total:     1.5620

*** Psi4 exiting successfully. Buy a developer a beer!
