                               Psi4 1.4a3.dev225

  ==> Input File <==

--------------------------------------------------------------------------
#psi4
#
memory 32 gb

molecule  {
0 1
  N        1.7773000    -0.9706020    -0.3863220
  C        1.0080060     0.0962300     0.0271750
  C       -0.4507830     0.0432590     0.0183630
  C        1.8938950     1.0905280     0.4329840
  C       -1.1961700     1.1987140    -0.2700270
  C       -1.1363230    -1.1523850     0.2941990
  C        3.1312497    -0.6690225    -0.2755915
  C        3.2093430     0.6071710     0.2411150
  C       -2.5895110     1.1608830    -0.2689850
  C       -2.5303830    -1.1922690     0.2696200
  C       -3.2626170    -0.0361670    -0.0095020
  H        1.3994420    -1.7974010    -0.8317830
  H        1.6076040     2.0422160     0.8629880
  H       -0.6712930     2.1216380    -0.5070250
  H       -0.5746270    -2.0444360     0.5668450
  H        3.8716190    -1.3816710    -0.5776140
  H        4.1315670     1.1252340     0.4699550
  H       -3.1528190     2.0640850    -0.4925600
  H       -3.0466780    -2.1247140     0.4868240
  H       -4.3493910    -0.0663800    -0.0199320
units angstrom
no_reorient  #important for SAPT in psi4, default
symmetry c1  #important for SAPT in psi4, default
}

set PROPERTIES_ORIGIN ["COM"]
properties('MP2/aug-cc-pvtz', properties = ['dipole'])
--------------------------------------------------------------------------

    Molecular point group: c1
  Charge       = 0
  Multiplicity = 1
  Basis Set: AUG-CC-PVTZ
    Blend: AUG-CC-PVTZ
  Basis Set: (AUG-CC-PVTZ AUX)
    Blend: AUG-CC-PVTZ-JKFIT

    Orbital Energies [Eh]
    ---------------------

    Doubly Occupied:

       1A    -15.606555     2A    -11.263562     3A    -11.256056
       4A    -11.253444     5A    -11.242283     6A    -11.241020
       7A    -11.240838     8A    -11.238434     9A    -11.238138
      10A    -11.214435    11A    -11.212515    12A     -1.288450
      13A     -1.156314    14A     -1.047884    15A     -1.043229
      16A     -1.017056    17A     -0.959599    18A     -0.838812
      19A     -0.832321    20A     -0.786857    21A     -0.763837
      22A     -0.735587    23A     -0.679956    24A     -0.633289
      25A     -0.629592    26A     -0.592912    27A     -0.587718
      28A     -0.583152    29A     -0.566810    30A     -0.548310
      31A     -0.540096    32A     -0.504644    33A     -0.501066
      34A     -0.494628    35A     -0.362948    36A     -0.350477
      37A     -0.341585    38A     -0.274486

  @DF-RHF Final Energy:  -438.50829988561617

   => Energetics <=

    Nuclear Repulsion Energy =            536.4939209969093099
    One-Electron Energy =               -1656.6666550056424967
    Two-Electron Energy =                 681.6644341231169619
    Total Energy =                       -438.5082998856162249
  Basis Set: (AUG-CC-PVTZ AUX)
    Blend: AUG-CC-PVTZ-RI
    Molecular point group: c1

    Geometry (in Angstrom), charge = 0, multiplicity = 1:

       Center              X                  Y                   Z               Mass
    ------------   -----------------  -----------------  -----------------  -----------------
         N            1.770188770453    -0.971370672618    -0.386740508181    14.003074004430
         C            1.000894770453     0.095461327382     0.026756491819    12.000000000000
         C           -0.457894229547     0.042490327382     0.017944491819    12.000000000000
         C            1.886783770453     1.089759327382     0.432565491819    12.000000000000
         C           -1.203281229547     1.197945327382    -0.270445508181    12.000000000000
         C           -1.143434229547    -1.153153672618     0.293780491819    12.000000000000
         C            3.124138470453    -0.669791172618    -0.276010008181    12.000000000000
         C            3.202231770453     0.606402327382     0.240696491819    12.000000000000
         C           -2.596622229547     1.160114327382    -0.269403508181    12.000000000000
         C           -2.537494229547    -1.193037672618     0.269201491819    12.000000000000
         C           -3.269728229547    -0.036935672618    -0.009920508181    12.000000000000
         H            1.392330770453    -1.798169672618    -0.832201508181     1.007825032230
         H            1.600492770453     2.041447327382     0.862569491819     1.007825032230
         H           -0.678404229547     2.120869327382    -0.507443508181     1.007825032230
         H           -0.581738229547    -2.045204672618     0.566426491819     1.007825032230
         H            3.864507770453    -1.382439672618    -0.578032508181     1.007825032230
         H            4.124455770453     1.124465327382     0.469536491819     1.007825032230
         H           -3.159930229547     2.063316327382    -0.492978508181     1.007825032230
         H           -3.053789229547    -2.125482672618     0.486405491819     1.007825032230
         H           -4.356502229547    -0.067148672618    -0.020350508181     1.007825032230

  Basis Set: AUG-CC-PVTZ
    Blend: AUG-CC-PVTZ
  Basis Set: (AUG-CC-PVTZ AUX)
    Blend: AUG-CC-PVTZ-JKFIT
	 Reference Energy          =    -438.5082998856161680 [Eh]
	 Singles Energy            =      -0.0000000000000000 [Eh]
	 Same-Spin Energy          =      -0.4951323883470526 [Eh]
	 Opposite-Spin Energy      =      -1.5254773741894341 [Eh]
	 Correlation Energy        =      -2.0206097625364867 [Eh]
	 Total Energy              =    -440.5289096481526485 [Eh]

	 ================> DF-SCS-MP2 Energies <==================
	-----------------------------------------------------------
	 SCS Same-Spin Scale       =       0.3333333333333333 [-]
	 SCS Opposite-Spin Scale   =       1.2000000000000000 [-]
	 SCS Same-Spin Energy      =      -0.1650441294490175 [Eh]
	 SCS Opposite-Spin Energy  =      -1.8305728490273208 [Eh]
	 SCS Correlation Energy    =      -1.9956169784763382 [Eh]
	 SCS Total Energy          =    -440.5039168640925027 [Eh]
	-----------------------------------------------------------

  Dipole Moment: [D]
     X:    -0.4579      Y:    -1.2971      Z:    -0.6385     Total:     1.5165

*** Psi4 exiting successfully. Buy a developer a beer!
