                               Psi4 1.3.2 release

  ==> Input File <==

--------------------------------------------------------------------------
#psi4
#
memory 32 gb

molecule  {
0 1
  N        1.7773000    -0.9706020    -0.3863220
  C        1.0080060     0.0962300     0.0271750
  C       -0.4507830     0.0432590     0.0183630
  C        1.8938950     1.0905280     0.4329840
  C       -1.1961700     1.1987140    -0.2700270
  C       -1.1363230    -1.1523850     0.2941990
  C        3.1117900    -0.6733570    -0.2771830
  C        3.2093430     0.6071710     0.2411150
  C       -2.5895110     1.1608830    -0.2689850
  C       -2.5303830    -1.1922690     0.2696200
  C       -3.2626170    -0.0361670    -0.0095020
  H        1.3994420    -1.7974010    -0.8317830
  H        1.6076040     2.0422160     0.8629880
  H       -0.6712930     2.1216380    -0.5070250
  H       -0.5746270    -2.0444360     0.5668450
  H        3.8716190    -1.3816710    -0.5776140
  H        3.9611390     1.0294954     0.4276651
  H       -3.1528190     2.0640850    -0.4925600
  H       -3.0466780    -2.1247140     0.4868240
  H       -4.3493910    -0.0663800    -0.0199320
units angstrom
no_reorient  #important for SAPT in psi4, default
symmetry c1  #important for SAPT in psi4, default
}

set PROPERTIES_ORIGIN ["COM"]
properties('MP2/aug-cc-pvtz', properties = ['dipole'])
--------------------------------------------------------------------------

    Molecular point group: c1
  Charge       = 0
  Multiplicity = 1
  Basis Set: AUG-CC-PVTZ
    Blend: AUG-CC-PVTZ
  Basis Set: (AUG-CC-PVTZ AUX)
    Blend: AUG-CC-PVTZ-JKFIT

    Orbital Energies [Eh]
    ---------------------

    Doubly Occupied:

       1A    -15.607603     2A    -11.261143     3A    -11.255856
       4A    -11.252744     5A    -11.241692     6A    -11.240414
       7A    -11.240105     8A    -11.237583     9A    -11.237317
      10A    -11.212005    11A    -11.189852    12A     -1.293296
      13A     -1.155798    14A     -1.050484    15A     -1.047163
      16A     -1.016709    17A     -0.961111    18A     -0.838467
      19A     -0.834886    20A     -0.811451    21A     -0.770502
      22A     -0.735867    23A     -0.680531    24A     -0.633108
      25A     -0.629905    26A     -0.612342    27A     -0.589884
      28A     -0.582411    29A     -0.568733    30A     -0.561889
      31A     -0.535958    32A     -0.504213    33A     -0.501222
      34A     -0.494387    35A     -0.362967    36A     -0.349745
      37A     -0.341031    38A     -0.272834

  @DF-RHF Final Energy:  -438.47278791856104

   => Energetics <=

    Nuclear Repulsion Energy =            538.0011832216501944
    One-Electron Energy =               -1659.5215288650197181
    Two-Electron Energy =                 683.0475577248085983
    Total Energy =                       -438.4727879185610391
  Basis Set: (AUG-CC-PVTZ AUX)
    Blend: AUG-CC-PVTZ-RI
    Molecular point group: c1

    Geometry (in Angstrom), charge = 0, multiplicity = 1:

       Center              X                  Y                   Z               Mass
    ------------   -----------------  -----------------  -----------------  -----------------
         N            1.773021426442    -0.970332732270    -0.386309129763    14.003074004430
         C            1.003727426442     0.096499267730     0.027187870237    12.000000000000
         C           -0.455061573558     0.043528267730     0.018375870237    12.000000000000
         C            1.889616426442     1.090797267730     0.432996870237    12.000000000000
         C           -1.200448573558     1.198983267730    -0.270014129763    12.000000000000
         C           -1.140601573558    -1.152115732270     0.294211870237    12.000000000000
         C            3.107511426442    -0.673087732270    -0.277170129763    12.000000000000
         C            3.205064426442     0.607440267730     0.241127870237    12.000000000000
         C           -2.593789573558     1.161152267730    -0.268972129763    12.000000000000
         C           -2.534661573558    -1.191999732270     0.269632870237    12.000000000000
         C           -3.266895573558    -0.035897732270    -0.009489129763    12.000000000000
         H            1.395163426442    -1.797131732270    -0.831770129763     1.007825032230
         H            1.603325426442     2.042485267730     0.863000870237     1.007825032230
         H           -0.675571573558     2.121907267730    -0.507012129763     1.007825032230
         H           -0.578905573558    -2.044166732270     0.566857870237     1.007825032230
         H            3.867340426442    -1.381401732270    -0.577601129763     1.007825032230
         H            3.956860426442     1.029764667730     0.427677970237     1.007825032230
         H           -3.157097573558     2.064354267730    -0.492547129763     1.007825032230
         H           -3.050956573558    -2.124444732270     0.486836870237     1.007825032230
         H           -4.353669573558    -0.066110732270    -0.019919129763     1.007825032230

  Basis Set: AUG-CC-PVTZ
    Blend: AUG-CC-PVTZ
  Basis Set: (AUG-CC-PVTZ AUX)
    Blend: AUG-CC-PVTZ-JKFIT
	 Reference Energy          =    -438.4727879185610391 [Eh]
	 Singles Energy            =      -0.0000000000000000 [Eh]
	 Same-Spin Energy          =      -0.4951329116291235 [Eh]
	 Opposite-Spin Energy      =      -1.5249157741295343 [Eh]
	 Correlation Energy        =      -2.0200486857586579 [Eh]
	 Total Energy              =    -440.4928366043196775 [Eh]

	 ================> DF-SCS-MP2 Energies <==================
	-----------------------------------------------------------
	 SCS Same-Spin Scale       =       0.3333333333333333 [-]
	 SCS Opposite-Spin Scale   =       1.2000000000000000 [-]
	 SCS Same-Spin Energy      =      -0.1650443038763745 [Eh]
	 SCS Opposite-Spin Energy  =      -1.8298989289554410 [Eh]
	 SCS Correlation Energy    =      -1.9949432328318155 [Eh]
	 SCS Total Energy          =    -440.4677311513928544 [Eh]
	-----------------------------------------------------------

  Dipole Moment: [D]
     X:    -0.4177      Y:    -1.3212      Z:    -0.6487     Total:     1.5300

*** Psi4 exiting successfully. Buy a developer a beer!
