                               Psi4 1.3.2 release

  ==> Input File <==

--------------------------------------------------------------------------
#psi4
#
memory 32 gb

molecule  {
0 1
  N        1.7773000    -0.9706020    -0.3863220
  C        1.0080060     0.0962300     0.0271750
  C       -0.4507830     0.0432590     0.0183630
  C        1.8938950     1.0905280     0.4329840
  C       -1.1961700     1.1987140    -0.2700270
  C       -1.1363230    -1.1523850     0.2941990
  C        3.1117900    -0.6733570    -0.2771830
  C        3.2182044     0.6280387     0.2508870
  C       -2.5895110     1.1608830    -0.2689850
  C       -2.5303830    -1.1922690     0.2696200
  C       -3.2626170    -0.0361670    -0.0095020
  H        1.3994420    -1.7974010    -0.8317830
  H        1.6076040     2.0422160     0.8629880
  H       -0.6712930     2.1216380    -0.5070250
  H       -0.5746270    -2.0444360     0.5668450
  H        3.8716190    -1.3816710    -0.5776140
  H        4.1315670     1.1252340     0.4699550
  H       -3.1528190     2.0640850    -0.4925600
  H       -3.0466780    -2.1247140     0.4868240
  H       -4.3493910    -0.0663800    -0.0199320
units angstrom
no_reorient  #important for SAPT in psi4, default
symmetry c1  #important for SAPT in psi4, default
}

set PROPERTIES_ORIGIN ["COM"]
properties('MP2/aug-cc-pvtz', properties = ['dipole'])
--------------------------------------------------------------------------

    Molecular point group: c1
  Charge       = 0
  Multiplicity = 1
  Basis Set: AUG-CC-PVTZ
    Blend: AUG-CC-PVTZ
  Basis Set: (AUG-CC-PVTZ AUX)
    Blend: AUG-CC-PVTZ-JKFIT

    Orbital Energies [Eh]
    ---------------------

    Doubly Occupied:

       1A    -15.610360     2A    -11.261730     3A    -11.260008
       4A    -11.253337     5A    -11.241945     6A    -11.240622
       7A    -11.240370     8A    -11.237735     9A    -11.237473
      10A    -11.215241    11A    -11.213987    12A     -1.293590
      13A     -1.156013    14A     -1.049148    15A     -1.041461
      16A     -1.016666    17A     -0.957676    18A     -0.837150
      19A     -0.832322    20A     -0.791563    21A     -0.765759
      22A     -0.735055    23A     -0.679765    24A     -0.633236
      25A     -0.629703    26A     -0.595459    27A     -0.589398
      28A     -0.582605    29A     -0.568936    30A     -0.553113
      31A     -0.532594    32A     -0.504437    33A     -0.501276
      34A     -0.494555    35A     -0.363404    36A     -0.349840
      37A     -0.341265    38A     -0.271462

  @DF-RHF Final Energy:  -438.50720106444919

   => Energetics <=

    Nuclear Repulsion Energy =            536.4231675978875273
    One-Electron Energy =               -1656.5002243531691875
    Two-Electron Energy =                 681.5698556908325827
    Total Energy =                       -438.5072010644491911
  Basis Set: (AUG-CC-PVTZ AUX)
    Blend: AUG-CC-PVTZ-RI
    Molecular point group: c1

    Geometry (in Angstrom), charge = 0, multiplicity = 1:

       Center              X                  Y                   Z               Mass
    ------------   -----------------  -----------------  -----------------  -----------------
         N            1.771077681402    -0.972757361285    -0.387426631051    14.003074004430
         C            1.001783681402     0.094074638715     0.026070368949    12.000000000000
         C           -0.457005318598     0.041103638715     0.017258368949    12.000000000000
         C            1.887672681402     1.088372638715     0.431879368949    12.000000000000
         C           -1.202392318598     1.196558638715    -0.271131631051    12.000000000000
         C           -1.142545318598    -1.154540361285     0.293094368949    12.000000000000
         C            3.105567681402    -0.675512361285    -0.278287631051    12.000000000000
         C            3.211982081402     0.625883338715     0.249782368949    12.000000000000
         C           -2.595733318598     1.158727638715    -0.270089631051    12.000000000000
         C           -2.536605318598    -1.194424361285     0.268515368949    12.000000000000
         C           -3.268839318598    -0.038322361285    -0.010606631051    12.000000000000
         H            1.393219681402    -1.799556361285    -0.832887631051     1.007825032230
         H            1.601381681402     2.040060638715     0.861883368949     1.007825032230
         H           -0.677515318598     2.119482638715    -0.508129631051     1.007825032230
         H           -0.580849318598    -2.046591361285     0.565740368949     1.007825032230
         H            3.865396681402    -1.383826361285    -0.578718631051     1.007825032230
         H            4.125344681402     1.123078638715     0.468850368949     1.007825032230
         H           -3.159041318598     2.061929638715    -0.493664631051     1.007825032230
         H           -3.052900318598    -2.126869361285     0.485719368949     1.007825032230
         H           -4.355613318598    -0.068535361285    -0.021036631051     1.007825032230

  Basis Set: AUG-CC-PVTZ
    Blend: AUG-CC-PVTZ
  Basis Set: (AUG-CC-PVTZ AUX)
    Blend: AUG-CC-PVTZ-JKFIT
	 Reference Energy          =    -438.5072010644491911 [Eh]
	 Singles Energy            =      -0.0000000000000000 [Eh]
	 Same-Spin Energy          =      -0.4955260723308098 [Eh]
	 Opposite-Spin Energy      =      -1.5258872202167024 [Eh]
	 Correlation Energy        =      -2.0214132925475123 [Eh]
	 Total Energy              =    -440.5286143569966839 [Eh]

	 ================> DF-SCS-MP2 Energies <==================
	-----------------------------------------------------------
	 SCS Same-Spin Scale       =       0.3333333333333333 [-]
	 SCS Opposite-Spin Scale   =       1.2000000000000000 [-]
	 SCS Same-Spin Energy      =      -0.1651753574436032 [Eh]
	 SCS Opposite-Spin Energy  =      -1.8310646642600428 [Eh]
	 SCS Correlation Energy    =      -1.9962400217036460 [Eh]
	 SCS Total Energy          =    -440.5034410861528613 [Eh]
	-----------------------------------------------------------

  Dipole Moment: [D]
     X:    -0.4535      Y:    -1.3233      Z:    -0.6509     Total:     1.5429

*** Psi4 exiting successfully. Buy a developer a beer!
