                               Psi4 1.3.2 release

  ==> Input File <==

--------------------------------------------------------------------------
#psi4
#
memory 32 gb

molecule  {
0 1
  N        1.7773000    -0.9706020    -0.3863220
  C        1.0480207     0.1179642     0.0427453
  C       -0.4507830     0.0432590     0.0183630
  C        1.8938950     1.0905280     0.4329840
  C       -1.1961700     1.1987140    -0.2700270
  C       -1.1363230    -1.1523850     0.2941990
  C        3.1117900    -0.6733570    -0.2771830
  C        3.2093430     0.6071710     0.2411150
  C       -2.5895110     1.1608830    -0.2689850
  C       -2.5303830    -1.1922690     0.2696200
  C       -3.2626170    -0.0361670    -0.0095020
  H        1.3994420    -1.7974010    -0.8317830
  H        1.6076040     2.0422160     0.8629880
  H       -0.6712930     2.1216380    -0.5070250
  H       -0.5746270    -2.0444360     0.5668450
  H        3.8716190    -1.3816710    -0.5776140
  H        4.1315670     1.1252340     0.4699550
  H       -3.1528190     2.0640850    -0.4925600
  H       -3.0466780    -2.1247140     0.4868240
  H       -4.3493910    -0.0663800    -0.0199320
units angstrom
no_reorient  #important for SAPT in psi4, default
symmetry c1  #important for SAPT in psi4, default
}

set PROPERTIES_ORIGIN ["COM"]
properties('MP2/aug-cc-pvtz', properties = ['dipole'])
--------------------------------------------------------------------------

    Molecular point group: c1
  Charge       = 0
  Multiplicity = 1
  Basis Set: AUG-CC-PVTZ
    Blend: AUG-CC-PVTZ
  Basis Set: (AUG-CC-PVTZ AUX)
    Blend: AUG-CC-PVTZ-JKFIT

    Orbital Energies [Eh]
    ---------------------

    Doubly Occupied:

       1A    -15.605159     2A    -11.259963     3A    -11.256045
       4A    -11.255077     5A    -11.241930     6A    -11.240555
       7A    -11.240328     8A    -11.237712     9A    -11.237276
      10A    -11.212261    11A    -11.208157    12A     -1.295507
      13A     -1.154578    14A     -1.052139    15A     -1.040043
      16A     -1.016559    17A     -0.961069    18A     -0.833584
      19A     -0.831193    20A     -0.789801    21A     -0.767208
      22A     -0.732650    23A     -0.679413    24A     -0.631176
      25A     -0.628815    26A     -0.598247    27A     -0.589340
      28A     -0.578470    29A     -0.569249    30A     -0.552528
      31A     -0.537037    32A     -0.503354    33A     -0.497098
      34A     -0.494816    35A     -0.363072    36A     -0.350433
      37A     -0.340967    38A     -0.279160

  @DF-RHF Final Energy:  -438.50836238246256

   => Energetics <=

    Nuclear Repulsion Energy =            536.8400644740810321
    One-Electron Energy =               -1657.3729124913754731
    Two-Electron Energy =                 682.0244856348317626
    Total Energy =                       -438.5083623824625647
  Basis Set: (AUG-CC-PVTZ AUX)
    Blend: AUG-CC-PVTZ-RI
    Molecular point group: c1

    Geometry (in Angstrom), charge = 0, multiplicity = 1:

       Center              X                  Y                   Z               Mass
    ------------   -----------------  -----------------  -----------------  -----------------
         N            1.768464761456    -0.972830037217    -0.387912951721    14.003074004430
         C            1.039185461456     0.115736162783     0.041154348279    12.000000000000
         C           -0.459618238544     0.041030962783     0.016772048279    12.000000000000
         C            1.885059761456     1.088299962783     0.431393048279    12.000000000000
         C           -1.205005238544     1.196485962783    -0.271617951721    12.000000000000
         C           -1.145158238544    -1.154613037217     0.292608048279    12.000000000000
         C            3.102954761456    -0.675585037217    -0.278773951721    12.000000000000
         C            3.200507761456     0.604942962783     0.239524048279    12.000000000000
         C           -2.598346238544     1.158654962783    -0.270575951721    12.000000000000
         C           -2.539218238544    -1.194497037217     0.268029048279    12.000000000000
         C           -3.271452238544    -0.038395037217    -0.011092951721    12.000000000000
         H            1.390606761456    -1.799629037217    -0.833373951721     1.007825032230
         H            1.598768761456     2.039987962783     0.861397048279     1.007825032230
         H           -0.680128238544     2.119409962783    -0.508615951721     1.007825032230
         H           -0.583462238544    -2.046664037217     0.565254048279     1.007825032230
         H            3.862783761456    -1.383899037217    -0.579204951721     1.007825032230
         H            4.122731761456     1.123005962783     0.468364048279     1.007825032230
         H           -3.161654238544     2.061856962783    -0.494150951721     1.007825032230
         H           -3.055513238544    -2.126942037217     0.485233048279     1.007825032230
         H           -4.358226238544    -0.068608037217    -0.021522951721     1.007825032230

  Basis Set: AUG-CC-PVTZ
    Blend: AUG-CC-PVTZ
  Basis Set: (AUG-CC-PVTZ AUX)
    Blend: AUG-CC-PVTZ-JKFIT
	 Reference Energy          =    -438.5083623824625647 [Eh]
	 Singles Energy            =      -0.0000000000000000 [Eh]
	 Same-Spin Energy          =      -0.4941135119756723 [Eh]
	 Opposite-Spin Energy      =      -1.5238185054092672 [Eh]
	 Correlation Energy        =      -2.0179320173849398 [Eh]
	 Total Energy              =    -440.5262943998475293 [Eh]

	 ================> DF-SCS-MP2 Energies <==================
	-----------------------------------------------------------
	 SCS Same-Spin Scale       =       0.3333333333333333 [-]
	 SCS Opposite-Spin Scale   =       1.2000000000000000 [-]
	 SCS Same-Spin Energy      =      -0.1647045039918908 [Eh]
	 SCS Opposite-Spin Energy  =      -1.8285822064911206 [Eh]
	 SCS Correlation Energy    =      -1.9932867104830114 [Eh]
	 SCS Total Energy          =    -440.5016490929455699 [Eh]
	-----------------------------------------------------------

  Dipole Moment: [D]
     X:    -0.5074      Y:    -1.2843      Z:    -0.6332     Total:     1.5191

*** Psi4 exiting successfully. Buy a developer a beer!
