                               Psi4 1.3.2 release

  ==> Input File <==

--------------------------------------------------------------------------
#psi4
#
memory 32 gb

molecule  {
0 1
  N        1.7572152    -0.9830343    -0.3909132
  C        1.0080060     0.0962300     0.0271750
  C       -0.4507830     0.0432590     0.0183630
  C        1.8938950     1.0905280     0.4329840
  C       -1.1961700     1.1987140    -0.2700270
  C       -1.1363230    -1.1523850     0.2941990
  C        3.1117900    -0.6733570    -0.2771830
  C        3.2093430     0.6071710     0.2411150
  C       -2.5895110     1.1608830    -0.2689850
  C       -2.5303830    -1.1922690     0.2696200
  C       -3.2626170    -0.0361670    -0.0095020
  H        1.3994420    -1.7974010    -0.8317830
  H        1.6076040     2.0422160     0.8629880
  H       -0.6712930     2.1216380    -0.5070250
  H       -0.5746270    -2.0444360     0.5668450
  H        3.8716190    -1.3816710    -0.5776140
  H        4.1315670     1.1252340     0.4699550
  H       -3.1528190     2.0640850    -0.4925600
  H       -3.0466780    -2.1247140     0.4868240
  H       -4.3493910    -0.0663800    -0.0199320
units angstrom
no_reorient  #important for SAPT in psi4, default
symmetry c1  #important for SAPT in psi4, default
}

set PROPERTIES_ORIGIN ["COM"]
properties('MP2/aug-cc-pvtz', properties = ['dipole'])
--------------------------------------------------------------------------

    Molecular point group: c1
  Charge       = 0
  Multiplicity = 1
  Basis Set: AUG-CC-PVTZ
    Blend: AUG-CC-PVTZ
  Basis Set: (AUG-CC-PVTZ AUX)
    Blend: AUG-CC-PVTZ-JKFIT

    Orbital Energies [Eh]
    ---------------------

    Doubly Occupied:

       1A    -15.606140     2A    -11.263958     3A    -11.258047
       4A    -11.252689     5A    -11.241948     6A    -11.240648
       7A    -11.240430     8A    -11.237955     9A    -11.237670
      10A    -11.215829    11A    -11.213445    12A     -1.289477
      13A     -1.155868    14A     -1.049150    15A     -1.044690
      16A     -1.016797    17A     -0.957310    18A     -0.838180
      19A     -0.832038    20A     -0.792838    21A     -0.763498
      22A     -0.734609    23A     -0.678986    24A     -0.632318
      25A     -0.629231    26A     -0.597208    27A     -0.589074
      28A     -0.580964    29A     -0.566596    30A     -0.550026
      31A     -0.537319    32A     -0.503928    33A     -0.500676
      34A     -0.494472    35A     -0.362448    36A     -0.352148
      37A     -0.341265    38A     -0.273607

  @DF-RHF Final Energy:  -438.50822616079870

   => Energetics <=

    Nuclear Repulsion Energy =            536.6178266554712764
    One-Electron Energy =               -1656.9051448696091029
    Two-Electron Energy =                 681.7790920533392409
    Total Energy =                       -438.5082261607986993
  Basis Set: (AUG-CC-PVTZ AUX)
    Blend: AUG-CC-PVTZ-RI
    Molecular point group: c1

    Geometry (in Angstrom), charge = 0, multiplicity = 1:

       Center              X                  Y                   Z               Mass
    ------------   -----------------  -----------------  -----------------  -----------------
         N            1.753701878824    -0.982222635113    -0.390748868495    14.003074004430
         C            1.004492678824     0.097041664887     0.027339331505    12.000000000000
         C           -0.454296321176     0.044070664887     0.018527331505    12.000000000000
         C            1.890381678824     1.091339664887     0.433148331505    12.000000000000
         C           -1.199683321176     1.199525664887    -0.269862668495    12.000000000000
         C           -1.139836321176    -1.151573335113     0.294363331505    12.000000000000
         C            3.108276678824    -0.672545335113    -0.277018668495    12.000000000000
         C            3.205829678824     0.607982664887     0.241279331505    12.000000000000
         C           -2.593024321176     1.161694664887    -0.268820668495    12.000000000000
         C           -2.533896321176    -1.191457335113     0.269784331505    12.000000000000
         C           -3.266130321176    -0.035355335113    -0.009337668495    12.000000000000
         H            1.395928678824    -1.796589335113    -0.831618668495     1.007825032230
         H            1.604090678824     2.043027664887     0.863152331505     1.007825032230
         H           -0.674806321176     2.122449664887    -0.506860668495     1.007825032230
         H           -0.578140321176    -2.043624335113     0.567009331505     1.007825032230
         H            3.868105678824    -1.380859335113    -0.577449668495     1.007825032230
         H            4.128053678824     1.126045664887     0.470119331505     1.007825032230
         H           -3.156332321176     2.064896664887    -0.492395668495     1.007825032230
         H           -3.050191321176    -2.123902335113     0.486988331505     1.007825032230
         H           -4.352904321176    -0.065568335113    -0.019767668495     1.007825032230

  Basis Set: AUG-CC-PVTZ
    Blend: AUG-CC-PVTZ
  Basis Set: (AUG-CC-PVTZ AUX)
    Blend: AUG-CC-PVTZ-JKFIT
	 Reference Energy          =    -438.5082261607986993 [Eh]
	 Singles Energy            =      -0.0000000000000000 [Eh]
	 Same-Spin Energy          =      -0.4949876894455993 [Eh]
	 Opposite-Spin Energy      =      -1.5253380180235758 [Eh]
	 Correlation Energy        =      -2.0203257074691754 [Eh]
	 Total Energy              =    -440.5285518682678685 [Eh]

	 ================> DF-SCS-MP2 Energies <==================
	-----------------------------------------------------------
	 SCS Same-Spin Scale       =       0.3333333333333333 [-]
	 SCS Opposite-Spin Scale   =       1.2000000000000000 [-]
	 SCS Same-Spin Energy      =      -0.1649958964818664 [Eh]
	 SCS Opposite-Spin Energy  =      -1.8304056216282909 [Eh]
	 SCS Correlation Energy    =      -1.9954015181101574 [Eh]
	 SCS Total Energy          =    -440.5036276789088561 [Eh]
	-----------------------------------------------------------

  Dipole Moment: [D]
     X:    -0.4186      Y:    -1.2633      Z:    -0.6268     Total:     1.4711

*** Psi4 exiting successfully. Buy a developer a beer!
