                               Psi4 1.4a3.dev225

  ==> Input File <==

--------------------------------------------------------------------------
#psi4
#
memory 32 gb

molecule  {
0 1
  N        1.7773000    -0.9706020    -0.3863220
  C        1.0080060     0.0962300     0.0271750
  C       -0.4507830     0.0432590     0.0183630
  C        1.8938950     1.0905280     0.4329840
  C       -1.1961700     1.1987140    -0.2700270
  C       -1.1363230    -1.1523850     0.2941990
  C        3.1117900    -0.6733570    -0.2771830
  C        3.2093430     0.6071710     0.2411150
  C       -2.5895110     1.1608830    -0.2689850
  C       -2.5303830    -1.1922690     0.2696200
  C       -3.2626170    -0.0361670    -0.0095020
  H        1.3994420    -1.7974010    -0.8317830
  H        1.6076040     2.0422160     0.8629880
  H       -0.6712930     2.1216380    -0.5070250
  H       -0.5746270    -2.0444360     0.5668450
  H        3.8364855    -1.3489195    -0.5637225
  H        4.1315670     1.1252340     0.4699550
  H       -3.1528190     2.0640850    -0.4925600
  H       -3.0466780    -2.1247140     0.4868240
  H       -4.3493910    -0.0663800    -0.0199320
units angstrom
no_reorient  #important for SAPT in psi4, default
symmetry c1  #important for SAPT in psi4, default
}

set PROPERTIES_ORIGIN ["COM"]
properties('MP2/aug-cc-pvtz', properties = ['dipole'])
--------------------------------------------------------------------------

    Molecular point group: c1
  Charge       = 0
  Multiplicity = 1
  Basis Set: AUG-CC-PVTZ
    Blend: AUG-CC-PVTZ
  Basis Set: (AUG-CC-PVTZ AUX)
    Blend: AUG-CC-PVTZ-JKFIT

    Orbital Energies [Eh]
    ---------------------

    Doubly Occupied:

       1A    -15.607921     2A    -11.261980     3A    -11.253141
       4A    -11.250860     5A    -11.241974     6A    -11.240677
       7A    -11.240434     8A    -11.237890     9A    -11.237620
      10A    -11.213649    11A    -11.212555    12A     -1.293994
      13A     -1.156124    14A     -1.049050    15A     -1.042839
      16A     -1.016730    17A     -0.961288    18A     -0.839310
      19A     -0.832204    20A     -0.788795    21A     -0.766822
      22A     -0.738449    23A     -0.681922    24A     -0.635337
      25A     -0.629614    26A     -0.593436    27A     -0.588790
      28A     -0.585594    29A     -0.569170    30A     -0.549259
      31A     -0.539080    32A     -0.504604    33A     -0.500737
      34A     -0.494335    35A     -0.363360    36A     -0.349994
      37A     -0.341296    38A     -0.273326

  @DF-RHF Final Energy:  -438.50803932122062

   => Energetics <=

    Nuclear Repulsion Energy =            537.0967455668314869
    One-Electron Energy =               -1657.8412444331104325
    Two-Electron Energy =                 682.2364595450583238
    Total Energy =                       -438.5080393212206218
  Basis Set: (AUG-CC-PVTZ AUX)
    Blend: AUG-CC-PVTZ-RI
    Molecular point group: c1

    Geometry (in Angstrom), charge = 0, multiplicity = 1:

       Center              X                  Y                   Z               Mass
    ------------   -----------------  -----------------  -----------------  -----------------
         N            1.772068397512    -0.971237830278    -0.386704877554    14.003074004430
         C            1.002774397512     0.095594169722     0.026792122446    12.000000000000
         C           -0.456014602488     0.042623169722     0.017980122446    12.000000000000
         C            1.888663397512     1.089892169722     0.432601122446    12.000000000000
         C           -1.201401602488     1.198078169722    -0.270409877554    12.000000000000
         C           -1.141554602488    -1.153020830278     0.293816122446    12.000000000000
         C            3.106558397512    -0.673992830278    -0.277565877554    12.000000000000
         C            3.204111397512     0.606535169722     0.240732122446    12.000000000000
         C           -2.594742602488     1.160247169722    -0.269367877554    12.000000000000
         C           -2.535614602488    -1.192904830278     0.269237122446    12.000000000000
         C           -3.267848602488    -0.036802830278    -0.009884877554    12.000000000000
         H            1.394210397512    -1.798036830278    -0.832165877554     1.007825032230
         H            1.602372397512     2.041580169722     0.862605122446     1.007825032230
         H           -0.676524602488     2.121002169722    -0.507407877554     1.007825032230
         H           -0.579858602488    -2.045071830278     0.566462122446     1.007825032230
         H            3.831253897512    -1.349555330278    -0.564105377554     1.007825032230
         H            4.126335397512     1.124598169722     0.469572122446     1.007825032230
         H           -3.158050602488     2.063449169722    -0.492942877554     1.007825032230
         H           -3.051909602488    -2.125349830278     0.486441122446     1.007825032230
         H           -4.354622602488    -0.067015830278    -0.020314877554     1.007825032230

  Basis Set: AUG-CC-PVTZ
    Blend: AUG-CC-PVTZ
  Basis Set: (AUG-CC-PVTZ AUX)
    Blend: AUG-CC-PVTZ-JKFIT
	 Reference Energy          =    -438.5080393212206218 [Eh]
	 Singles Energy            =      -0.0000000000000000 [Eh]
	 Same-Spin Energy          =      -0.4951641864941616 [Eh]
	 Opposite-Spin Energy      =      -1.5250027633709178 [Eh]
	 Correlation Energy        =      -2.0201669498650796 [Eh]
	 Total Energy              =    -440.5282062710857076 [Eh]

	 ================> DF-SCS-MP2 Energies <==================
	-----------------------------------------------------------
	 SCS Same-Spin Scale       =       0.3333333333333333 [-]
	 SCS Opposite-Spin Scale   =       1.2000000000000000 [-]
	 SCS Same-Spin Energy      =      -0.1650547288313872 [Eh]
	 SCS Opposite-Spin Energy  =      -1.8300033160451012 [Eh]
	 SCS Correlation Energy    =      -1.9950580448764885 [Eh]
	 SCS Total Energy          =    -440.5030973660971085 [Eh]
	-----------------------------------------------------------

  Dipole Moment: [D]
     X:    -0.4484      Y:    -1.3208      Z:    -0.6483     Total:     1.5382

*** Psi4 exiting successfully. Buy a developer a beer!
