                               Psi4 1.3.2 release

  ==> Input File <==

--------------------------------------------------------------------------
#psi4
#
memory 32 gb

molecule  {
0 1
  N        1.7773000    -0.9706020    -0.3863220
  C        1.0080060     0.0962300     0.0271750
  C       -0.4507830     0.0432590     0.0183630
  C        1.8850221     1.0693498     0.4239158
  C       -1.1961700     1.1987140    -0.2700270
  C       -1.1363230    -1.1523850     0.2941990
  C        3.1117900    -0.6733570    -0.2771830
  C        3.2093430     0.6071710     0.2411150
  C       -2.5895110     1.1608830    -0.2689850
  C       -2.5303830    -1.1922690     0.2696200
  C       -3.2626170    -0.0361670    -0.0095020
  H        1.3994420    -1.7974010    -0.8317830
  H        1.6076040     2.0422160     0.8629880
  H       -0.6712930     2.1216380    -0.5070250
  H       -0.5746270    -2.0444360     0.5668450
  H        3.8716190    -1.3816710    -0.5776140
  H        4.1315670     1.1252340     0.4699550
  H       -3.1528190     2.0640850    -0.4925600
  H       -3.0466780    -2.1247140     0.4868240
  H       -4.3493910    -0.0663800    -0.0199320
units angstrom
no_reorient  #important for SAPT in psi4, default
symmetry c1  #important for SAPT in psi4, default
}

set PROPERTIES_ORIGIN ["COM"]
properties('MP2/aug-cc-pvtz', properties = ['dipole'])
--------------------------------------------------------------------------

    Molecular point group: c1
  Charge       = 0
  Multiplicity = 1
  Basis Set: AUG-CC-PVTZ
    Blend: AUG-CC-PVTZ
  Basis Set: (AUG-CC-PVTZ AUX)
    Blend: AUG-CC-PVTZ-JKFIT

    Orbital Energies [Eh]
    ---------------------

    Doubly Occupied:

       1A    -15.606443     2A    -11.258965     3A    -11.257107
       4A    -11.253199     5A    -11.241985     6A    -11.240690
       7A    -11.240466     8A    -11.237941     9A    -11.237667
      10A    -11.213025    11A    -11.211782    12A     -1.295138
      13A     -1.156145    14A     -1.050068    15A     -1.043029
      16A     -1.016759    17A     -0.961037    18A     -0.837511
      19A     -0.832286    20A     -0.788230    21A     -0.762941
      22A     -0.735640    23A     -0.680210    24A     -0.633330
      25A     -0.629756    26A     -0.592695    27A     -0.588864
      28A     -0.582250    29A     -0.570440    30A     -0.551842
      31A     -0.531922    32A     -0.504529    33A     -0.501393
      34A     -0.494689    35A     -0.364345    36A     -0.349787
      37A     -0.341281    38A     -0.275598

  @DF-RHF Final Energy:  -438.50887733663598

   => Energetics <=

    Nuclear Repulsion Energy =            537.3151495009196879
    One-Electron Energy =               -1658.3060805052145952
    Two-Electron Energy =                 682.4820536676588745
    Total Energy =                       -438.5088773366360329
  Basis Set: (AUG-CC-PVTZ AUX)
    Blend: AUG-CC-PVTZ-RI
    Molecular point group: c1

    Geometry (in Angstrom), charge = 0, multiplicity = 1:

       Center              X                  Y                   Z               Mass
    ------------   -----------------  -----------------  -----------------  -----------------
         N            1.772565109899    -0.969230846574    -0.385846447432    14.003074004430
         C            1.003271109899     0.097601153426     0.027650552568    12.000000000000
         C           -0.455517890101     0.044630153426     0.018838552568    12.000000000000
         C            1.880287209899     1.070720953426     0.424391352568    12.000000000000
         C           -1.200904890101     1.200085153426    -0.269551447432    12.000000000000
         C           -1.141057890101    -1.151013846574     0.294674552568    12.000000000000
         C            3.107055109899    -0.671985846574    -0.276707447432    12.000000000000
         C            3.204608109899     0.608542153426     0.241590552568    12.000000000000
         C           -2.594245890101     1.162254153426    -0.268509447432    12.000000000000
         C           -2.535117890101    -1.190897846574     0.270095552568    12.000000000000
         C           -3.267351890101    -0.034795846574    -0.009026447432    12.000000000000
         H            1.394707109899    -1.796029846574    -0.831307447432     1.007825032230
         H            1.602869109899     2.043587153426     0.863463552568     1.007825032230
         H           -0.676027890101     2.123009153426    -0.506549447432     1.007825032230
         H           -0.579361890101    -2.043064846574     0.567320552568     1.007825032230
         H            3.866884109899    -1.380299846574    -0.577138447432     1.007825032230
         H            4.126832109899     1.126605153426     0.470430552568     1.007825032230
         H           -3.157553890101     2.065456153426    -0.492084447432     1.007825032230
         H           -3.051412890101    -2.123342846574     0.487299552568     1.007825032230
         H           -4.354125890101    -0.065008846574    -0.019456447432     1.007825032230

  Basis Set: AUG-CC-PVTZ
    Blend: AUG-CC-PVTZ
  Basis Set: (AUG-CC-PVTZ AUX)
    Blend: AUG-CC-PVTZ-JKFIT
	 Reference Energy          =    -438.5088773366359760 [Eh]
	 Singles Energy            =      -0.0000000000000000 [Eh]
	 Same-Spin Energy          =      -0.4949880567152438 [Eh]
	 Opposite-Spin Energy      =      -1.5249025306180990 [Eh]
	 Correlation Energy        =      -2.0198905873333430 [Eh]
	 Total Energy              =    -440.5287679239693261 [Eh]

	 ================> DF-SCS-MP2 Energies <==================
	-----------------------------------------------------------
	 SCS Same-Spin Scale       =       0.3333333333333333 [-]
	 SCS Opposite-Spin Scale   =       1.2000000000000000 [-]
	 SCS Same-Spin Energy      =      -0.1649960189050813 [Eh]
	 SCS Opposite-Spin Energy  =      -1.8298830367417187 [Eh]
	 SCS Correlation Energy    =      -1.9948790556467999 [Eh]
	 SCS Total Energy          =    -440.5037563922827530 [Eh]
	-----------------------------------------------------------

  Dipole Moment: [D]
     X:    -0.4643      Y:    -1.3074      Z:    -0.6440     Total:     1.5296

*** Psi4 exiting successfully. Buy a developer a beer!
