                               Psi4 1.4a3.dev225

  ==> Input File <==

--------------------------------------------------------------------------
#psi4
#
memory 32 gb

molecule  {
0 1
  N        1.7773000    -0.9706020    -0.3863220
  C        1.0080060     0.0962300     0.0271750
  C       -0.4507830     0.0432590     0.0183630
  C        1.8938950     1.0905280     0.4329840
  C       -1.1961700     1.1987140    -0.2700270
  C       -1.1363230    -1.1523850     0.2941990
  C        3.1117900    -0.6733570    -0.2771830
  C        3.2079342     0.5886781     0.2336299
  C       -2.5895110     1.1608830    -0.2689850
  C       -2.5303830    -1.1922690     0.2696200
  C       -3.2626170    -0.0361670    -0.0095020
  H        1.3994420    -1.7974010    -0.8317830
  H        1.6076040     2.0422160     0.8629880
  H       -0.6712930     2.1216380    -0.5070250
  H       -0.5746270    -2.0444360     0.5668450
  H        3.8716190    -1.3816710    -0.5776140
  H        4.1315670     1.1252340     0.4699550
  H       -3.1528190     2.0640850    -0.4925600
  H       -3.0466780    -2.1247140     0.4868240
  H       -4.3493910    -0.0663800    -0.0199320
units angstrom
no_reorient  #important for SAPT in psi4, default
symmetry c1  #important for SAPT in psi4, default
}

set PROPERTIES_ORIGIN ["COM"]
properties('MP2/aug-cc-pvtz', properties = ['dipole'])
--------------------------------------------------------------------------

    Molecular point group: c1
  Charge       = 0
  Multiplicity = 1
  Basis Set: AUG-CC-PVTZ
    Blend: AUG-CC-PVTZ
  Basis Set: (AUG-CC-PVTZ AUX)
    Blend: AUG-CC-PVTZ-JKFIT

    Orbital Energies [Eh]
    ---------------------

    Doubly Occupied:

       1A    -15.606374     2A    -11.262541     3A    -11.253991
       4A    -11.253176     5A    -11.242102     6A    -11.240826
       7A    -11.240607     8A    -11.238140     9A    -11.237859
      10A    -11.213267    11A    -11.212071    12A     -1.294447
      13A     -1.156307    14A     -1.048626    15A     -1.043483
      16A     -1.016878    17A     -0.960748    18A     -0.838415
      19A     -0.832193    20A     -0.786263    21A     -0.764502
      22A     -0.735535    23A     -0.680032    24A     -0.633295
      25A     -0.629704    26A     -0.592788    27A     -0.588338
      28A     -0.583119    29A     -0.569582    30A     -0.550025
      31A     -0.536464    32A     -0.504734    33A     -0.500306
      34A     -0.494128    35A     -0.363686    36A     -0.349836
      37A     -0.341420    38A     -0.275347

  @DF-RHF Final Energy:  -438.50916628840491

   => Energetics <=

    Nuclear Repulsion Energy =            537.0665834956231492
    One-Electron Energy =               -1657.8091912165375561
    Two-Electron Energy =                 682.2334414325093803
    Total Energy =                       -438.5091662884049128
  Basis Set: (AUG-CC-PVTZ AUX)
    Blend: AUG-CC-PVTZ-RI
    Molecular point group: c1

    Geometry (in Angstrom), charge = 0, multiplicity = 1:

       Center              X                  Y                   Z               Mass
    ------------   -----------------  -----------------  -----------------  -----------------
         N            1.771939073627    -0.969456070673    -0.385979226738    14.003074004430
         C            1.002645073627     0.097375929327     0.027517773262    12.000000000000
         C           -0.456143926373     0.044404929327     0.018705773262    12.000000000000
         C            1.888534073627     1.091673929327     0.433326773262    12.000000000000
         C           -1.201530926373     1.199859929327    -0.269684226738    12.000000000000
         C           -1.141683926373    -1.151239070673     0.294541773262    12.000000000000
         C            3.106429073627    -0.672211070673    -0.276840226738    12.000000000000
         C            3.202573273627     0.589824029327     0.233972673262    12.000000000000
         C           -2.594871926373     1.162028929327    -0.268642226738    12.000000000000
         C           -2.535743926373    -1.191123070673     0.269962773262    12.000000000000
         C           -3.267977926373    -0.035021070673    -0.009159226738    12.000000000000
         H            1.394081073627    -1.796255070673    -0.831440226738     1.007825032230
         H            1.602243073627     2.043361929327     0.863330773262     1.007825032230
         H           -0.676653926373     2.122783929327    -0.506682226738     1.007825032230
         H           -0.579987926373    -2.043290070673     0.567187773262     1.007825032230
         H            3.866258073627    -1.380525070673    -0.577271226738     1.007825032230
         H            4.126206073627     1.126379929327     0.470297773262     1.007825032230
         H           -3.158179926373     2.065230929327    -0.492217226738     1.007825032230
         H           -3.052038926373    -2.123568070673     0.487166773262     1.007825032230
         H           -4.354751926373    -0.065234070673    -0.019589226738     1.007825032230

  Basis Set: AUG-CC-PVTZ
    Blend: AUG-CC-PVTZ
  Basis Set: (AUG-CC-PVTZ AUX)
    Blend: AUG-CC-PVTZ-JKFIT
	 Reference Energy          =    -438.5091662884049128 [Eh]
	 Singles Energy            =      -0.0000000000000000 [Eh]
	 Same-Spin Energy          =      -0.4949541032564688 [Eh]
	 Opposite-Spin Energy      =      -1.5248627431535864 [Eh]
	 Correlation Energy        =      -2.0198168464100550 [Eh]
	 Total Energy              =    -440.5289831348149505 [Eh]

	 ================> DF-SCS-MP2 Energies <==================
	-----------------------------------------------------------
	 SCS Same-Spin Scale       =       0.3333333333333333 [-]
	 SCS Opposite-Spin Scale   =       1.2000000000000000 [-]
	 SCS Same-Spin Energy      =      -0.1649847010854896 [Eh]
	 SCS Opposite-Spin Energy  =      -1.8298352917843035 [Eh]
	 SCS Correlation Energy    =      -1.9948199928697932 [Eh]
	 SCS Total Energy          =    -440.5039862812747060 [Eh]
	-----------------------------------------------------------

  Dipole Moment: [D]
     X:    -0.4548      Y:    -1.3145      Z:    -0.6454     Total:     1.5334

*** Psi4 exiting successfully. Buy a developer a beer!
