                               Psi4 1.3.2 release

  ==> Input File <==

--------------------------------------------------------------------------
#psi4
#
memory 32 gb

molecule  {
0 1
  N        1.7773000    -0.9706020    -0.3863220
  C        1.0080060     0.0962300     0.0271750
  C       -0.4507830     0.0432590     0.0183630
  C        1.8938950     1.0905280     0.4329840
  C       -1.1431152     1.1164715    -0.2495001
  C       -1.1363230    -1.1523850     0.2941990
  C        3.1117900    -0.6733570    -0.2771830
  C        3.2093430     0.6071710     0.2411150
  C       -2.5895110     1.1608830    -0.2689850
  C       -2.5303830    -1.1922690     0.2696200
  C       -3.2626170    -0.0361670    -0.0095020
  H        1.3994420    -1.7974010    -0.8317830
  H        1.6076040     2.0422160     0.8629880
  H       -0.6712930     2.1216380    -0.5070250
  H       -0.5746270    -2.0444360     0.5668450
  H        3.8716190    -1.3816710    -0.5776140
  H        4.1315670     1.1252340     0.4699550
  H       -3.1528190     2.0640850    -0.4925600
  H       -3.0466780    -2.1247140     0.4868240
  H       -4.3493910    -0.0663800    -0.0199320
units angstrom
no_reorient  #important for SAPT in psi4, default
symmetry c1  #important for SAPT in psi4, default
}

set PROPERTIES_ORIGIN ["COM"]
properties('MP2/aug-cc-pvtz', properties = ['dipole'])
--------------------------------------------------------------------------

    Molecular point group: c1
  Charge       = 0
  Multiplicity = 1
  Basis Set: AUG-CC-PVTZ
    Blend: AUG-CC-PVTZ
  Basis Set: (AUG-CC-PVTZ AUX)
    Blend: AUG-CC-PVTZ-JKFIT

    Orbital Energies [Eh]
    ---------------------

    Doubly Occupied:

       1A    -15.607697     2A    -11.261044     3A    -11.255324
       4A    -11.246011     5A    -11.242643     6A    -11.241479
       7A    -11.240852     8A    -11.238490     9A    -11.235995
      10A    -11.212871    11A    -11.211593    12A     -1.293612
      13A     -1.164351    14A     -1.055960    15A     -1.042405
      16A     -1.009805    17A     -0.962204    18A     -0.841469
      19A     -0.829354    20A     -0.788570    21A     -0.763209
      22A     -0.738624    23A     -0.675825    24A     -0.639090
      25A     -0.627742    26A     -0.590925    27A     -0.587463
      28A     -0.583066    29A     -0.569607    30A     -0.547212
      31A     -0.535204    32A     -0.509928    33A     -0.507012
      34A     -0.481415    35A     -0.371360    36A     -0.349627
      37A     -0.334458    38A     -0.276808

  @DF-RHF Final Energy:  -438.49582142843371

   => Energetics <=

    Nuclear Repulsion Energy =            538.3196509117457254
    One-Electron Energy =               -1660.2903409537279913
    Two-Electron Energy =                 683.4748686135486651
    Total Energy =                       -438.4958214284337146
  Basis Set: (AUG-CC-PVTZ AUX)
    Blend: AUG-CC-PVTZ-RI
    Molecular point group: c1

    Geometry (in Angstrom), charge = 0, multiplicity = 1:

       Center              X                  Y                   Z               Mass
    ------------   -----------------  -----------------  -----------------  -----------------
         N            1.767371049477    -0.964109202079    -0.388328676508    14.003074004430
         C            0.998077049477     0.102722797921     0.025168323492    12.000000000000
         C           -0.460711950523     0.049751797921     0.016356323492    12.000000000000
         C            1.883966049477     1.097020797921     0.430977323492    12.000000000000
         C           -1.153044150523     1.122964297921    -0.251506776508    12.000000000000
         C           -1.146251950523    -1.145892202079     0.292192323492    12.000000000000
         C            3.101861049477    -0.666864202079    -0.279189676508    12.000000000000
         C            3.199414049477     0.613663797921     0.239108323492    12.000000000000
         C           -2.599439950523     1.167375797921    -0.270991676508    12.000000000000
         C           -2.540311950523    -1.185776202079     0.267613323492    12.000000000000
         C           -3.272545950523    -0.029674202079    -0.011508676508    12.000000000000
         H            1.389513049477    -1.790908202079    -0.833789676508     1.007825032230
         H            1.597675049477     2.048708797921     0.860981323492     1.007825032230
         H           -0.681221950523     2.128130797921    -0.509031676508     1.007825032230
         H           -0.584555950523    -2.037943202079     0.564838323492     1.007825032230
         H            3.861690049477    -1.375178202079    -0.579620676508     1.007825032230
         H            4.121638049477     1.131726797921     0.467948323492     1.007825032230
         H           -3.162747950523     2.070577797921    -0.494566676508     1.007825032230
         H           -3.056606950523    -2.118221202079     0.484817323492     1.007825032230
         H           -4.359319950523    -0.059887202079    -0.021938676508     1.007825032230

  Basis Set: AUG-CC-PVTZ
    Blend: AUG-CC-PVTZ
  Basis Set: (AUG-CC-PVTZ AUX)
    Blend: AUG-CC-PVTZ-JKFIT
	 Reference Energy          =    -438.4958214284337146 [Eh]
	 Singles Energy            =      -0.0000000000000000 [Eh]
	 Same-Spin Energy          =      -0.4950865800089236 [Eh]
	 Opposite-Spin Energy      =      -1.5258108340838765 [Eh]
	 Correlation Energy        =      -2.0208974140928002 [Eh]
	 Total Energy              =    -440.5167188425265294 [Eh]

	 ================> DF-SCS-MP2 Energies <==================
	-----------------------------------------------------------
	 SCS Same-Spin Scale       =       0.3333333333333333 [-]
	 SCS Opposite-Spin Scale   =       1.2000000000000000 [-]
	 SCS Same-Spin Energy      =      -0.1650288600029745 [Eh]
	 SCS Opposite-Spin Energy  =      -1.8309730009006517 [Eh]
	 SCS Correlation Energy    =      -1.9960018609036263 [Eh]
	 SCS Total Energy          =    -440.4918232893373329 [Eh]
	-----------------------------------------------------------

  Dipole Moment: [D]
     X:    -0.5718      Y:    -1.3245      Z:    -0.6469     Total:     1.5811

*** Psi4 exiting successfully. Buy a developer a beer!
