                               Psi4 1.4a3.dev225

  ==> Input File <==

--------------------------------------------------------------------------
#psi4
#
memory 32 gb

molecule  {
0 1
  N        1.7773000    -0.9706020    -0.3863220
  C        1.0359044     0.0575413     0.0121795
  C       -0.4507830     0.0432590     0.0183630
  C        1.8938950     1.0905280     0.4329840
  C       -1.1961700     1.1987140    -0.2700270
  C       -1.1363230    -1.1523850     0.2941990
  C        3.1117900    -0.6733570    -0.2771830
  C        3.2093430     0.6071710     0.2411150
  C       -2.5895110     1.1608830    -0.2689850
  C       -2.5303830    -1.1922690     0.2696200
  C       -3.2626170    -0.0361670    -0.0095020
  H        1.3994420    -1.7974010    -0.8317830
  H        1.6076040     2.0422160     0.8629880
  H       -0.6712930     2.1216380    -0.5070250
  H       -0.5746270    -2.0444360     0.5668450
  H        3.8716190    -1.3816710    -0.5776140
  H        4.1315670     1.1252340     0.4699550
  H       -3.1528190     2.0640850    -0.4925600
  H       -3.0466780    -2.1247140     0.4868240
  H       -4.3493910    -0.0663800    -0.0199320
units angstrom
no_reorient  #important for SAPT in psi4, default
symmetry c1  #important for SAPT in psi4, default
}

set PROPERTIES_ORIGIN ["COM"]
properties('MP2/aug-cc-pvtz', properties = ['dipole'])
--------------------------------------------------------------------------

    Molecular point group: c1
  Charge       = 0
  Multiplicity = 1
  Basis Set: AUG-CC-PVTZ
    Blend: AUG-CC-PVTZ
  Basis Set: (AUG-CC-PVTZ AUX)
    Blend: AUG-CC-PVTZ-JKFIT

    Orbital Energies [Eh]
    ---------------------

    Doubly Occupied:

       1A    -15.611897     2A    -11.262594     3A    -11.255030
       4A    -11.252327     5A    -11.242010     6A    -11.241121
       7A    -11.240367     8A    -11.238519     9A    -11.237988
      10A    -11.214319    11A    -11.210607    12A     -1.309441
      13A     -1.155532    14A     -1.046130    15A     -1.043990
      16A     -1.016992    17A     -0.960029    18A     -0.834668
      19A     -0.832060    20A     -0.793690    21A     -0.769923
      22A     -0.734340    23A     -0.679723    24A     -0.633131
      25A     -0.629269    26A     -0.598561    27A     -0.590464
      28A     -0.585359    29A     -0.573172    30A     -0.549373
      31A     -0.534137    32A     -0.505496    33A     -0.498548
      34A     -0.492055    35A     -0.360042    36A     -0.351838
      37A     -0.341490    38A     -0.272953

  @DF-RHF Final Energy:  -438.50704426802525

   => Energetics <=

    Nuclear Repulsion Energy =            537.0358167809249608
    One-Electron Energy =               -1657.6873508730302547
    Two-Electron Energy =                 682.1444898240799830
    Total Energy =                       -438.5070442680253109
  Basis Set: (AUG-CC-PVTZ AUX)
    Blend: AUG-CC-PVTZ-RI
    Molecular point group: c1

    Geometry (in Angstrom), charge = 0, multiplicity = 1:

       Center              X                  Y                   Z               Mass
    ------------   -----------------  -----------------  -----------------  -----------------
         N            1.769480991581    -0.967762188849    -0.385349307148    14.003074004430
         C            1.028085391581     0.060381111151     0.013152192852    12.000000000000
         C           -0.458602008419     0.046098811151     0.019335692852    12.000000000000
         C            1.886075991581     1.093367811151     0.433956692852    12.000000000000
         C           -1.203989008419     1.201553811151    -0.269054307148    12.000000000000
         C           -1.144142008419    -1.149545188849     0.295171692852    12.000000000000
         C            3.103970991581    -0.670517188849    -0.276210307148    12.000000000000
         C            3.201523991581     0.610010811151     0.242087692852    12.000000000000
         C           -2.597330008419     1.163722811151    -0.268012307148    12.000000000000
         C           -2.538202008419    -1.189429188849     0.270592692852    12.000000000000
         C           -3.270436008419    -0.033327188849    -0.008529307148    12.000000000000
         H            1.391622991581    -1.794561188849    -0.830810307148     1.007825032230
         H            1.599784991581     2.045055811151     0.863960692852     1.007825032230
         H           -0.679112008419     2.124477811151    -0.506052307148     1.007825032230
         H           -0.582446008419    -2.041596188849     0.567817692852     1.007825032230
         H            3.863799991581    -1.378831188849    -0.576641307148     1.007825032230
         H            4.123747991581     1.128073811151     0.470927692852     1.007825032230
         H           -3.160638008419     2.066924811151    -0.491587307148     1.007825032230
         H           -3.054497008419    -2.121874188849     0.487796692852     1.007825032230
         H           -4.357210008419    -0.063540188849    -0.018959307148     1.007825032230

  Basis Set: AUG-CC-PVTZ
    Blend: AUG-CC-PVTZ
  Basis Set: (AUG-CC-PVTZ AUX)
    Blend: AUG-CC-PVTZ-JKFIT
	 Reference Energy          =    -438.5070442680252540 [Eh]
	 Singles Energy            =      -0.0000000000000000 [Eh]
	 Same-Spin Energy          =      -0.4951073825992313 [Eh]
	 Opposite-Spin Energy      =      -1.5245930706593884 [Eh]
	 Correlation Energy        =      -2.0197004532586198 [Eh]
	 Total Energy              =    -440.5267447212838761 [Eh]

	 ================> DF-SCS-MP2 Energies <==================
	-----------------------------------------------------------
	 SCS Same-Spin Scale       =       0.3333333333333333 [-]
	 SCS Opposite-Spin Scale   =       1.2000000000000000 [-]
	 SCS Same-Spin Energy      =      -0.1650357941997438 [Eh]
	 SCS Opposite-Spin Energy  =      -1.8295116847912660 [Eh]
	 SCS Correlation Energy    =      -1.9945474789910098 [Eh]
	 SCS Total Energy          =    -440.5015917470162776 [Eh]
	-----------------------------------------------------------

  Dipole Moment: [D]
     X:    -0.4680      Y:    -1.3742      Z:    -0.6768     Total:     1.6017

*** Psi4 exiting successfully. Buy a developer a beer!
