                               Psi4 1.3.2 release

  ==> Input File <==

--------------------------------------------------------------------------
#psi4
#
memory 32 gb

molecule  {
0 1
  N        1.7773000    -0.9706020    -0.3863220
  C        1.0080060     0.0962300     0.0271750
  C       -0.4507830     0.0432590     0.0183630
  C        1.8938950     1.0905280     0.4329840
  C       -1.1961700     1.1987140    -0.2700270
  C       -1.1363230    -1.1523850     0.2941990
  C        3.1117900    -0.6733570    -0.2771830
  C        3.2093430     0.6071710     0.2411150
  C       -2.5895110     1.1608830    -0.2689850
  C       -2.5303830    -1.1922690     0.2696200
  C       -3.2626170    -0.0361670    -0.0095020
  H        1.3994420    -1.7974010    -0.8317830
  H        1.5547270     2.2179898     0.9424084
  H       -0.6712930     2.1216380    -0.5070250
  H       -0.5746270    -2.0444360     0.5668450
  H        3.8716190    -1.3816710    -0.5776140
  H        4.1315670     1.1252340     0.4699550
  H       -3.1528190     2.0640850    -0.4925600
  H       -3.0466780    -2.1247140     0.4868240
  H       -4.3493910    -0.0663800    -0.0199320
units angstrom
no_reorient  #important for SAPT in psi4, default
symmetry c1  #important for SAPT in psi4, default
}

set PROPERTIES_ORIGIN ["COM"]
properties('MP2/aug-cc-pvtz', properties = ['dipole'])
--------------------------------------------------------------------------

    Molecular point group: c1
  Charge       = 0
  Multiplicity = 1
  Basis Set: AUG-CC-PVTZ
    Blend: AUG-CC-PVTZ
  Basis Set: (AUG-CC-PVTZ AUX)
    Blend: AUG-CC-PVTZ-JKFIT

    Orbital Energies [Eh]
    ---------------------

    Doubly Occupied:

       1A    -15.609848     2A    -11.264312     3A    -11.258281
       4A    -11.253295     5A    -11.241978     6A    -11.240638
       7A    -11.240454     8A    -11.237860     9A    -11.237517
      10A    -11.234725    11A    -11.215900    12A     -1.295865
      13A     -1.156136    14A     -1.048092    15A     -1.042685
      16A     -1.016679    17A     -0.958931    18A     -0.836713
      19A     -0.832063    20A     -0.787555    21A     -0.750786
      22A     -0.734673    23A     -0.680098    24A     -0.633352
      25A     -0.628477    26A     -0.590728    27A     -0.587819
      28A     -0.581187    29A     -0.569898    30A     -0.546218
      31A     -0.512210    32A     -0.504657    33A     -0.501110
      34A     -0.493375    35A     -0.363906    36A     -0.351867
      37A     -0.341172    38A     -0.274506

  @DF-RHF Final Energy:  -438.48612979173095

   => Energetics <=

    Nuclear Repulsion Energy =            535.9420921768013386
    One-Electron Energy =               -1655.5453090913861161
    Two-Electron Energy =                 681.1170871228537180
    Total Energy =                       -438.4861297917309457
  Basis Set: (AUG-CC-PVTZ AUX)
    Blend: AUG-CC-PVTZ-RI
    Molecular point group: c1

    Geometry (in Angstrom), charge = 0, multiplicity = 1:

       Center              X                  Y                   Z               Mass
    ------------   -----------------  -----------------  -----------------  -----------------
         N            1.772193384624    -0.972245294657    -0.387166470134    14.003074004430
         C            1.002899384624     0.094586705343     0.026330529866    12.000000000000
         C           -0.455889615376     0.041615705343     0.017518529866    12.000000000000
         C            1.888788384624     1.088884705343     0.432139529866    12.000000000000
         C           -1.201276615376     1.197070705343    -0.270871470134    12.000000000000
         C           -1.141429615376    -1.154028294657     0.293354529866    12.000000000000
         C            3.106683384624    -0.675000294657    -0.278027470134    12.000000000000
         C            3.204236384624     0.605527705343     0.240270529866    12.000000000000
         C           -2.594617615376     1.159239705343    -0.269829470134    12.000000000000
         C           -2.535489615376    -1.193912294657     0.268775529866    12.000000000000
         C           -3.267723615376    -0.037810294657    -0.010346470134    12.000000000000
         H            1.394335384624    -1.799044294657    -0.832627470134     1.007825032230
         H            1.549620384624     2.216346505343     0.941563929866     1.007825032230
         H           -0.676399615376     2.119994705343    -0.507869470134     1.007825032230
         H           -0.579733615376    -2.046079294657     0.566000529866     1.007825032230
         H            3.866512384624    -1.383314294657    -0.578458470134     1.007825032230
         H            4.126460384624     1.123590705343     0.469110529866     1.007825032230
         H           -3.157925615376     2.062441705343    -0.493404470134     1.007825032230
         H           -3.051784615376    -2.126357294657     0.485979529866     1.007825032230
         H           -4.354497615376    -0.068023294657    -0.020776470134     1.007825032230

  Basis Set: AUG-CC-PVTZ
    Blend: AUG-CC-PVTZ
  Basis Set: (AUG-CC-PVTZ AUX)
    Blend: AUG-CC-PVTZ-JKFIT
	 Reference Energy          =    -438.4861297917309457 [Eh]
	 Singles Energy            =      -0.0000000000000000 [Eh]
	 Same-Spin Energy          =      -0.4957062881468653 [Eh]
	 Opposite-Spin Energy      =      -1.5275179229668909 [Eh]
	 Correlation Energy        =      -2.0232242111137562 [Eh]
	 Total Energy              =    -440.5093540028447023 [Eh]

	 ================> DF-SCS-MP2 Energies <==================
	-----------------------------------------------------------
	 SCS Same-Spin Scale       =       0.3333333333333333 [-]
	 SCS Opposite-Spin Scale   =       1.2000000000000000 [-]
	 SCS Same-Spin Energy      =      -0.1652354293822884 [Eh]
	 SCS Opposite-Spin Energy  =      -1.8330215075602689 [Eh]
	 SCS Correlation Energy    =      -1.9982569369425573 [Eh]
	 SCS Total Energy          =    -440.4843867286734849 [Eh]
	-----------------------------------------------------------

  Dipole Moment: [D]
     X:    -0.4184      Y:    -1.3577      Z:    -0.6649     Total:     1.5686

*** Psi4 exiting successfully. Buy a developer a beer!
