                               Psi4 1.3.2 release

  ==> Input File <==

--------------------------------------------------------------------------
#psi4
#
memory 32 gb

molecule  {
0 1
  N        1.7773000    -0.9706020    -0.3863220
  C        1.1250084     0.0184132    -0.0114167
  C       -0.4507830     0.0432590     0.0183630
  C        1.8938950     1.0905280     0.4329840
  C       -1.1961700     1.1987140    -0.2700270
  C       -1.1363230    -1.1523850     0.2941990
  C        3.1117900    -0.6733570    -0.2771830
  C        3.2093430     0.6071710     0.2411150
  C       -2.5895110     1.1608830    -0.2689850
  C       -2.5303830    -1.1922690     0.2696200
  C       -3.2626170    -0.0361670    -0.0095020
  H        1.3994420    -1.7974010    -0.8317830
  H        1.6076040     2.0422160     0.8629880
  H       -0.6712930     2.1216380    -0.5070250
  H       -0.5746270    -2.0444360     0.5668450
  H        3.8716190    -1.3816710    -0.5776140
  H        4.1315670     1.1252340     0.4699550
  H       -3.1528190     2.0640850    -0.4925600
  H       -3.0466780    -2.1247140     0.4868240
  H       -4.3493910    -0.0663800    -0.0199320
units angstrom
no_reorient  #important for SAPT in psi4, default
symmetry c1  #important for SAPT in psi4, default
}

set PROPERTIES_ORIGIN ["COM"]
properties('MP2/aug-cc-pvtz', properties = ['dipole'])
--------------------------------------------------------------------------

    Molecular point group: c1
  Charge       = 0
  Multiplicity = 1
  Basis Set: AUG-CC-PVTZ
    Blend: AUG-CC-PVTZ
  Basis Set: (AUG-CC-PVTZ AUX)
    Blend: AUG-CC-PVTZ-JKFIT

    Orbital Energies [Eh]
    ---------------------

    Doubly Occupied:

       1A    -15.614546     2A    -11.262523     3A    -11.258708
       4A    -11.244599     5A    -11.241819     6A    -11.241226
       7A    -11.240081     8A    -11.238760     9A    -11.237964
      10A    -11.215010    11A    -11.202894    12A     -1.343024
      13A     -1.153228    14A     -1.054722    15A     -1.034684
      16A     -1.016882    17A     -0.962909    18A     -0.830760
      19A     -0.826133    20A     -0.808146    21A     -0.780196
      22A     -0.728687    23A     -0.678658    24A     -0.632788
      25A     -0.627970    26A     -0.614108    27A     -0.600378
      28A     -0.587992    29A     -0.571581    30A     -0.550169
      31A     -0.529649    32A     -0.505219    33A     -0.496220
      34A     -0.477809    35A     -0.356920    36A     -0.352839
      37A     -0.341228    38A     -0.276387

  @DF-RHF Final Energy:  -438.48449896396761

   => Energetics <=

    Nuclear Repulsion Energy =            537.5378796257587055
    One-Electron Energy =               -1658.5699271617556860
    Two-Electron Energy =                 682.5475485720293136
    Total Energy =                       -438.4844989639676669
  Basis Set: (AUG-CC-PVTZ AUX)
    Blend: AUG-CC-PVTZ-RI
    Molecular point group: c1

    Geometry (in Angstrom), charge = 0, multiplicity = 1:

       Center              X                  Y                   Z               Mass
    ------------   -----------------  -----------------  -----------------  -----------------
         N            1.762007574034    -0.964480398704    -0.383370223660    14.003074004430
         C            1.109715974034     0.024534801296    -0.008464923660    12.000000000000
         C           -0.466075425966     0.049380601296     0.021314776340    12.000000000000
         C            1.878602574034     1.096649601296     0.435935776340    12.000000000000
         C           -1.211462425966     1.204835601296    -0.267075223660    12.000000000000
         C           -1.151615425966    -1.146263398704     0.297150776340    12.000000000000
         C            3.096497574034    -0.667235398704    -0.274231223660    12.000000000000
         C            3.194050574034     0.613292601296     0.244066776340    12.000000000000
         C           -2.604803425966     1.167004601296    -0.266033223660    12.000000000000
         C           -2.545675425966    -1.186147398704     0.272571776340    12.000000000000
         C           -3.277909425966    -0.030045398704    -0.006550223660    12.000000000000
         H            1.384149574034    -1.791279398704    -0.828831223660     1.007825032230
         H            1.592311574034     2.048337601296     0.865939776340     1.007825032230
         H           -0.686585425966     2.127759601296    -0.504073223660     1.007825032230
         H           -0.589919425966    -2.038314398704     0.569796776340     1.007825032230
         H            3.856326574034    -1.375549398704    -0.574662223660     1.007825032230
         H            4.116274574034     1.131355601296     0.472906776340     1.007825032230
         H           -3.168111425966     2.070206601296    -0.489608223660     1.007825032230
         H           -3.061970425966    -2.118592398704     0.489775776340     1.007825032230
         H           -4.364683425966    -0.060258398704    -0.016980223660     1.007825032230

  Basis Set: AUG-CC-PVTZ
    Blend: AUG-CC-PVTZ
  Basis Set: (AUG-CC-PVTZ AUX)
    Blend: AUG-CC-PVTZ-JKFIT
	 Reference Energy          =    -438.4844989639676101 [Eh]
	 Singles Energy            =      -0.0000000000000000 [Eh]
	 Same-Spin Energy          =      -0.4942348586699470 [Eh]
	 Opposite-Spin Energy      =      -1.5226566863570428 [Eh]
	 Correlation Energy        =      -2.0168915450269900 [Eh]
	 Total Energy              =    -440.5013905089945752 [Eh]

	 ================> DF-SCS-MP2 Energies <==================
	-----------------------------------------------------------
	 SCS Same-Spin Scale       =       0.3333333333333333 [-]
	 SCS Opposite-Spin Scale   =       1.2000000000000000 [-]
	 SCS Same-Spin Energy      =      -0.1647449528899823 [Eh]
	 SCS Opposite-Spin Energy  =      -1.8271880236284512 [Eh]
	 SCS Correlation Energy    =      -1.9919329765184335 [Eh]
	 SCS Total Energy          =    -440.4764319404860657 [Eh]
	-----------------------------------------------------------

  Dipole Moment: [D]
     X:    -0.5623      Y:    -1.4468      Z:    -0.7155     Total:     1.7091

*** Psi4 exiting successfully. Buy a developer a beer!
