                               Psi4 1.3.2 release

  ==> Input File <==

--------------------------------------------------------------------------
#psi4
#
memory 32 gb

molecule  {
0 1
  N        1.7773000    -0.9706020    -0.3863220
  C        1.0080060     0.0962300     0.0271750
  C       -0.5356699    -0.0045343     0.0296061
  C        1.8938950     1.0905280     0.4329840
  C       -1.1961700     1.1987140    -0.2700270
  C       -1.1363230    -1.1523850     0.2941990
  C        3.1117900    -0.6733570    -0.2771830
  C        3.2093430     0.6071710     0.2411150
  C       -2.5895110     1.1608830    -0.2689850
  C       -2.5303830    -1.1922690     0.2696200
  C       -3.2626170    -0.0361670    -0.0095020
  H        1.3994420    -1.7974010    -0.8317830
  H        1.6076040     2.0422160     0.8629880
  H       -0.6712930     2.1216380    -0.5070250
  H       -0.5746270    -2.0444360     0.5668450
  H        3.8716190    -1.3816710    -0.5776140
  H        4.1315670     1.1252340     0.4699550
  H       -3.1528190     2.0640850    -0.4925600
  H       -3.0466780    -2.1247140     0.4868240
  H       -4.3493910    -0.0663800    -0.0199320
units angstrom
no_reorient  #important for SAPT in psi4, default
symmetry c1  #important for SAPT in psi4, default
}

set PROPERTIES_ORIGIN ["COM"]
properties('MP2/aug-cc-pvtz', properties = ['dipole'])
--------------------------------------------------------------------------

    Molecular point group: c1
  Charge       = 0
  Multiplicity = 1
  Basis Set: AUG-CC-PVTZ
    Blend: AUG-CC-PVTZ
  Basis Set: (AUG-CC-PVTZ AUX)
    Blend: AUG-CC-PVTZ-JKFIT

    Orbital Energies [Eh]
    ---------------------

    Doubly Occupied:

       1A    -15.605743     2A    -11.264510     3A    -11.253144
       4A    -11.251063     5A    -11.243035     6A    -11.241450
       7A    -11.238878     8A    -11.238058     9A    -11.232495
      10A    -11.211624    11A    -11.210346    12A     -1.290473
      13A     -1.166227    14A     -1.042719    15A     -1.042076
      16A     -1.021530    17A     -0.958851    18A     -0.839408
      19A     -0.829272    20A     -0.786442    21A     -0.762939
      22A     -0.733282    23A     -0.678324    24A     -0.635893
      25A     -0.632117    26A     -0.597372    27A     -0.589971
      28A     -0.576220    29A     -0.565349    30A     -0.547630
      31A     -0.534837    32A     -0.511315    33A     -0.506382
      34A     -0.484212    35A     -0.363628    36A     -0.348540
      37A     -0.342171    38A     -0.277643

  @DF-RHF Final Energy:  -438.49905608558208

   => Energetics <=

    Nuclear Repulsion Energy =            536.9583853460802629
    One-Electron Energy =               -1657.6045416462550293
    Two-Electron Energy =                 682.1471002145927969
    Total Energy =                       -438.4990560855820831
  Basis Set: (AUG-CC-PVTZ AUX)
    Blend: AUG-CC-PVTZ-RI
    Molecular point group: c1

    Geometry (in Angstrom), charge = 0, multiplicity = 1:

       Center              X                  Y                   Z               Mass
    ------------   -----------------  -----------------  -----------------  -----------------
         N            1.778940630205    -0.966998558962    -0.387550016585    14.003074004430
         C            1.009646630205     0.099833441038     0.025946983415    12.000000000000
         C           -0.534029269795    -0.000930858962     0.028378083415    12.000000000000
         C            1.895535630205     1.094131441038     0.431755983415    12.000000000000
         C           -1.194529369795     1.202317441038    -0.271255016585    12.000000000000
         C           -1.134682369795    -1.148781558962     0.292970983415    12.000000000000
         C            3.113430630205    -0.669753558962    -0.278411016585    12.000000000000
         C            3.210983630205     0.610774441038     0.239886983415    12.000000000000
         C           -2.587870369795     1.164486441038    -0.270213016585    12.000000000000
         C           -2.528742369795    -1.188665558962     0.268391983415    12.000000000000
         C           -3.260976369795    -0.032563558962    -0.010730016585    12.000000000000
         H            1.401082630205    -1.793797558962    -0.833011016585     1.007825032230
         H            1.609244630205     2.045819441038     0.861759983415     1.007825032230
         H           -0.669652369795     2.125241441038    -0.508253016585     1.007825032230
         H           -0.572986369795    -2.040832558962     0.565616983415     1.007825032230
         H            3.873259630205    -1.378067558962    -0.578842016585     1.007825032230
         H            4.133207630205     1.128837441038     0.468726983415     1.007825032230
         H           -3.151178369795     2.067688441038    -0.493788016585     1.007825032230
         H           -3.045037369795    -2.121110558962     0.485595983415     1.007825032230
         H           -4.347750369795    -0.062776558962    -0.021160016585     1.007825032230

  Basis Set: AUG-CC-PVTZ
    Blend: AUG-CC-PVTZ
  Basis Set: (AUG-CC-PVTZ AUX)
    Blend: AUG-CC-PVTZ-JKFIT
	 Reference Energy          =    -438.4990560855820831 [Eh]
	 Singles Energy            =      -0.0000000000000000 [Eh]
	 Same-Spin Energy          =      -0.4943480629364627 [Eh]
	 Opposite-Spin Energy      =      -1.5242751484357671 [Eh]
	 Correlation Energy        =      -2.0186232113722298 [Eh]
	 Total Energy              =    -440.5176792969543271 [Eh]

	 ================> DF-SCS-MP2 Energies <==================
	-----------------------------------------------------------
	 SCS Same-Spin Scale       =       0.3333333333333333 [-]
	 SCS Opposite-Spin Scale   =       1.2000000000000000 [-]
	 SCS Same-Spin Energy      =      -0.1647826876454876 [Eh]
	 SCS Opposite-Spin Energy  =      -1.8291301781229203 [Eh]
	 SCS Correlation Energy    =      -1.9939128657684080 [Eh]
	 SCS Total Energy          =    -440.4929689513504627 [Eh]
	-----------------------------------------------------------

  Dipole Moment: [D]
     X:    -0.7268      Y:    -1.3271      Z:    -0.6471     Total:     1.6456

*** Psi4 exiting successfully. Buy a developer a beer!
