                               Psi4 1.3.2 release

  ==> Input File <==

--------------------------------------------------------------------------
#psi4
#
memory 32 gb

molecule  {
0 1
  N        1.7773000    -0.9706020    -0.3863220
  C        1.0896920     0.1438202     0.0451659
  C       -0.4507830     0.0432590     0.0183630
  C        1.8938950     1.0905280     0.4329840
  C       -1.1961700     1.1987140    -0.2700270
  C       -1.1363230    -1.1523850     0.2941990
  C        3.1117900    -0.6733570    -0.2771830
  C        3.2093430     0.6071710     0.2411150
  C       -2.5895110     1.1608830    -0.2689850
  C       -2.5303830    -1.1922690     0.2696200
  C       -3.2626170    -0.0361670    -0.0095020
  H        1.3994420    -1.7974010    -0.8317830
  H        1.6076040     2.0422160     0.8629880
  H       -0.6712930     2.1216380    -0.5070250
  H       -0.5746270    -2.0444360     0.5668450
  H        3.8716190    -1.3816710    -0.5776140
  H        4.1315670     1.1252340     0.4699550
  H       -3.1528190     2.0640850    -0.4925600
  H       -3.0466780    -2.1247140     0.4868240
  H       -4.3493910    -0.0663800    -0.0199320
units angstrom
no_reorient  #important for SAPT in psi4, default
symmetry c1  #important for SAPT in psi4, default
}

set PROPERTIES_ORIGIN ["COM"]
properties('MP2/aug-cc-pvtz', properties = ['dipole'])
--------------------------------------------------------------------------

    Molecular point group: c1
  Charge       = 0
  Multiplicity = 1
  Basis Set: AUG-CC-PVTZ
    Blend: AUG-CC-PVTZ
  Basis Set: (AUG-CC-PVTZ AUX)
    Blend: AUG-CC-PVTZ-JKFIT

    Orbital Energies [Eh]
    ---------------------

    Doubly Occupied:

       1A    -15.602230     2A    -11.257804     3A    -11.256447
       4A    -11.255716     5A    -11.241742     6A    -11.240433
       7A    -11.239826     8A    -11.237342     9A    -11.236542
      10A    -11.211251    11A    -11.203004    12A     -1.297432
      13A     -1.153030    14A     -1.059250    15A     -1.035338
      16A     -1.016160    17A     -0.962482    18A     -0.830325
      19A     -0.829233    20A     -0.790916    21A     -0.770016
      22A     -0.729636    23A     -0.678736    24A     -0.629554
      25A     -0.628032    26A     -0.604751    27A     -0.589328
      28A     -0.577264    29A     -0.566379    30A     -0.554578
      31A     -0.537090    32A     -0.502984    33A     -0.494726
      34A     -0.490112    35A     -0.364896    36A     -0.349696
      37A     -0.340465    38A     -0.284453

  @DF-RHF Final Energy:  -438.50038433755873

   => Energetics <=

    Nuclear Repulsion Energy =            536.8982215221610659
    One-Electron Energy =               -1657.4988212590651528
    Two-Electron Energy =                 682.1002153993454158
    Total Energy =                       -438.5003843375586712
  Basis Set: (AUG-CC-PVTZ AUX)
    Blend: AUG-CC-PVTZ-RI
    Molecular point group: c1

    Geometry (in Angstrom), charge = 0, multiplicity = 1:

       Center              X                  Y                   Z               Mass
    ------------   -----------------  -----------------  -----------------  -----------------
         N            1.764969665562    -0.974998656854    -0.388115974644    14.003074004430
         C            1.077361665562     0.139423543146     0.043371925356    12.000000000000
         C           -0.463113334438     0.038862343146     0.016569025356    12.000000000000
         C            1.881564665562     1.086131343146     0.431190025356    12.000000000000
         C           -1.208500334438     1.194317343146    -0.271820974644    12.000000000000
         C           -1.148653334438    -1.156781656854     0.292405025356    12.000000000000
         C            3.099459665562    -0.677753656854    -0.278976974644    12.000000000000
         C            3.197012665562     0.602774343146     0.239321025356    12.000000000000
         C           -2.601841334438     1.156486343146    -0.270778974644    12.000000000000
         C           -2.542713334438    -1.196665656854     0.267826025356    12.000000000000
         C           -3.274947334438    -0.040563656854    -0.011295974644    12.000000000000
         H            1.387111665562    -1.801797656854    -0.833576974644     1.007825032230
         H            1.595273665562     2.037819343146     0.861194025356     1.007825032230
         H           -0.683623334438     2.117241343146    -0.508818974644     1.007825032230
         H           -0.586957334438    -2.048832656854     0.565051025356     1.007825032230
         H            3.859288665562    -1.386067656854    -0.579407974644     1.007825032230
         H            4.119236665562     1.120837343146     0.468161025356     1.007825032230
         H           -3.165149334438     2.059688343146    -0.494353974644     1.007825032230
         H           -3.059008334438    -2.129110656854     0.485030025356     1.007825032230
         H           -4.361721334438    -0.070776656854    -0.021725974644     1.007825032230

  Basis Set: AUG-CC-PVTZ
    Blend: AUG-CC-PVTZ
  Basis Set: (AUG-CC-PVTZ AUX)
    Blend: AUG-CC-PVTZ-JKFIT
	 Reference Energy          =    -438.5003843375587280 [Eh]
	 Singles Energy            =      -0.0000000000000000 [Eh]
	 Same-Spin Energy          =      -0.4931897211461365 [Eh]
	 Opposite-Spin Energy      =      -1.5227119542063710 [Eh]
	 Correlation Energy        =      -2.0159016753525076 [Eh]
	 Total Energy              =    -440.5162860129112232 [Eh]

	 ================> DF-SCS-MP2 Energies <==================
	-----------------------------------------------------------
	 SCS Same-Spin Scale       =       0.3333333333333333 [-]
	 SCS Opposite-Spin Scale   =       1.2000000000000000 [-]
	 SCS Same-Spin Energy      =      -0.1643965737153788 [Eh]
	 SCS Opposite-Spin Energy  =      -1.8272543450476451 [Eh]
	 SCS Correlation Energy    =      -1.9916509187630238 [Eh]
	 SCS Total Energy          =    -440.4920352563217421 [Eh]
	-----------------------------------------------------------

  Dipole Moment: [D]
     X:    -0.5373      Y:    -1.2444      Z:    -0.6137     Total:     1.4879

*** Psi4 exiting successfully. Buy a developer a beer!
