                               Psi4 1.3.2 release

  ==> Input File <==

--------------------------------------------------------------------------
#psi4
#
memory 32 gb

molecule  {
0 1
  N        1.7515311    -0.8397947    -0.3330730
  C        1.0080060     0.0962300     0.0271750
  C       -0.4507830     0.0432590     0.0183630
  C        1.8938950     1.0905280     0.4329840
  C       -1.1961700     1.1987140    -0.2700270
  C       -1.1363230    -1.1523850     0.2941990
  C        3.1117900    -0.6733570    -0.2771830
  C        3.2093430     0.6071710     0.2411150
  C       -2.5895110     1.1608830    -0.2689850
  C       -2.5303830    -1.1922690     0.2696200
  C       -3.2626170    -0.0361670    -0.0095020
  H        1.3994420    -1.7974010    -0.8317830
  H        1.6076040     2.0422160     0.8629880
  H       -0.6712930     2.1216380    -0.5070250
  H       -0.5746270    -2.0444360     0.5668450
  H        3.8716190    -1.3816710    -0.5776140
  H        4.1315670     1.1252340     0.4699550
  H       -3.1528190     2.0640850    -0.4925600
  H       -3.0466780    -2.1247140     0.4868240
  H       -4.3493910    -0.0663800    -0.0199320
units angstrom
no_reorient  #important for SAPT in psi4, default
symmetry c1  #important for SAPT in psi4, default
}

set PROPERTIES_ORIGIN ["COM"]
properties('MP2/aug-cc-pvtz', properties = ['dipole'])
--------------------------------------------------------------------------

    Molecular point group: c1
  Charge       = 0
  Multiplicity = 1
  Basis Set: AUG-CC-PVTZ
    Blend: AUG-CC-PVTZ
  Basis Set: (AUG-CC-PVTZ AUX)
    Blend: AUG-CC-PVTZ-JKFIT

    Orbital Energies [Eh]
    ---------------------

    Doubly Occupied:

       1A    -15.618570     2A    -11.255519     3A    -11.252614
       4A    -11.246151     5A    -11.244334     6A    -11.243142
       7A    -11.242423     8A    -11.240452     9A    -11.240076
      10A    -11.211585    11A    -11.199845    12A     -1.332242
      13A     -1.158371    14A     -1.053283    15A     -1.030904
      16A     -1.017401    17A     -0.973821    18A     -0.840423
      19A     -0.834488    20A     -0.775549    21A     -0.762322
      22A     -0.740027    23A     -0.684186    24A     -0.642560
      25A     -0.632527    26A     -0.601707    27A     -0.594188
      28A     -0.590344    29A     -0.552135    30A     -0.546957
      31A     -0.529736    32A     -0.507872    33A     -0.502114
      34A     -0.495042    35A     -0.363001    36A     -0.343739
      37A     -0.342940    38A     -0.275419

  @DF-RHF Final Energy:  -438.47449026456331

   => Energetics <=

    Nuclear Repulsion Energy =            539.9551240889942392
    One-Electron Energy =               -1663.4232124929408201
    Two-Electron Energy =                 684.9935981393833799
    Total Energy =                       -438.4744902645633147
  Basis Set: (AUG-CC-PVTZ AUX)
    Blend: AUG-CC-PVTZ-RI
    Molecular point group: c1

    Geometry (in Angstrom), charge = 0, multiplicity = 1:

       Center              X                  Y                   Z               Mass
    ------------   -----------------  -----------------  -----------------  -----------------
         N            1.748574100388    -0.853002365939    -0.338569679130    14.003074004430
         C            1.005049000388     0.083022334061     0.021678320870    12.000000000000
         C           -0.453739999612     0.030051334061     0.012866320870    12.000000000000
         C            1.890938000388     1.077320334061     0.427487320870    12.000000000000
         C           -1.199126999612     1.185506334061    -0.275523679130    12.000000000000
         C           -1.139279999612    -1.165592665939     0.288702320870    12.000000000000
         C            3.108833000388    -0.686564665939    -0.282679679130    12.000000000000
         C            3.206386000388     0.593963334061     0.235618320870    12.000000000000
         C           -2.592467999612     1.147675334061    -0.274481679130    12.000000000000
         C           -2.533339999612    -1.205476665939     0.264123320870    12.000000000000
         C           -3.265573999612    -0.049374665939    -0.014998679130    12.000000000000
         H            1.396485000388    -1.810608665939    -0.837279679130     1.007825032230
         H            1.604647000388     2.029008334061     0.857491320870     1.007825032230
         H           -0.674249999612     2.108430334061    -0.512521679130     1.007825032230
         H           -0.577583999612    -2.057643665939     0.561348320870     1.007825032230
         H            3.868662000388    -1.394878665939    -0.583110679130     1.007825032230
         H            4.128610000388     1.112026334061     0.464458320870     1.007825032230
         H           -3.155775999612     2.050877334061    -0.498056679130     1.007825032230
         H           -3.049634999612    -2.137921665939     0.481327320870     1.007825032230
         H           -4.352347999612    -0.079587665939    -0.025428679130     1.007825032230

  Basis Set: AUG-CC-PVTZ
    Blend: AUG-CC-PVTZ
  Basis Set: (AUG-CC-PVTZ AUX)
    Blend: AUG-CC-PVTZ-JKFIT
	 Reference Energy          =    -438.4744902645633147 [Eh]
	 Singles Energy            =      -0.0000000000000000 [Eh]
	 Same-Spin Energy          =      -0.4971578776357116 [Eh]
	 Opposite-Spin Energy      =      -1.5269827814886505 [Eh]
	 Correlation Energy        =      -2.0241406591243623 [Eh]
	 Total Energy              =    -440.4986309236876991 [Eh]

	 ================> DF-SCS-MP2 Energies <==================
	-----------------------------------------------------------
	 SCS Same-Spin Scale       =       0.3333333333333333 [-]
	 SCS Opposite-Spin Scale   =       1.2000000000000000 [-]
	 SCS Same-Spin Energy      =      -0.1657192925452372 [Eh]
	 SCS Opposite-Spin Energy  =      -1.8323793377863806 [Eh]
	 SCS Correlation Energy    =      -1.9980986303316177 [Eh]
	 SCS Total Energy          =    -440.4725888948949546 [Eh]
	-----------------------------------------------------------

  Dipole Moment: [D]
     X:    -0.6441      Y:    -1.5916      Z:    -0.7457     Total:     1.8719

*** Psi4 exiting successfully. Buy a developer a beer!
