                               Psi4 1.3.2 release

  ==> Input File <==

--------------------------------------------------------------------------
#psi4
#
memory 32 gb

molecule  {
0 1
  N        1.7773000    -0.9706020    -0.3863220
  C        1.0080060     0.0962300     0.0271750
  C       -0.4507830     0.0432590     0.0183630
  C        1.8938950     1.0905280     0.4329840
  C       -1.1961700     1.1987140    -0.2700270
  C       -1.1363230    -1.1523850     0.2941990
  C        3.1061324    -0.6531510    -0.2656627
  C        3.2093430     0.6071710     0.2411150
  C       -2.5895110     1.1608830    -0.2689850
  C       -2.5303830    -1.1922690     0.2696200
  C       -3.2626170    -0.0361670    -0.0095020
  H        1.3994420    -1.7974010    -0.8317830
  H        1.6076040     2.0422160     0.8629880
  H       -0.6712930     2.1216380    -0.5070250
  H       -0.5746270    -2.0444360     0.5668450
  H        3.8716190    -1.3816710    -0.5776140
  H        4.1315670     1.1252340     0.4699550
  H       -3.1528190     2.0640850    -0.4925600
  H       -3.0466780    -2.1247140     0.4868240
  H       -4.3493910    -0.0663800    -0.0199320
units angstrom
no_reorient  #important for SAPT in psi4, default
symmetry c1  #important for SAPT in psi4, default
}

set PROPERTIES_ORIGIN ["COM"]
properties('MP2/aug-cc-pvtz', properties = ['dipole'])
--------------------------------------------------------------------------

    Molecular point group: c1
  Charge       = 0
  Multiplicity = 1
  Basis Set: AUG-CC-PVTZ
    Blend: AUG-CC-PVTZ
  Basis Set: (AUG-CC-PVTZ AUX)
    Blend: AUG-CC-PVTZ-JKFIT

    Orbital Energies [Eh]
    ---------------------

    Doubly Occupied:

       1A    -15.606563     2A    -11.261829     3A    -11.255730
       4A    -11.252974     5A    -11.241948     6A    -11.240629
       7A    -11.240418     8A    -11.237860     9A    -11.237583
      10A    -11.212788    11A    -11.210663    12A     -1.294899
      13A     -1.156075    14A     -1.048456    15A     -1.045993
      16A     -1.016792    17A     -0.959161    18A     -0.837641
      19A     -0.832130    20A     -0.788874    21A     -0.764546
      22A     -0.733882    23A     -0.678815    24A     -0.631494
      25A     -0.629812    26A     -0.595752    27A     -0.589378
      28A     -0.580281    29A     -0.569698    30A     -0.551036
      31A     -0.535376    32A     -0.504368    33A     -0.500751
      34A     -0.494223    35A     -0.363378    36A     -0.351820
      37A     -0.341256    38A     -0.274649

  @DF-RHF Final Energy:  -438.50885924512039

   => Energetics <=

    Nuclear Repulsion Energy =            537.1988217261853151
    One-Electron Energy =               -1658.0763164769530249
    Two-Electron Energy =                 682.3686355056472621
    Total Energy =                       -438.5088592451204477
  Basis Set: (AUG-CC-PVTZ AUX)
    Blend: AUG-CC-PVTZ-RI
    Molecular point group: c1

    Geometry (in Angstrom), charge = 0, multiplicity = 1:

       Center              X                  Y                   Z               Mass
    ------------   -----------------  -----------------  -----------------  -----------------
         N            1.772295433123    -0.972701862537    -0.387573266173    14.003074004430
         C            1.003001433123     0.094130137463     0.025923733827    12.000000000000
         C           -0.455787566877     0.041159137463     0.017111733827    12.000000000000
         C            1.888890433123     1.088428137463     0.431732733827    12.000000000000
         C           -1.201174566877     1.196614137463    -0.271278266173    12.000000000000
         C           -1.141327566877    -1.154484862537     0.292947733827    12.000000000000
         C            3.101127833123    -0.655250862537    -0.266913966173    12.000000000000
         C            3.204338433123     0.605071137463     0.239863733827    12.000000000000
         C           -2.594515566877     1.158783137463    -0.270236266173    12.000000000000
         C           -2.535387566877    -1.194368862537     0.268368733827    12.000000000000
         C           -3.267621566877    -0.038266862537    -0.010753266173    12.000000000000
         H            1.394437433123    -1.799500862537    -0.833034266173     1.007825032230
         H            1.602599433123     2.040116137463     0.861736733827     1.007825032230
         H           -0.676297566877     2.119538137463    -0.508276266173     1.007825032230
         H           -0.579631566877    -2.046535862537     0.565593733827     1.007825032230
         H            3.866614433123    -1.383770862537    -0.578865266173     1.007825032230
         H            4.126562433123     1.123134137463     0.468703733827     1.007825032230
         H           -3.157823566877     2.061985137463    -0.493811266173     1.007825032230
         H           -3.051682566877    -2.126813862537     0.485572733827     1.007825032230
         H           -4.354395566877    -0.068479862537    -0.021183266173     1.007825032230

  Basis Set: AUG-CC-PVTZ
    Blend: AUG-CC-PVTZ
  Basis Set: (AUG-CC-PVTZ AUX)
    Blend: AUG-CC-PVTZ-JKFIT
	 Reference Energy          =    -438.5088592451203908 [Eh]
	 Singles Energy            =      -0.0000000000000000 [Eh]
	 Same-Spin Energy          =      -0.4949818839979497 [Eh]
	 Opposite-Spin Energy      =      -1.5248685741293158 [Eh]
	 Correlation Energy        =      -2.0198504581272654 [Eh]
	 Total Energy              =    -440.5287097032476709 [Eh]

	 ================> DF-SCS-MP2 Energies <==================
	-----------------------------------------------------------
	 SCS Same-Spin Scale       =       0.3333333333333333 [-]
	 SCS Opposite-Spin Scale   =       1.2000000000000000 [-]
	 SCS Same-Spin Energy      =      -0.1649939613326499 [Eh]
	 SCS Opposite-Spin Energy  =      -1.8298422889551789 [Eh]
	 SCS Correlation Energy    =      -1.9948362502878287 [Eh]
	 SCS Total Energy          =    -440.5036954954082375 [Eh]
	-----------------------------------------------------------

  Dipole Moment: [D]
     X:    -0.4283      Y:    -1.3053      Z:    -0.6453     Total:     1.5178

*** Psi4 exiting successfully. Buy a developer a beer!
