                               Psi4 1.3.2 release

  ==> Input File <==

--------------------------------------------------------------------------
#psi4
#
memory 32 gb

molecule  {
0 1
  N        1.7773000    -0.9706020    -0.3863220
  C        1.0280914     0.1086243     0.0318652
  C       -0.4507830     0.0432590     0.0183630
  C        1.8938950     1.0905280     0.4329840
  C       -1.1961700     1.1987140    -0.2700270
  C       -1.1363230    -1.1523850     0.2941990
  C        3.1117900    -0.6733570    -0.2771830
  C        3.2093430     0.6071710     0.2411150
  C       -2.5895110     1.1608830    -0.2689850
  C       -2.5303830    -1.1922690     0.2696200
  C       -3.2626170    -0.0361670    -0.0095020
  H        1.3994420    -1.7974010    -0.8317830
  H        1.6076040     2.0422160     0.8629880
  H       -0.6712930     2.1216380    -0.5070250
  H       -0.5746270    -2.0444360     0.5668450
  H        3.8716190    -1.3816710    -0.5776140
  H        4.1315670     1.1252340     0.4699550
  H       -3.1528190     2.0640850    -0.4925600
  H       -3.0466780    -2.1247140     0.4868240
  H       -4.3493910    -0.0663800    -0.0199320
units angstrom
no_reorient  #important for SAPT in psi4, default
symmetry c1  #important for SAPT in psi4, default
}

set PROPERTIES_ORIGIN ["COM"]
properties('MP2/aug-cc-pvtz', properties = ['dipole'])
--------------------------------------------------------------------------

    Molecular point group: c1
  Charge       = 0
  Multiplicity = 1
  Basis Set: AUG-CC-PVTZ
    Blend: AUG-CC-PVTZ
  Basis Set: (AUG-CC-PVTZ AUX)
    Blend: AUG-CC-PVTZ-JKFIT

    Orbital Energies [Eh]
    ---------------------

    Doubly Occupied:

       1A    -15.606674     2A    -11.261036     3A    -11.256325
       4A    -11.254217     5A    -11.241992     6A    -11.240605
       7A    -11.240456     8A    -11.237800     9A    -11.237469
      10A    -11.212940    11A    -11.210654    12A     -1.294789
      13A     -1.155335    14A     -1.049760    15A     -1.042008
      16A     -1.016676    17A     -0.960211    18A     -0.835664
      19A     -0.831695    20A     -0.789226    21A     -0.766032
      22A     -0.734010    23A     -0.679666    24A     -0.632150
      25A     -0.629216    26A     -0.595614    27A     -0.589182
      28A     -0.580512    29A     -0.569390    30A     -0.551220
      31A     -0.537019    32A     -0.503779    33A     -0.499331
      34A     -0.494699    35A     -0.363087    36A     -0.350401
      37A     -0.341156    38A     -0.276341

  @DF-RHF Final Energy:  -438.50947841411602

   => Energetics <=

    Nuclear Repulsion Energy =            536.8287377586674438
    One-Electron Energy =               -1657.3397517153041463
    Two-Electron Energy =                 682.0015355425207417
    Total Energy =                       -438.5094784141160744
  Basis Set: (AUG-CC-PVTZ AUX)
    Blend: AUG-CC-PVTZ-RI
    Molecular point group: c1

    Geometry (in Angstrom), charge = 0, multiplicity = 1:

       Center              X                  Y                   Z               Mass
    ------------   -----------------  -----------------  -----------------  -----------------
         N            1.770136291133    -0.972046672020    -0.387000405368    14.003074004430
         C            1.020927691133     0.107179627980     0.031186794632    12.000000000000
         C           -0.457946708867     0.041814327980     0.017684594632    12.000000000000
         C            1.886731291133     1.089083327980     0.432305594632    12.000000000000
         C           -1.203333708867     1.197269327980    -0.270705405368    12.000000000000
         C           -1.143486708867    -1.153829672020     0.293520594632    12.000000000000
         C            3.104626291133    -0.674801672020    -0.277861405368    12.000000000000
         C            3.202179291133     0.605726327980     0.240436594632    12.000000000000
         C           -2.596674708867     1.159438327980    -0.269663405368    12.000000000000
         C           -2.537546708867    -1.193713672020     0.268941594632    12.000000000000
         C           -3.269780708867    -0.037611672020    -0.010180405368    12.000000000000
         H            1.392278291133    -1.798845672020    -0.832461405368     1.007825032230
         H            1.600440291133     2.040771327980     0.862309594632     1.007825032230
         H           -0.678456708867     2.120193327980    -0.507703405368     1.007825032230
         H           -0.581790708867    -2.045880672020     0.566166594632     1.007825032230
         H            3.864455291133    -1.383115672020    -0.578292405368     1.007825032230
         H            4.124403291133     1.123789327980     0.469276594632     1.007825032230
         H           -3.159982708867     2.062640327980    -0.493238405368     1.007825032230
         H           -3.053841708867    -2.126158672020     0.486145594632     1.007825032230
         H           -4.356554708867    -0.067824672020    -0.020610405368     1.007825032230

  Basis Set: AUG-CC-PVTZ
    Blend: AUG-CC-PVTZ
  Basis Set: (AUG-CC-PVTZ AUX)
    Blend: AUG-CC-PVTZ-JKFIT
	 Reference Energy          =    -438.5094784141160176 [Eh]
	 Singles Energy            =      -0.0000000000000000 [Eh]
	 Same-Spin Energy          =      -0.4946522271310633 [Eh]
	 Opposite-Spin Energy      =      -1.5245191326533889 [Eh]
	 Correlation Energy        =      -2.0191713597844521 [Eh]
	 Total Energy              =    -440.5286497739004972 [Eh]

	 ================> DF-SCS-MP2 Energies <==================
	-----------------------------------------------------------
	 SCS Same-Spin Scale       =       0.3333333333333333 [-]
	 SCS Opposite-Spin Scale   =       1.2000000000000000 [-]
	 SCS Same-Spin Energy      =      -0.1648840757103544 [Eh]
	 SCS Opposite-Spin Energy  =      -1.8294229591840665 [Eh]
	 SCS Correlation Energy    =      -1.9943070348944210 [Eh]
	 SCS Total Energy          =    -440.5037854490104223 [Eh]
	-----------------------------------------------------------

  Dipole Moment: [D]
     X:    -0.4806      Y:    -1.3022      Z:    -0.6398     Total:     1.5284

*** Psi4 exiting successfully. Buy a developer a beer!
