                               Psi4 1.4a3.dev225

  ==> Input File <==

--------------------------------------------------------------------------
#psi4
#
memory 32 gb

molecule  {
0 1
  N        1.7773000    -0.9706020    -0.3863220
  C        1.0080060     0.0962300     0.0271750
  C       -0.4507830     0.0432590     0.0183630
  C        1.8938950     1.0905280     0.4329840
  C       -1.1961700     1.1987140    -0.2700270
  C       -1.1363230    -1.1523850     0.2941990
  C        3.1117900    -0.6733570    -0.2771830
  C        3.2093430     0.6071710     0.2411150
  C       -2.5895110     1.1608830    -0.2689850
  C       -2.5303830    -1.1922690     0.2696200
  C       -3.2626170    -0.0361670    -0.0095020
  H        1.4069071    -1.7810664    -0.8229823
  H        1.6076040     2.0422160     0.8629880
  H       -0.6712930     2.1216380    -0.5070250
  H       -0.5746270    -2.0444360     0.5668450
  H        3.8716190    -1.3816710    -0.5776140
  H        4.1315670     1.1252340     0.4699550
  H       -3.1528190     2.0640850    -0.4925600
  H       -3.0466780    -2.1247140     0.4868240
  H       -4.3493910    -0.0663800    -0.0199320
units angstrom
no_reorient  #important for SAPT in psi4, default
symmetry c1  #important for SAPT in psi4, default
}

set PROPERTIES_ORIGIN ["COM"]
properties('MP2/aug-cc-pvtz', properties = ['dipole'])
--------------------------------------------------------------------------

    Molecular point group: c1
  Charge       = 0
  Multiplicity = 1
  Basis Set: AUG-CC-PVTZ
    Blend: AUG-CC-PVTZ
  Basis Set: (AUG-CC-PVTZ AUX)
    Blend: AUG-CC-PVTZ-JKFIT

    Orbital Energies [Eh]
    ---------------------

    Doubly Occupied:

       1A    -15.606419     2A    -11.262189     3A    -11.256706
       4A    -11.253282     5A    -11.242044     6A    -11.240757
       7A    -11.240520     8A    -11.237987     9A    -11.237713
      10A    -11.214030    11A    -11.212921    12A     -1.295709
      13A     -1.156228    14A     -1.049861    15A     -1.044084
      16A     -1.016887    17A     -0.959319    18A     -0.838184
      19A     -0.832267    20A     -0.792678    21A     -0.765210
      22A     -0.735556    23A     -0.680049    24A     -0.633314
      25A     -0.629880    26A     -0.594670    27A     -0.589281
      28A     -0.583100    29A     -0.569648    30A     -0.549623
      31A     -0.537149    32A     -0.504636    33A     -0.500849
      34A     -0.494430    35A     -0.363548    36A     -0.350491
      37A     -0.341371    38A     -0.273468

  @DF-RHF Final Energy:  -438.50936178231700

   => Energetics <=

    Nuclear Repulsion Energy =            536.9475173359545579
    One-Electron Energy =               -1657.5416431691401158
    Two-Electron Energy =                 682.0847640508684435
    Total Energy =                       -438.5093617823170007
  Basis Set: (AUG-CC-PVTZ AUX)
    Blend: AUG-CC-PVTZ-RI
    Molecular point group: c1

    Geometry (in Angstrom), charge = 0, multiplicity = 1:

       Center              X                  Y                   Z               Mass
    ------------   -----------------  -----------------  -----------------  -----------------
         N            1.771768328418    -0.971122187878    -0.386669017414    14.003074004430
         C            1.002474328418     0.095709812122     0.026827982586    12.000000000000
         C           -0.456314671582     0.042738812122     0.018015982586    12.000000000000
         C            1.888363328418     1.090007812122     0.432636982586    12.000000000000
         C           -1.201701671582     1.198193812122    -0.270374017414    12.000000000000
         C           -1.141854671582    -1.152905187878     0.293851982586    12.000000000000
         C            3.106258328418    -0.673877187878    -0.277530017414    12.000000000000
         C            3.203811328418     0.606650812122     0.240767982586    12.000000000000
         C           -2.595042671582     1.160362812122    -0.269332017414    12.000000000000
         C           -2.535914671582    -1.192789187878     0.269272982586    12.000000000000
         C           -3.268148671582    -0.036687187878    -0.009849017414    12.000000000000
         H            1.401375428418    -1.781586587878    -0.823329317414     1.007825032230
         H            1.602072328418     2.041695812122     0.862640982586     1.007825032230
         H           -0.676824671582     2.121117812122    -0.507372017414     1.007825032230
         H           -0.580158671582    -2.044956187878     0.566497982586     1.007825032230
         H            3.866087328418    -1.382191187878    -0.577961017414     1.007825032230
         H            4.126035328418     1.124713812122     0.469607982586     1.007825032230
         H           -3.158350671582     2.063564812122    -0.492907017414     1.007825032230
         H           -3.052209671582    -2.125234187878     0.486476982586     1.007825032230
         H           -4.354922671582    -0.066900187878    -0.020279017414     1.007825032230

  Basis Set: AUG-CC-PVTZ
    Blend: AUG-CC-PVTZ
  Basis Set: (AUG-CC-PVTZ AUX)
    Blend: AUG-CC-PVTZ-JKFIT
	 Reference Energy          =    -438.5093617823170007 [Eh]
	 Singles Energy            =      -0.0000000000000000 [Eh]
	 Same-Spin Energy          =      -0.4950785762472331 [Eh]
	 Opposite-Spin Energy      =      -1.5249628681552228 [Eh]
	 Correlation Energy        =      -2.0200414444024557 [Eh]
	 Total Energy              =    -440.5294032267194666 [Eh]

	 ================> DF-SCS-MP2 Energies <==================
	-----------------------------------------------------------
	 SCS Same-Spin Scale       =       0.3333333333333333 [-]
	 SCS Opposite-Spin Scale   =       1.2000000000000000 [-]
	 SCS Same-Spin Energy      =      -0.1650261920824110 [Eh]
	 SCS Opposite-Spin Energy  =      -1.8299554417862671 [Eh]
	 SCS Correlation Energy    =      -1.9949816338686781 [Eh]
	 SCS Total Energy          =    -440.5043434161856908 [Eh]
	-----------------------------------------------------------

  Dipole Moment: [D]
     X:    -0.4466      Y:    -1.3015      Z:    -0.6378     Total:     1.5166

*** Psi4 exiting successfully. Buy a developer a beer!
