                               Psi4 1.3.2 release

  ==> Input File <==

--------------------------------------------------------------------------
#psi4
#
memory 32 gb

molecule  {
0 1
  N        1.7773000    -0.9706020    -0.3863220
  C        1.0080060     0.0962300     0.0271750
  C       -0.4507830     0.0432590     0.0183630
  C        1.8938950     1.0905280     0.4329840
  C       -1.1961700     1.1987140    -0.2700270
  C       -1.1363230    -1.1523850     0.2941990
  C        3.0867386    -0.5931375    -0.2313362
  C        3.2093430     0.6071710     0.2411150
  C       -2.5895110     1.1608830    -0.2689850
  C       -2.5303830    -1.1922690     0.2696200
  C       -3.2626170    -0.0361670    -0.0095020
  H        1.3994420    -1.7974010    -0.8317830
  H        1.6076040     2.0422160     0.8629880
  H       -0.6712930     2.1216380    -0.5070250
  H       -0.5746270    -2.0444360     0.5668450
  H        3.8716190    -1.3816710    -0.5776140
  H        4.1315670     1.1252340     0.4699550
  H       -3.1528190     2.0640850    -0.4925600
  H       -3.0466780    -2.1247140     0.4868240
  H       -4.3493910    -0.0663800    -0.0199320
units angstrom
no_reorient  #important for SAPT in psi4, default
symmetry c1  #important for SAPT in psi4, default
}

set PROPERTIES_ORIGIN ["COM"]
properties('MP2/aug-cc-pvtz', properties = ['dipole'])
--------------------------------------------------------------------------

    Molecular point group: c1
  Charge       = 0
  Multiplicity = 1
  Basis Set: AUG-CC-PVTZ
    Blend: AUG-CC-PVTZ
  Basis Set: (AUG-CC-PVTZ AUX)
    Blend: AUG-CC-PVTZ-JKFIT

    Orbital Energies [Eh]
    ---------------------

    Doubly Occupied:

       1A    -15.601945     2A    -11.261285     3A    -11.253187
       4A    -11.252334     5A    -11.241842     6A    -11.240471
       7A    -11.240318     8A    -11.237780     9A    -11.237399
      10A    -11.211233    11A    -11.202606    12A     -1.297865
      13A     -1.155976    14A     -1.058276    15A     -1.046417
      16A     -1.016871    17A     -0.958914    18A     -0.838083
      19A     -0.831627    20A     -0.790140    21A     -0.763887
      22A     -0.729408    23A     -0.676387    24A     -0.630679
      25A     -0.627651    26A     -0.605793    27A     -0.590011
      28A     -0.576076    29A     -0.569145    30A     -0.554602
      31A     -0.524143    32A     -0.503236    33A     -0.500737
      34A     -0.493708    35A     -0.365284    36A     -0.356210
      37A     -0.341094    38A     -0.278041

  @DF-RHF Final Energy:  -438.49774715702944

   => Energetics <=

    Nuclear Repulsion Energy =            538.3793360657911080
    One-Electron Energy =               -1660.4328439112141496
    Two-Electron Energy =                 683.5557606883937751
    Total Energy =                       -438.4977471570293801
  Basis Set: (AUG-CC-PVTZ AUX)
    Blend: AUG-CC-PVTZ-RI
    Molecular point group: c1

    Geometry (in Angstrom), charge = 0, multiplicity = 1:

       Center              X                  Y                   Z               Mass
    ------------   -----------------  -----------------  -----------------  -----------------
         N            1.773922048821    -0.977735373310    -0.390452331842    14.003074004430
         C            1.004628048821     0.089096626690     0.023044668158    12.000000000000
         C           -0.454160951179     0.036125626690     0.014232668158    12.000000000000
         C            1.890517048821     1.083394626690     0.428853668158    12.000000000000
         C           -1.199547951179     1.191580626690    -0.274157331842    12.000000000000
         C           -1.139700951179    -1.159518373310     0.290068668158    12.000000000000
         C            3.083360648821    -0.600270873310    -0.235466531842    12.000000000000
         C            3.205965048821     0.600037626690     0.236984668158    12.000000000000
         C           -2.592888951179     1.153749626690    -0.273115331842    12.000000000000
         C           -2.533760951179    -1.199402373310     0.265489668158    12.000000000000
         C           -3.265994951179    -0.043300373310    -0.013632331842    12.000000000000
         H            1.396064048821    -1.804534373310    -0.835913331842     1.007825032230
         H            1.604226048821     2.035082626690     0.858857668158     1.007825032230
         H           -0.674670951179     2.114504626690    -0.511155331842     1.007825032230
         H           -0.578004951179    -2.051569373310     0.562714668158     1.007825032230
         H            3.868241048821    -1.388804373310    -0.581744331842     1.007825032230
         H            4.128189048821     1.118100626690     0.465824668158     1.007825032230
         H           -3.156196951179     2.056951626690    -0.496690331842     1.007825032230
         H           -3.050055951179    -2.131847373310     0.482693668158     1.007825032230
         H           -4.352768951179    -0.073513373310    -0.024062331842     1.007825032230

  Basis Set: AUG-CC-PVTZ
    Blend: AUG-CC-PVTZ
  Basis Set: (AUG-CC-PVTZ AUX)
    Blend: AUG-CC-PVTZ-JKFIT
	 Reference Energy          =    -438.4977471570294369 [Eh]
	 Singles Energy            =      -0.0000000000000000 [Eh]
	 Same-Spin Energy          =      -0.4943579665402448 [Eh]
	 Opposite-Spin Energy      =      -1.5240029878896761 [Eh]
	 Correlation Energy        =      -2.0183609544299208 [Eh]
	 Total Energy              =    -440.5161081114593458 [Eh]

	 ================> DF-SCS-MP2 Energies <==================
	-----------------------------------------------------------
	 SCS Same-Spin Scale       =       0.3333333333333333 [-]
	 SCS Opposite-Spin Scale   =       1.2000000000000000 [-]
	 SCS Same-Spin Energy      =      -0.1647859888467482 [Eh]
	 SCS Opposite-Spin Energy  =      -1.8288035854676112 [Eh]
	 SCS Correlation Energy    =      -1.9935895743143595 [Eh]
	 SCS Total Energy          =    -440.4913367313437789 [Eh]
	-----------------------------------------------------------

  Dipole Moment: [D]
     X:    -0.3794      Y:    -1.2429      Z:    -0.6278     Total:     1.4432

*** Psi4 exiting successfully. Buy a developer a beer!
