                               Psi4 1.3.2 release

  ==> Input File <==

--------------------------------------------------------------------------
#psi4
#
memory 32 gb

molecule  {
0 1
  N        1.8552307    -0.9184682    -0.3646431
  C        1.0080060     0.0962300     0.0271750
  C       -0.4507830     0.0432590     0.0183630
  C        1.8938950     1.0905280     0.4329840
  C       -1.1961700     1.1987140    -0.2700270
  C       -1.1363230    -1.1523850     0.2941990
  C        3.1117900    -0.6733570    -0.2771830
  C        3.2093430     0.6071710     0.2411150
  C       -2.5895110     1.1608830    -0.2689850
  C       -2.5303830    -1.1922690     0.2696200
  C       -3.2626170    -0.0361670    -0.0095020
  H        1.3994420    -1.7974010    -0.8317830
  H        1.6076040     2.0422160     0.8629880
  H       -0.6712930     2.1216380    -0.5070250
  H       -0.5746270    -2.0444360     0.5668450
  H        3.8716190    -1.3816710    -0.5776140
  H        4.1315670     1.1252340     0.4699550
  H       -3.1528190     2.0640850    -0.4925600
  H       -3.0466780    -2.1247140     0.4868240
  H       -4.3493910    -0.0663800    -0.0199320
units angstrom
no_reorient  #important for SAPT in psi4, default
symmetry c1  #important for SAPT in psi4, default
}

set PROPERTIES_ORIGIN ["COM"]
properties('MP2/aug-cc-pvtz', properties = ['dipole'])
--------------------------------------------------------------------------

    Molecular point group: c1
  Charge       = 0
  Multiplicity = 1
  Basis Set: AUG-CC-PVTZ
    Blend: AUG-CC-PVTZ
  Basis Set: (AUG-CC-PVTZ AUX)
    Blend: AUG-CC-PVTZ-JKFIT

    Orbital Energies [Eh]
    ---------------------

    Doubly Occupied:

       1A    -15.616753     2A    -11.255769     3A    -11.254947
       4A    -11.251056     5A    -11.242114     6A    -11.240900
       7A    -11.240426     8A    -11.237792     9A    -11.237349
      10A    -11.212446    11A    -11.204754    12A     -1.317813
      13A     -1.157155    14A     -1.053508    15A     -1.032601
      16A     -1.016421    17A     -0.967919    18A     -0.837678
      19A     -0.832659    20A     -0.775775    21A     -0.767129
      22A     -0.738609    23A     -0.684200    24A     -0.639901
      25A     -0.629889    26A     -0.595535    27A     -0.590931
      28A     -0.583750    29A     -0.565516    30A     -0.546354
      31A     -0.534549    32A     -0.506646    33A     -0.501038
      34A     -0.493411    35A     -0.367877    36A     -0.343389
      37A     -0.341373    38A     -0.272042

  @DF-RHF Final Energy:  -438.49253561641046

   => Energetics <=

    Nuclear Repulsion Energy =            537.8387247358066361
    One-Electron Energy =               -1659.2865707221333196
    Two-Electron Energy =                 682.9553103699162193
    Total Energy =                       -438.4925356164104642
  Basis Set: (AUG-CC-PVTZ AUX)
    Blend: AUG-CC-PVTZ-RI
    Molecular point group: c1

    Geometry (in Angstrom), charge = 0, multiplicity = 1:

       Center              X                  Y                   Z               Mass
    ------------   -----------------  -----------------  -----------------  -----------------
         N            1.842124279425    -0.923975831704    -0.367049909596    14.003074004430
         C            0.994899579425     0.090722368296     0.024768190404    12.000000000000
         C           -0.463889420575     0.037751368296     0.015956190404    12.000000000000
         C            1.880788579425     1.085020368296     0.430577190404    12.000000000000
         C           -1.209276420575     1.193206368296    -0.272433809596    12.000000000000
         C           -1.149429420575    -1.157892631704     0.291792190404    12.000000000000
         C            3.098683579425    -0.678864631704    -0.279589809596    12.000000000000
         C            3.196236579425     0.601663368296     0.238708190404    12.000000000000
         C           -2.602617420575     1.155375368296    -0.271391809596    12.000000000000
         C           -2.543489420575    -1.197776631704     0.267213190404    12.000000000000
         C           -3.275723420575    -0.041674631704    -0.011908809596    12.000000000000
         H            1.386335579425    -1.802908631704    -0.834189809596     1.007825032230
         H            1.594497579425     2.036708368296     0.860581190404     1.007825032230
         H           -0.684399420575     2.116130368296    -0.509431809596     1.007825032230
         H           -0.587733420575    -2.049943631704     0.564438190404     1.007825032230
         H            3.858512579425    -1.387178631704    -0.580020809596     1.007825032230
         H            4.118460579425     1.119726368296     0.467548190404     1.007825032230
         H           -3.165925420575     2.058577368296    -0.494966809596     1.007825032230
         H           -3.059784420575    -2.130221631704     0.484417190404     1.007825032230
         H           -4.362497420575    -0.071887631704    -0.022338809596     1.007825032230

  Basis Set: AUG-CC-PVTZ
    Blend: AUG-CC-PVTZ
  Basis Set: (AUG-CC-PVTZ AUX)
    Blend: AUG-CC-PVTZ-JKFIT
	 Reference Energy          =    -438.4925356164104642 [Eh]
	 Singles Energy            =      -0.0000000000000000 [Eh]
	 Same-Spin Energy          =      -0.4965875858097247 [Eh]
	 Opposite-Spin Energy      =      -1.5261306623868882 [Eh]
	 Correlation Energy        =      -2.0227182481966128 [Eh]
	 Total Energy              =    -440.5152538646070752 [Eh]

	 ================> DF-SCS-MP2 Energies <==================
	-----------------------------------------------------------
	 SCS Same-Spin Scale       =       0.3333333333333333 [-]
	 SCS Opposite-Spin Scale   =       1.2000000000000000 [-]
	 SCS Same-Spin Energy      =      -0.1655291952699082 [Eh]
	 SCS Opposite-Spin Energy  =      -1.8313567948642657 [Eh]
	 SCS Correlation Energy    =      -1.9968859901341740 [Eh]
	 SCS Total Energy          =    -440.4894216065446244 [Eh]
	-----------------------------------------------------------

  Dipole Moment: [D]
     X:    -0.5485      Y:    -1.5357      Z:    -0.7284     Total:     1.7859

*** Psi4 exiting successfully. Buy a developer a beer!
