                               Psi4 1.4a3.dev225

  ==> Input File <==

--------------------------------------------------------------------------
#psi4
#
memory 32 gb

molecule  {
0 1
  N        1.7773000    -0.9706020    -0.3863220
  C        1.0080060     0.0962300     0.0271750
  C       -0.4008168     0.0450734     0.0186648
  C        1.8938950     1.0905280     0.4329840
  C       -1.1961700     1.1987140    -0.2700270
  C       -1.1363230    -1.1523850     0.2941990
  C        3.1117900    -0.6733570    -0.2771830
  C        3.2093430     0.6071710     0.2411150
  C       -2.5895110     1.1608830    -0.2689850
  C       -2.5303830    -1.1922690     0.2696200
  C       -3.2626170    -0.0361670    -0.0095020
  H        1.3994420    -1.7974010    -0.8317830
  H        1.6076040     2.0422160     0.8629880
  H       -0.6712930     2.1216380    -0.5070250
  H       -0.5746270    -2.0444360     0.5668450
  H        3.8716190    -1.3816710    -0.5776140
  H        4.1315670     1.1252340     0.4699550
  H       -3.1528190     2.0640850    -0.4925600
  H       -3.0466780    -2.1247140     0.4868240
  H       -4.3493910    -0.0663800    -0.0199320
units angstrom
no_reorient  #important for SAPT in psi4, default
symmetry c1  #important for SAPT in psi4, default
}

set PROPERTIES_ORIGIN ["COM"]
properties('MP2/aug-cc-pvtz', properties = ['dipole'])
--------------------------------------------------------------------------

    Molecular point group: c1
  Charge       = 0
  Multiplicity = 1
  Basis Set: AUG-CC-PVTZ
    Blend: AUG-CC-PVTZ
  Basis Set: (AUG-CC-PVTZ AUX)
    Blend: AUG-CC-PVTZ-JKFIT

    Orbital Energies [Eh]
    ---------------------

    Doubly Occupied:

       1A    -15.609315     2A    -11.259920     3A    -11.258867
       4A    -11.254406     5A    -11.243094     6A    -11.240896
       7A    -11.240572     8A    -11.239389     9A    -11.237431
      10A    -11.215835    11A    -11.214638    12A     -1.296498
      13A     -1.151251    14A     -1.053632    15A     -1.044955
      16A     -1.013658    17A     -0.958667    18A     -0.843014
      19A     -0.828838    20A     -0.789585    21A     -0.766511
      22A     -0.736622    23A     -0.680572    24A     -0.633661
      25A     -0.627811    26A     -0.594380    27A     -0.587919
      28A     -0.583243    29A     -0.571578    30A     -0.550802
      31A     -0.538556    32A     -0.508676    33A     -0.498941
      34A     -0.486927    35A     -0.365091    36A     -0.351576
      37A     -0.340010    38A     -0.269937

  @DF-RHF Final Energy:  -438.50377464639274

   => Energetics <=

    Nuclear Repulsion Energy =            536.8397066437860303
    One-Electron Energy =               -1657.3124105255249106
    Two-Electron Energy =                 681.9689292353461951
    Total Energy =                       -438.5037746463926851
  Basis Set: (AUG-CC-PVTZ AUX)
    Blend: AUG-CC-PVTZ-RI
    Molecular point group: c1

    Geometry (in Angstrom), charge = 0, multiplicity = 1:

       Center              X                  Y                   Z               Mass
    ------------   -----------------  -----------------  -----------------  -----------------
         N            1.767630099547    -0.971159304334    -0.386632337205    14.003074004430
         C            0.998336099547     0.095672695666     0.026864662795    12.000000000000
         C           -0.410486700453     0.044516095666     0.018354462795    12.000000000000
         C            1.884225099547     1.089970695666     0.432673662795    12.000000000000
         C           -1.205839900453     1.198156695666    -0.270337337205    12.000000000000
         C           -1.145992900453    -1.152942304334     0.293888662795    12.000000000000
         C            3.102120099547    -0.673914304334    -0.277493337205    12.000000000000
         C            3.199673099547     0.606613695666     0.240804662795    12.000000000000
         C           -2.599180900453     1.160325695666    -0.269295337205    12.000000000000
         C           -2.540052900453    -1.192826304334     0.269309662795    12.000000000000
         C           -3.272286900453    -0.036724304334    -0.009812337205    12.000000000000
         H            1.389772099547    -1.797958304334    -0.832093337205     1.007825032230
         H            1.597934099547     2.041658695666     0.862677662795     1.007825032230
         H           -0.680962900453     2.121080695666    -0.507335337205     1.007825032230
         H           -0.584296900453    -2.044993304334     0.566534662795     1.007825032230
         H            3.861949099547    -1.382228304334    -0.577924337205     1.007825032230
         H            4.121897099547     1.124676695666     0.469644662795     1.007825032230
         H           -3.162488900453     2.063527695666    -0.492870337205     1.007825032230
         H           -3.056347900453    -2.125271304334     0.486513662795     1.007825032230
         H           -4.359060900453    -0.066937304334    -0.020242337205     1.007825032230

  Basis Set: AUG-CC-PVTZ
    Blend: AUG-CC-PVTZ
  Basis Set: (AUG-CC-PVTZ AUX)
    Blend: AUG-CC-PVTZ-JKFIT
	 Reference Energy          =    -438.5037746463927419 [Eh]
	 Singles Energy            =      -0.0000000000000000 [Eh]
	 Same-Spin Energy          =      -0.4961566098516129 [Eh]
	 Opposite-Spin Energy      =      -1.5267081684125974 [Eh]
	 Correlation Energy        =      -2.0228647782642102 [Eh]
	 Total Energy              =    -440.5266394246569348 [Eh]

	 ================> DF-SCS-MP2 Energies <==================
	-----------------------------------------------------------
	 SCS Same-Spin Scale       =       0.3333333333333333 [-]
	 SCS Opposite-Spin Scale   =       1.2000000000000000 [-]
	 SCS Same-Spin Energy      =      -0.1653855366172043 [Eh]
	 SCS Opposite-Spin Energy  =      -1.8320498020951168 [Eh]
	 SCS Correlation Energy    =      -1.9974353387123212 [Eh]
	 SCS Total Energy          =    -440.5012099851050493 [Eh]
	-----------------------------------------------------------

  Dipole Moment: [D]
     X:    -0.2653      Y:    -1.3104      Z:    -0.6432     Total:     1.4837

*** Psi4 exiting successfully. Buy a developer a beer!
