                               Psi4 1.4a3.dev225

  ==> Input File <==

--------------------------------------------------------------------------
#psi4
#
memory 32 gb

molecule  {
0 1
  N        1.7773000    -0.9706020    -0.3863220
  C        1.0080060     0.0962300     0.0271750
  C       -0.4507830     0.0432590     0.0183630
  C        1.8938950     1.0905280     0.4329840
  C       -1.2226974     1.2398353    -0.2802905
  C       -1.1363230    -1.1523850     0.2941990
  C        3.1117900    -0.6733570    -0.2771830
  C        3.2093430     0.6071710     0.2411150
  C       -2.5895110     1.1608830    -0.2689850
  C       -2.5303830    -1.1922690     0.2696200
  C       -3.2626170    -0.0361670    -0.0095020
  H        1.3994420    -1.7974010    -0.8317830
  H        1.6076040     2.0422160     0.8629880
  H       -0.6712930     2.1216380    -0.5070250
  H       -0.5746270    -2.0444360     0.5668450
  H        3.8716190    -1.3816710    -0.5776140
  H        4.1315670     1.1252340     0.4699550
  H       -3.1528190     2.0640850    -0.4925600
  H       -3.0466780    -2.1247140     0.4868240
  H       -4.3493910    -0.0663800    -0.0199320
units angstrom
no_reorient  #important for SAPT in psi4, default
symmetry c1  #important for SAPT in psi4, default
}

set PROPERTIES_ORIGIN ["COM"]
properties('MP2/aug-cc-pvtz', properties = ['dipole'])
--------------------------------------------------------------------------

    Molecular point group: c1
  Charge       = 0
  Multiplicity = 1
  Basis Set: AUG-CC-PVTZ
    Blend: AUG-CC-PVTZ
  Basis Set: (AUG-CC-PVTZ AUX)
    Blend: AUG-CC-PVTZ-JKFIT

    Orbital Energies [Eh]
    ---------------------

    Doubly Occupied:

       1A    -15.608549     2A    -11.262627     3A    -11.258045
       4A    -11.257245     5A    -11.242126     6A    -11.240017
       7A    -11.238912     8A    -11.237919     9A    -11.236908
      10A    -11.214463    11A    -11.213380    12A     -1.294434
      13A     -1.153290    14A     -1.046897    15A     -1.042783
      16A     -1.020064    17A     -0.957954    18A     -0.840322
      19A     -0.829507    20A     -0.788568    21A     -0.765689
      22A     -0.733489    23A     -0.682953    24A     -0.632950
      25A     -0.629093    26A     -0.596378    27A     -0.590067
      28A     -0.580842    29A     -0.568529    30A     -0.550755
      31A     -0.538047    32A     -0.506494    33A     -0.500376
      34A     -0.489510    35A     -0.361489    36A     -0.350605
      37A     -0.344120    38A     -0.271761

  @DF-RHF Final Energy:  -438.50572801827371

   => Energetics <=

    Nuclear Repulsion Energy =            536.1419455620904273
    One-Electron Energy =               -1655.9410278623711292
    Two-Electron Energy =                 681.2933542820069306
    Total Energy =                       -438.5057280182736577
  Basis Set: (AUG-CC-PVTZ AUX)
    Blend: AUG-CC-PVTZ-RI
    Molecular point group: c1

    Geometry (in Angstrom), charge = 0, multiplicity = 1:

       Center              X                  Y                   Z               Mass
    ------------   -----------------  -----------------  -----------------  -----------------
         N            1.774045845332    -0.974456090967    -0.385746194065    14.003074004430
         C            1.004751845332     0.092375909033     0.027750805935    12.000000000000
         C           -0.454037154668     0.039404909033     0.018938805935    12.000000000000
         C            1.890640845332     1.086673909033     0.433559805935    12.000000000000
         C           -1.225951554668     1.235981209033    -0.279714694065    12.000000000000
         C           -1.139577154668    -1.156239090967     0.294774805935    12.000000000000
         C            3.108535845332    -0.677211090967    -0.276607194065    12.000000000000
         C            3.206088845332     0.603316909033     0.241690805935    12.000000000000
         C           -2.592765154668     1.157028909033    -0.268409194065    12.000000000000
         C           -2.533637154668    -1.196123090967     0.270195805935    12.000000000000
         C           -3.265871154668    -0.040021090967    -0.008926194065    12.000000000000
         H            1.396187845332    -1.801255090967    -0.831207194065     1.007825032230
         H            1.604349845332     2.038361909033     0.863563805935     1.007825032230
         H           -0.674547154668     2.117783909033    -0.506449194065     1.007825032230
         H           -0.577881154668    -2.048290090967     0.567420805935     1.007825032230
         H            3.868364845332    -1.385525090967    -0.577038194065     1.007825032230
         H            4.128312845332     1.121379909033     0.470530805935     1.007825032230
         H           -3.156073154668     2.060230909033    -0.491984194065     1.007825032230
         H           -3.049932154668    -2.128568090967     0.487399805935     1.007825032230
         H           -4.352645154668    -0.070234090967    -0.019356194065     1.007825032230

  Basis Set: AUG-CC-PVTZ
    Blend: AUG-CC-PVTZ
  Basis Set: (AUG-CC-PVTZ AUX)
    Blend: AUG-CC-PVTZ-JKFIT
	 Reference Energy          =    -438.5057280182737145 [Eh]
	 Singles Energy            =      -0.0000000000000000 [Eh]
	 Same-Spin Energy          =      -0.4952208547424987 [Eh]
	 Opposite-Spin Energy      =      -1.5254782202961183 [Eh]
	 Correlation Energy        =      -2.0206990750386171 [Eh]
	 Total Energy              =    -440.5264270933123498 [Eh]

	 ================> DF-SCS-MP2 Energies <==================
	-----------------------------------------------------------
	 SCS Same-Spin Scale       =       0.3333333333333333 [-]
	 SCS Opposite-Spin Scale   =       1.2000000000000000 [-]
	 SCS Same-Spin Energy      =      -0.1650736182474996 [Eh]
	 SCS Opposite-Spin Energy  =      -1.8305738643553420 [Eh]
	 SCS Correlation Energy    =      -1.9956474826028416 [Eh]
	 SCS Total Energy          =    -440.5013755008765770 [Eh]
	-----------------------------------------------------------

  Dipole Moment: [D]
     X:    -0.4007      Y:    -1.3197      Z:    -0.6473     Total:     1.5236

*** Psi4 exiting successfully. Buy a developer a beer!
