                               Psi4 1.3.2 release

  ==> Input File <==

--------------------------------------------------------------------------
#psi4
#
memory 32 gb

molecule  {
0 1
  N        1.8167605    -0.9447665    -0.3767631
  C        1.0080060     0.0962300     0.0271750
  C       -0.4507830     0.0432590     0.0183630
  C        1.8938950     1.0905280     0.4329840
  C       -1.1961700     1.1987140    -0.2700270
  C       -1.1363230    -1.1523850     0.2941990
  C        3.1117900    -0.6733570    -0.2771830
  C        3.2093430     0.6071710     0.2411150
  C       -2.5895110     1.1608830    -0.2689850
  C       -2.5303830    -1.1922690     0.2696200
  C       -3.2626170    -0.0361670    -0.0095020
  H        1.3994420    -1.7974010    -0.8317830
  H        1.6076040     2.0422160     0.8629880
  H       -0.6712930     2.1216380    -0.5070250
  H       -0.5746270    -2.0444360     0.5668450
  H        3.8716190    -1.3816710    -0.5776140
  H        4.1315670     1.1252340     0.4699550
  H       -3.1528190     2.0640850    -0.4925600
  H       -3.0466780    -2.1247140     0.4868240
  H       -4.3493910    -0.0663800    -0.0199320
units angstrom
no_reorient  #important for SAPT in psi4, default
symmetry c1  #important for SAPT in psi4, default
}

set PROPERTIES_ORIGIN ["COM"]
properties('MP2/aug-cc-pvtz', properties = ['dipole'])
--------------------------------------------------------------------------

    Molecular point group: c1
  Charge       = 0
  Multiplicity = 1
  Basis Set: AUG-CC-PVTZ
    Blend: AUG-CC-PVTZ
  Basis Set: (AUG-CC-PVTZ AUX)
    Blend: AUG-CC-PVTZ-JKFIT

    Orbital Energies [Eh]
    ---------------------

    Doubly Occupied:

       1A    -15.612532     2A    -11.258593     3A    -11.254288
       4A    -11.253791     5A    -11.242096     6A    -11.240832
       7A    -11.240501     8A    -11.237878     9A    -11.237561
      10A    -11.212833    11A    -11.208978    12A     -1.304981
      13A     -1.156685    14A     -1.050742    15A     -1.037687
      16A     -1.016668    17A     -0.963443    18A     -0.837582
      19A     -0.832493    20A     -0.780524    21A     -0.767606
      22A     -0.736858    23A     -0.681908    24A     -0.636343
      25A     -0.629842    26A     -0.591185    27A     -0.590899
      28A     -0.579686    29A     -0.573775    30A     -0.547965
      31A     -0.536091    32A     -0.505722    33A     -0.500958
      34A     -0.494004    35A     -0.365569    36A     -0.346572
      37A     -0.341429    38A     -0.272813

  @DF-RHF Final Energy:  -438.50461158768275

   => Energetics <=

    Nuclear Repulsion Energy =            537.3018343522935538
    One-Electron Energy =               -1658.2530620342197381
    Two-Electron Energy =                 682.4466160942433817
    Total Energy =                       -438.5046115876828026
  Basis Set: (AUG-CC-PVTZ AUX)
    Blend: AUG-CC-PVTZ-RI
    Molecular point group: c1

    Geometry (in Angstrom), charge = 0, multiplicity = 1:

       Center              X                  Y                   Z               Mass
    ------------   -----------------  -----------------  -----------------  -----------------
         N            1.807419284443    -0.947700230577    -0.377983685328    14.003074004430
         C            0.998664784443     0.093296269423     0.025954414672    12.000000000000
         C           -0.460124215557     0.040325269423     0.017142414672    12.000000000000
         C            1.884553784443     1.087594269423     0.431763414672    12.000000000000
         C           -1.205511215557     1.195780269423    -0.271247585328    12.000000000000
         C           -1.145664215557    -1.155318730577     0.292978414672    12.000000000000
         C            3.102448784443    -0.676290730577    -0.278403585328    12.000000000000
         C            3.200001784443     0.604237269423     0.239894414672    12.000000000000
         C           -2.598852215557     1.157949269423    -0.270205585328    12.000000000000
         C           -2.539724215557    -1.195202730577     0.268399414672    12.000000000000
         C           -3.271958215557    -0.039100730577    -0.010722585328    12.000000000000
         H            1.390100784443    -1.800334730577    -0.833003585328     1.007825032230
         H            1.598262784443     2.039282269423     0.861767414672     1.007825032230
         H           -0.680634215557     2.118704269423    -0.508245585328     1.007825032230
         H           -0.583968215557    -2.047369730577     0.565624414672     1.007825032230
         H            3.862277784443    -1.384604730577    -0.578834585328     1.007825032230
         H            4.122225784443     1.122300269423     0.468734414672     1.007825032230
         H           -3.162160215557     2.061151269423    -0.493780585328     1.007825032230
         H           -3.056019215557    -2.127647730577     0.485603414672     1.007825032230
         H           -4.358732215557    -0.069313730577    -0.021152585328     1.007825032230

  Basis Set: AUG-CC-PVTZ
    Blend: AUG-CC-PVTZ
  Basis Set: (AUG-CC-PVTZ AUX)
    Blend: AUG-CC-PVTZ-JKFIT
	 Reference Energy          =    -438.5046115876827457 [Eh]
	 Singles Energy            =      -0.0000000000000000 [Eh]
	 Same-Spin Energy          =      -0.4958725312445164 [Eh]
	 Opposite-Spin Energy      =      -1.5255729191274110 [Eh]
	 Correlation Energy        =      -2.0214454503719272 [Eh]
	 Total Energy              =    -440.5260570380546596 [Eh]

	 ================> DF-SCS-MP2 Energies <==================
	-----------------------------------------------------------
	 SCS Same-Spin Scale       =       0.3333333333333333 [-]
	 SCS Opposite-Spin Scale   =       1.2000000000000000 [-]
	 SCS Same-Spin Energy      =      -0.1652908437481721 [Eh]
	 SCS Opposite-Spin Energy  =      -1.8306875029528931 [Eh]
	 SCS Correlation Energy    =      -1.9959783467010652 [Eh]
	 SCS Total Energy          =    -440.5005899343838109 [Eh]
	-----------------------------------------------------------

  Dipole Moment: [D]
     X:    -0.5075      Y:    -1.4294      Z:    -0.6883     Total:     1.6657

*** Psi4 exiting successfully. Buy a developer a beer!
