                               Psi4 1.3.2 release

  ==> Input File <==

--------------------------------------------------------------------------
#psi4
#
memory 32 gb

molecule  {
0 1
  N        1.7773000    -0.9706020    -0.3863220
  C        1.0080060     0.0962300     0.0271750
  C       -0.4507830     0.0432590     0.0183630
  C        1.9031712     1.1117279     0.4415861
  C       -1.1961700     1.1987140    -0.2700270
  C       -1.1363230    -1.1523850     0.2941990
  C        3.1117900    -0.6733570    -0.2771830
  C        3.2093430     0.6071710     0.2411150
  C       -2.5895110     1.1608830    -0.2689850
  C       -2.5303830    -1.1922690     0.2696200
  C       -3.2626170    -0.0361670    -0.0095020
  H        1.3994420    -1.7974010    -0.8317830
  H        1.6076040     2.0422160     0.8629880
  H       -0.6712930     2.1216380    -0.5070250
  H       -0.5746270    -2.0444360     0.5668450
  H        3.8716190    -1.3816710    -0.5776140
  H        4.1315670     1.1252340     0.4699550
  H       -3.1528190     2.0640850    -0.4925600
  H       -3.0466780    -2.1247140     0.4868240
  H       -4.3493910    -0.0663800    -0.0199320
units angstrom
no_reorient  #important for SAPT in psi4, default
symmetry c1  #important for SAPT in psi4, default
}

set PROPERTIES_ORIGIN ["COM"]
properties('MP2/aug-cc-pvtz', properties = ['dipole'])
--------------------------------------------------------------------------

    Molecular point group: c1
  Charge       = 0
  Multiplicity = 1
  Basis Set: AUG-CC-PVTZ
    Blend: AUG-CC-PVTZ
  Basis Set: (AUG-CC-PVTZ AUX)
    Blend: AUG-CC-PVTZ-JKFIT

    Orbital Energies [Eh]
    ---------------------

    Doubly Occupied:

       1A    -15.610132     2A    -11.265167     3A    -11.256156
       4A    -11.253268     5A    -11.242055     6A    -11.240761
       7A    -11.240505     8A    -11.237947     9A    -11.237675
      10A    -11.214938    11A    -11.213846    12A     -1.293347
      13A     -1.156180    14A     -1.047945    15A     -1.042740
      16A     -1.016817    17A     -0.957552    18A     -0.838341
      19A     -0.832164    20A     -0.789315    21A     -0.766751
      22A     -0.735040    23A     -0.679634    24A     -0.633388
      25A     -0.629557    26A     -0.594715    27A     -0.588925
      28A     -0.583386    29A     -0.568342    30A     -0.549849
      31A     -0.538846    32A     -0.504638    33A     -0.500109
      34A     -0.493814    35A     -0.362668    36A     -0.350684
      37A     -0.341405    38A     -0.271202

  @DF-RHF Final Energy:  -438.50716100808268

   => Energetics <=

    Nuclear Repulsion Energy =            536.3531492245003847
    One-Electron Energy =               -1656.3610074431630892
    Two-Electron Energy =                 681.5006972105800287
    Total Energy =                       -438.5071610080826758
  Basis Set: (AUG-CC-PVTZ AUX)
    Blend: AUG-CC-PVTZ-RI
    Molecular point group: c1

    Geometry (in Angstrom), charge = 0, multiplicity = 1:

       Center              X                  Y                   Z               Mass
    ------------   -----------------  -----------------  -----------------  -----------------
         N            1.771042890892    -0.972785223887    -0.387328508058    14.003074004430
         C            1.001748890892     0.094046776113     0.026168491942    12.000000000000
         C           -0.457040109108     0.041075776113     0.017356491942    12.000000000000
         C            1.896914090892     1.109544676113     0.440579591942    12.000000000000
         C           -1.202427109108     1.196530776113    -0.271033508058    12.000000000000
         C           -1.142580109108    -1.154568223887     0.293192491942    12.000000000000
         C            3.105532890892    -0.675540223887    -0.278189508058    12.000000000000
         C            3.203085890892     0.604987776113     0.240108491942    12.000000000000
         C           -2.595768109108     1.158699776113    -0.269991508058    12.000000000000
         C           -2.536640109108    -1.194452223887     0.268613491942    12.000000000000
         C           -3.268874109108    -0.038350223887    -0.010508508058    12.000000000000
         H            1.393184890892    -1.799584223887    -0.832789508058     1.007825032230
         H            1.601346890892     2.040032776113     0.861981491942     1.007825032230
         H           -0.677550109108     2.119454776113    -0.508031508058     1.007825032230
         H           -0.580884109108    -2.046619223887     0.565838491942     1.007825032230
         H            3.865361890892    -1.383854223887    -0.578620508058     1.007825032230
         H            4.125309890892     1.123050776113     0.468948491942     1.007825032230
         H           -3.159076109108     2.061901776113    -0.493566508058     1.007825032230
         H           -3.052935109108    -2.126897223887     0.485817491942     1.007825032230
         H           -4.355648109108    -0.068563223887    -0.020938508058     1.007825032230

  Basis Set: AUG-CC-PVTZ
    Blend: AUG-CC-PVTZ
  Basis Set: (AUG-CC-PVTZ AUX)
    Blend: AUG-CC-PVTZ-JKFIT
	 Reference Energy          =    -438.5071610080826758 [Eh]
	 Singles Energy            =      -0.0000000000000000 [Eh]
	 Same-Spin Energy          =      -0.4955488881281326 [Eh]
	 Opposite-Spin Energy      =      -1.5258441743318452 [Eh]
	 Correlation Energy        =      -2.0213930624599779 [Eh]
	 Total Energy              =    -440.5285540705426683 [Eh]

	 ================> DF-SCS-MP2 Energies <==================
	-----------------------------------------------------------
	 SCS Same-Spin Scale       =       0.3333333333333333 [-]
	 SCS Opposite-Spin Scale   =       1.2000000000000000 [-]
	 SCS Same-Spin Energy      =      -0.1651829627093775 [Eh]
	 SCS Opposite-Spin Energy  =      -1.8310130091982142 [Eh]
	 SCS Correlation Energy    =      -1.9961959719075917 [Eh]
	 SCS Total Energy          =    -440.5033569799902580 [Eh]
	-----------------------------------------------------------

  Dipole Moment: [D]
     X:    -0.4367      Y:    -1.3319      Z:    -0.6512     Total:     1.5455

*** Psi4 exiting successfully. Buy a developer a beer!
