                               Psi4 1.3.2 release

  ==> Input File <==

--------------------------------------------------------------------------
#psi4
#
memory 32 gb

molecule  {
0 1
  N        1.7773000    -0.9706020    -0.3863220
  C        1.0080060     0.0962300     0.0271750
  C       -0.4507830     0.0432590     0.0183630
  C        1.8938950     1.0905280     0.4329840
  C       -1.1961700     1.1987140    -0.2700270
  C       -1.1363230    -1.1523850     0.2941990
  C        3.1117900    -0.6733570    -0.2771830
  C        3.2093430     0.6071710     0.2411150
  C       -2.5895110     1.1608830    -0.2689850
  C       -2.5303830    -1.1922690     0.2696200
  C       -3.2626170    -0.0361670    -0.0095020
  H        1.3994420    -1.7974010    -0.8317830
  H        1.6604810     1.8664422     0.7835676
  H       -0.6712930     2.1216380    -0.5070250
  H       -0.5746270    -2.0444360     0.5668450
  H        3.8716190    -1.3816710    -0.5776140
  H        4.1315670     1.1252340     0.4699550
  H       -3.1528190     2.0640850    -0.4925600
  H       -3.0466780    -2.1247140     0.4868240
  H       -4.3493910    -0.0663800    -0.0199320
units angstrom
no_reorient  #important for SAPT in psi4, default
symmetry c1  #important for SAPT in psi4, default
}

set PROPERTIES_ORIGIN ["COM"]
properties('MP2/aug-cc-pvtz', properties = ['dipole'])
--------------------------------------------------------------------------

    Molecular point group: c1
  Charge       = 0
  Multiplicity = 1
  Basis Set: AUG-CC-PVTZ
    Blend: AUG-CC-PVTZ
  Basis Set: (AUG-CC-PVTZ AUX)
    Blend: AUG-CC-PVTZ-JKFIT

    Orbital Energies [Eh]
    ---------------------

    Doubly Occupied:

       1A    -15.607383     2A    -11.261097     3A    -11.255505
       4A    -11.253340     5A    -11.242192     6A    -11.240975
       7A    -11.240608     8A    -11.238223     9A    -11.237897
      10A    -11.212016    11A    -11.189496    12A     -1.293152
      13A     -1.156349    14A     -1.053512    15A     -1.044229
      16A     -1.017106    17A     -0.961551    18A     -0.843876
      19A     -0.832559    20A     -0.802870    21A     -0.778195
      22A     -0.735564    23A     -0.680010    24A     -0.635361
      25A     -0.631643    26A     -0.605592    27A     -0.589798
      28A     -0.583837    29A     -0.569832    30A     -0.559288
      31A     -0.540380    32A     -0.504672    33A     -0.500704
      34A     -0.494651    35A     -0.363332    36A     -0.349491
      37A     -0.341581    38A     -0.272893

  @DF-RHF Final Energy:  -438.47305510281979

   => Energetics <=

    Nuclear Repulsion Energy =            537.9594548834754733
    One-Electron Energy =               -1659.4235039388386213
    Two-Electron Energy =                 682.9909939525433629
    Total Energy =                       -438.4730551028197851
  Basis Set: (AUG-CC-PVTZ AUX)
    Blend: AUG-CC-PVTZ-RI
    Molecular point group: c1

    Geometry (in Angstrom), charge = 0, multiplicity = 1:

       Center              X                  Y                   Z               Mass
    ------------   -----------------  -----------------  -----------------  -----------------
         N            1.771448442137    -0.969768955761    -0.386047578549    14.003074004430
         C            1.002154442137     0.097063044239     0.027449421451    12.000000000000
         C           -0.456634557863     0.044092044239     0.018637421451    12.000000000000
         C            1.888043442137     1.091361044239     0.433258421451    12.000000000000
         C           -1.202021557863     1.199547044239    -0.269752578549    12.000000000000
         C           -1.142174557863    -1.151551955761     0.294473421451    12.000000000000
         C            3.105938442137    -0.672523955761    -0.276908578549    12.000000000000
         C            3.203491442137     0.608004044239     0.241389421451    12.000000000000
         C           -2.595362557863     1.161716044239    -0.268710578549    12.000000000000
         C           -2.536234557863    -1.191435955761     0.269894421451    12.000000000000
         C           -3.268468557863    -0.035333955761    -0.009227578549    12.000000000000
         H            1.393590442137    -1.796567955761    -0.831508578549     1.007825032230
         H            1.654629442137     1.867275244239     0.783842021451     1.007825032230
         H           -0.677144557863     2.122471044239    -0.506750578549     1.007825032230
         H           -0.580478557863    -2.043602955761     0.567119421451     1.007825032230
         H            3.865767442137    -1.380837955761    -0.577339578549     1.007825032230
         H            4.125715442137     1.126067044239     0.470229421451     1.007825032230
         H           -3.158670557863     2.064918044239    -0.492285578549     1.007825032230
         H           -3.052529557863    -2.123880955761     0.487098421451     1.007825032230
         H           -4.355242557863    -0.065546955761    -0.019657578549     1.007825032230

  Basis Set: AUG-CC-PVTZ
    Blend: AUG-CC-PVTZ
  Basis Set: (AUG-CC-PVTZ AUX)
    Blend: AUG-CC-PVTZ-JKFIT
	 Reference Energy          =    -438.4730551028197851 [Eh]
	 Singles Energy            =      -0.0000000000000000 [Eh]
	 Same-Spin Energy          =      -0.4950524409334907 [Eh]
	 Opposite-Spin Energy      =      -1.5247512566505215 [Eh]
	 Correlation Energy        =      -2.0198036975840123 [Eh]
	 Total Energy              =    -440.4928588004037806 [Eh]

	 ================> DF-SCS-MP2 Energies <==================
	-----------------------------------------------------------
	 SCS Same-Spin Scale       =       0.3333333333333333 [-]
	 SCS Opposite-Spin Scale   =       1.2000000000000000 [-]
	 SCS Same-Spin Energy      =      -0.1650174803111635 [Eh]
	 SCS Opposite-Spin Energy  =      -1.8297015079806256 [Eh]
	 SCS Correlation Energy    =      -1.9947189882917891 [Eh]
	 SCS Total Energy          =    -440.4677740911115507 [Eh]
	-----------------------------------------------------------

  Dipole Moment: [D]
     X:    -0.4783      Y:    -1.3165      Z:    -0.6470     Total:     1.5429

*** Psi4 exiting successfully. Buy a developer a beer!
