                               Psi4 1.3.2 release

  ==> Input File <==

--------------------------------------------------------------------------
#psi4
#
memory 32 gb

molecule  {
0 1
  N        1.7773000    -0.9706020    -0.3863220
  C        1.0080060     0.0962300     0.0271750
  C       -0.4507830     0.0432590     0.0183630
  C        1.8938950     1.0905280     0.4329840
  C       -1.1961700     1.1987140    -0.2700270
  C       -1.1363230    -1.1523850     0.2941990
  C        3.3063869    -0.6300124    -0.2612682
  C        3.2093430     0.6071710     0.2411150
  C       -2.5895110     1.1608830    -0.2689850
  C       -2.5303830    -1.1922690     0.2696200
  C       -3.2626170    -0.0361670    -0.0095020
  H        1.3994420    -1.7974010    -0.8317830
  H        1.6076040     2.0422160     0.8629880
  H       -0.6712930     2.1216380    -0.5070250
  H       -0.5746270    -2.0444360     0.5668450
  H        3.8716190    -1.3816710    -0.5776140
  H        4.1315670     1.1252340     0.4699550
  H       -3.1528190     2.0640850    -0.4925600
  H       -3.0466780    -2.1247140     0.4868240
  H       -4.3493910    -0.0663800    -0.0199320
units angstrom
no_reorient  #important for SAPT in psi4, default
symmetry c1  #important for SAPT in psi4, default
}

set PROPERTIES_ORIGIN ["COM"]
properties('MP2/aug-cc-pvtz', properties = ['dipole'])
--------------------------------------------------------------------------

    Molecular point group: c1
  Charge       = 0
  Multiplicity = 1
  Basis Set: AUG-CC-PVTZ
    Blend: AUG-CC-PVTZ
  Basis Set: (AUG-CC-PVTZ AUX)
    Blend: AUG-CC-PVTZ-JKFIT

    Orbital Energies [Eh]
    ---------------------

    Doubly Occupied:

       1A    -15.589517     2A    -11.274629     3A    -11.256433
       4A    -11.254855     5A    -11.244551     6A    -11.243350
       7A    -11.242922     8A    -11.241968     9A    -11.241300
      10A    -11.223936    11A    -11.208306    12A     -1.250240
      13A     -1.157023    14A     -1.049858    15A     -1.037847
      16A     -1.018830    17A     -0.963493    18A     -0.846525
      19A     -0.833362    20A     -0.782738    21A     -0.761181
      22A     -0.733298    23A     -0.679201    24A     -0.637979
      25A     -0.627902    26A     -0.603725    27A     -0.592196
      28A     -0.562245    29A     -0.560195    30A     -0.550233
      31A     -0.519504    32A     -0.503250    33A     -0.501193
      34A     -0.495516    35A     -0.367666    36A     -0.347352
      37A     -0.343216    38A     -0.281210

  @DF-RHF Final Energy:  -438.47159085638378

   => Energetics <=

    Nuclear Repulsion Energy =            533.6609381378154922
    One-Electron Energy =               -1651.0075620403961238
    Two-Electron Energy =                 678.8750330461969043
    Total Energy =                       -438.4715908563837274
  Basis Set: (AUG-CC-PVTZ AUX)
    Blend: AUG-CC-PVTZ-RI
    Molecular point group: c1

    Geometry (in Angstrom), charge = 0, multiplicity = 1:

       Center              X                  Y                   Z               Mass
    ------------   -----------------  -----------------  -----------------  -----------------
         N            1.755499492492    -0.974642565752    -0.387941845961    14.003074004430
         C            0.986205492492     0.092189434248     0.025555154039    12.000000000000
         C           -0.472583507508     0.039218434248     0.016743154039    12.000000000000
         C            1.872094492492     1.086487434248     0.431364154039    12.000000000000
         C           -1.217970507508     1.194673434248    -0.271646845961    12.000000000000
         C           -1.158123507508    -1.156425565752     0.292579154039    12.000000000000
         C            3.284586392492    -0.634052965752    -0.262888045961    12.000000000000
         C            3.187542492492     0.603130434248     0.239495154039    12.000000000000
         C           -2.611311507508     1.156842434248    -0.270604845961    12.000000000000
         C           -2.552183507508    -1.196309565752     0.268000154039    12.000000000000
         C           -3.284417507508    -0.040207565752    -0.011121845961    12.000000000000
         H            1.377641492492    -1.801441565752    -0.833402845961     1.007825032230
         H            1.585803492492     2.038175434248     0.861368154039     1.007825032230
         H           -0.693093507508     2.117597434248    -0.508644845961     1.007825032230
         H           -0.596427507508    -2.048476565752     0.565225154039     1.007825032230
         H            3.849818492492    -1.385711565752    -0.579233845961     1.007825032230
         H            4.109766492492     1.121193434248     0.468335154039     1.007825032230
         H           -3.174619507508     2.060044434248    -0.494179845961     1.007825032230
         H           -3.068478507508    -2.128754565752     0.485204154039     1.007825032230
         H           -4.371191507508    -0.070420565752    -0.021551845961     1.007825032230

  Basis Set: AUG-CC-PVTZ
    Blend: AUG-CC-PVTZ
  Basis Set: (AUG-CC-PVTZ AUX)
    Blend: AUG-CC-PVTZ-JKFIT
	 Reference Energy          =    -438.4715908563837843 [Eh]
	 Singles Energy            =      -0.0000000000000000 [Eh]
	 Same-Spin Energy          =      -0.4945403969038190 [Eh]
	 Opposite-Spin Energy      =      -1.5276469235224015 [Eh]
	 Correlation Energy        =      -2.0221873204262204 [Eh]
	 Total Energy              =    -440.4937781768099967 [Eh]

	 ================> DF-SCS-MP2 Energies <==================
	-----------------------------------------------------------
	 SCS Same-Spin Scale       =       0.3333333333333333 [-]
	 SCS Opposite-Spin Scale   =       1.2000000000000000 [-]
	 SCS Same-Spin Energy      =      -0.1648467989679397 [Eh]
	 SCS Opposite-Spin Energy  =      -1.8331763082268817 [Eh]
	 SCS Correlation Energy    =      -1.9980231071948213 [Eh]
	 SCS Total Energy          =    -440.4696139635785812 [Eh]
	-----------------------------------------------------------

  Dipole Moment: [D]
     X:    -0.4753      Y:    -1.1246      Z:    -0.5674     Total:     1.3463

*** Psi4 exiting successfully. Buy a developer a beer!
