                               Psi4 1.3.2 release

  ==> Input File <==

--------------------------------------------------------------------------
#psi4
#
memory 32 gb

molecule  {
0 1
  N        1.7773000    -0.9706020    -0.3863220
  C        1.0080060     0.0962300     0.0271750
  C       -0.4096762     0.0691211     0.0115653
  C        1.8938950     1.0905280     0.4329840
  C       -1.1961700     1.1987140    -0.2700270
  C       -1.1363230    -1.1523850     0.2941990
  C        3.1117900    -0.6733570    -0.2771830
  C        3.2093430     0.6071710     0.2411150
  C       -2.5895110     1.1608830    -0.2689850
  C       -2.5303830    -1.1922690     0.2696200
  C       -3.2626170    -0.0361670    -0.0095020
  H        1.3994420    -1.7974010    -0.8317830
  H        1.6076040     2.0422160     0.8629880
  H       -0.6712930     2.1216380    -0.5070250
  H       -0.5746270    -2.0444360     0.5668450
  H        3.8716190    -1.3816710    -0.5776140
  H        4.1315670     1.1252340     0.4699550
  H       -3.1528190     2.0640850    -0.4925600
  H       -3.0466780    -2.1247140     0.4868240
  H       -4.3493910    -0.0663800    -0.0199320
units angstrom
no_reorient  #important for SAPT in psi4, default
symmetry c1  #important for SAPT in psi4, default
}

set PROPERTIES_ORIGIN ["COM"]
properties('MP2/aug-cc-pvtz', properties = ['dipole'])
--------------------------------------------------------------------------

    Molecular point group: c1
  Charge       = 0
  Multiplicity = 1
  Basis Set: AUG-CC-PVTZ
    Blend: AUG-CC-PVTZ
  Basis Set: (AUG-CC-PVTZ AUX)
    Blend: AUG-CC-PVTZ-JKFIT

    Orbital Energies [Eh]
    ---------------------

    Doubly Occupied:

       1A    -15.609550     2A    -11.260246     3A    -11.258567
       4A    -11.254169     5A    -11.244545     6A    -11.241015
       7A    -11.240356     8A    -11.237621     9A    -11.237342
      10A    -11.215175    11A    -11.214090    12A     -1.296069
      13A     -1.152141    14A     -1.053399    15A     -1.044041
      16A     -1.014158    17A     -0.958826    18A     -0.842257
      19A     -0.829231    20A     -0.789697    21A     -0.765861
      22A     -0.736574    23A     -0.680600    24A     -0.633801
      25A     -0.627569    26A     -0.594219    27A     -0.586636
      28A     -0.585327    29A     -0.571502    30A     -0.550318
      31A     -0.538117    32A     -0.508553    33A     -0.499652
      34A     -0.486787    35A     -0.365073    36A     -0.351269
      37A     -0.340091    38A     -0.270555

  @DF-RHF Final Energy:  -438.50447529061023

   => Energetics <=

    Nuclear Repulsion Energy =            536.8224971578928262
    One-Electron Energy =               -1657.2839444684584578
    Two-Electron Energy =                 681.9569720199555150
    Total Energy =                       -438.5044752906102303
  Basis Set: (AUG-CC-PVTZ AUX)
    Blend: AUG-CC-PVTZ-RI
    Molecular point group: c1

    Geometry (in Angstrom), charge = 0, multiplicity = 1:

       Center              X                  Y                   Z               Mass
    ------------   -----------------  -----------------  -----------------  -----------------
         N            1.768373163780    -0.973176256470    -0.386036881021    14.003074004430
         C            0.999079163780     0.093655743530     0.027460118979    12.000000000000
         C           -0.418603036220     0.066546843530     0.011850418979    12.000000000000
         C            1.884968163780     1.087953743530     0.433269118979    12.000000000000
         C           -1.205096836220     1.196139743530    -0.269741881021    12.000000000000
         C           -1.145249836220    -1.154959256470     0.294484118979    12.000000000000
         C            3.102863163780    -0.675931256470    -0.276897881021    12.000000000000
         C            3.200416163780     0.604596743530     0.241400118979    12.000000000000
         C           -2.598437836220     1.158308743530    -0.268699881021    12.000000000000
         C           -2.539309836220    -1.194843256470     0.269905118979    12.000000000000
         C           -3.271543836220    -0.038741256470    -0.009216881021    12.000000000000
         H            1.390515163780    -1.799975256470    -0.831497881021     1.007825032230
         H            1.598677163780     2.039641743530     0.863273118979     1.007825032230
         H           -0.680219836220     2.119063743530    -0.506739881021     1.007825032230
         H           -0.583553836220    -2.047010256470     0.567130118979     1.007825032230
         H            3.862692163780    -1.384245256470    -0.577328881021     1.007825032230
         H            4.122640163780     1.122659743530     0.470240118979     1.007825032230
         H           -3.161745836220     2.061510743530    -0.492274881021     1.007825032230
         H           -3.055604836220    -2.127288256470     0.487109118979     1.007825032230
         H           -4.358317836220    -0.068954256470    -0.019646881021     1.007825032230

  Basis Set: AUG-CC-PVTZ
    Blend: AUG-CC-PVTZ
  Basis Set: (AUG-CC-PVTZ AUX)
    Blend: AUG-CC-PVTZ-JKFIT
	 Reference Energy          =    -438.5044752906102303 [Eh]
	 Singles Energy            =      -0.0000000000000000 [Eh]
	 Same-Spin Energy          =      -0.4959603537308796 [Eh]
	 Opposite-Spin Energy      =      -1.5264571529833360 [Eh]
	 Correlation Energy        =      -2.0224175067142154 [Eh]
	 Total Energy              =    -440.5268927973244217 [Eh]

	 ================> DF-SCS-MP2 Energies <==================
	-----------------------------------------------------------
	 SCS Same-Spin Scale       =       0.3333333333333333 [-]
	 SCS Opposite-Spin Scale   =       1.2000000000000000 [-]
	 SCS Same-Spin Energy      =      -0.1653201179102932 [Eh]
	 SCS Opposite-Spin Energy  =      -1.8317485835800031 [Eh]
	 SCS Correlation Energy    =      -1.9970687014902964 [Eh]
	 SCS Total Energy          =    -440.5015439921005509 [Eh]
	-----------------------------------------------------------

  Dipole Moment: [D]
     X:    -0.3011      Y:    -1.3165      Z:    -0.6472     Total:     1.4975

*** Psi4 exiting successfully. Buy a developer a beer!
