                               Psi4 1.3.2 release

  ==> Input File <==

--------------------------------------------------------------------------
#psi4
#
memory 32 gb

molecule  {
0 1
  N        1.7773000    -0.9706020    -0.3863220
  C        1.0080060     0.0962300     0.0271750
  C       -0.4373260    -0.0972158    -0.0402275
  C        1.8938950     1.0905280     0.4329840
  C       -1.1961700     1.1987140    -0.2700270
  C       -1.1363230    -1.1523850     0.2941990
  C        3.1117900    -0.6733570    -0.2771830
  C        3.2093430     0.6071710     0.2411150
  C       -2.5895110     1.1608830    -0.2689850
  C       -2.5303830    -1.1922690     0.2696200
  C       -3.2626170    -0.0361670    -0.0095020
  H        1.3994420    -1.7974010    -0.8317830
  H        1.6076040     2.0422160     0.8629880
  H       -0.6712930     2.1216380    -0.5070250
  H       -0.5746270    -2.0444360     0.5668450
  H        3.8716190    -1.3816710    -0.5776140
  H        4.1315670     1.1252340     0.4699550
  H       -3.1528190     2.0640850    -0.4925600
  H       -3.0466780    -2.1247140     0.4868240
  H       -4.3493910    -0.0663800    -0.0199320
units angstrom
no_reorient  #important for SAPT in psi4, default
symmetry c1  #important for SAPT in psi4, default
}

set PROPERTIES_ORIGIN ["COM"]
properties('MP2/aug-cc-pvtz', properties = ['dipole'])
--------------------------------------------------------------------------

    Molecular point group: c1
  Charge       = 0
  Multiplicity = 1
  Basis Set: AUG-CC-PVTZ
    Blend: AUG-CC-PVTZ
  Basis Set: (AUG-CC-PVTZ AUX)
    Blend: AUG-CC-PVTZ-JKFIT

    Orbital Energies [Eh]
    ---------------------

    Doubly Occupied:

       1A    -15.605531     2A    -11.263709     3A    -11.255729
       4A    -11.252362     5A    -11.247900     6A    -11.241756
       7A    -11.239696     8A    -11.238523     9A    -11.231116
      10A    -11.216333    11A    -11.214041    12A     -1.294506
      13A     -1.157265    14A     -1.051511    15A     -1.044497
      16A     -1.014505    17A     -0.959611    18A     -0.842390
      19A     -0.827310    20A     -0.787165    21A     -0.767877
      22A     -0.733476    23A     -0.682244    24A     -0.631639
      25A     -0.630043    26A     -0.594589    27A     -0.593201
      28A     -0.574542    29A     -0.567841    30A     -0.550898
      31A     -0.537705    32A     -0.512239    33A     -0.503700
      34A     -0.476674    35A     -0.370447    36A     -0.351206
      37A     -0.335647    38A     -0.274237

  @DF-RHF Final Energy:  -438.48707065500020

   => Energetics <=

    Nuclear Repulsion Energy =            536.8946204056486522
    One-Electron Energy =               -1657.4160571465342855
    Two-Electron Energy =                 682.0343660858856083
    Total Energy =                       -438.4870706550001387
  Basis Set: (AUG-CC-PVTZ AUX)
    Blend: AUG-CC-PVTZ-RI
    Molecular point group: c1

    Geometry (in Angstrom), charge = 0, multiplicity = 1:

       Center              X                  Y                   Z               Mass
    ------------   -----------------  -----------------  -----------------  -----------------
         N            1.770692234759    -0.959225085849    -0.381692864812    14.003074004430
         C            1.001398234759     0.107606914151     0.031804135188    12.000000000000
         C           -0.443933765241    -0.085838885849    -0.035598364812    12.000000000000
         C            1.887287234759     1.101904914151     0.437613135188    12.000000000000
         C           -1.202777765241     1.210090914151    -0.265397864812    12.000000000000
         C           -1.142930765241    -1.141008085849     0.298828135188    12.000000000000
         C            3.105182234759    -0.661980085849    -0.272553864812    12.000000000000
         C            3.202735234759     0.618547914151     0.245744135188    12.000000000000
         C           -2.596118765241     1.172259914151    -0.264355864812    12.000000000000
         C           -2.536990765241    -1.180892085849     0.274249135188    12.000000000000
         C           -3.269224765241    -0.024790085849    -0.004872864812    12.000000000000
         H            1.392834234759    -1.786024085849    -0.827153864812     1.007825032230
         H            1.600996234759     2.053592914151     0.867617135188     1.007825032230
         H           -0.677900765241     2.133014914151    -0.502395864812     1.007825032230
         H           -0.581234765241    -2.033059085849     0.571474135188     1.007825032230
         H            3.865011234759    -1.370294085849    -0.572984864812     1.007825032230
         H            4.124959234759     1.136610914151     0.474584135188     1.007825032230
         H           -3.159426765241     2.075461914151    -0.487930864812     1.007825032230
         H           -3.053285765241    -2.113337085849     0.491453135188     1.007825032230
         H           -4.355998765241    -0.055003085849    -0.015302864812     1.007825032230

  Basis Set: AUG-CC-PVTZ
    Blend: AUG-CC-PVTZ
  Basis Set: (AUG-CC-PVTZ AUX)
    Blend: AUG-CC-PVTZ-JKFIT
	 Reference Energy          =    -438.4870706550001955 [Eh]
	 Singles Energy            =      -0.0000000000000000 [Eh]
	 Same-Spin Energy          =      -0.4951424735946545 [Eh]
	 Opposite-Spin Energy      =      -1.5265432259493710 [Eh]
	 Correlation Energy        =      -2.0216856995440255 [Eh]
	 Total Energy              =    -440.5087563545442322 [Eh]

	 ================> DF-SCS-MP2 Energies <==================
	-----------------------------------------------------------
	 SCS Same-Spin Scale       =       0.3333333333333333 [-]
	 SCS Opposite-Spin Scale   =       1.2000000000000000 [-]
	 SCS Same-Spin Energy      =      -0.1650474911982182 [Eh]
	 SCS Opposite-Spin Energy  =      -1.8318518711392451 [Eh]
	 SCS Correlation Energy    =      -1.9968993623374631 [Eh]
	 SCS Total Energy          =    -440.4839700173376400 [Eh]
	-----------------------------------------------------------

  Dipole Moment: [D]
     X:    -0.4510      Y:    -1.2933      Z:    -0.6248     Total:     1.5054

*** Psi4 exiting successfully. Buy a developer a beer!
