                               Psi4 1.3.2 release

  ==> Input File <==

--------------------------------------------------------------------------
#psi4
#
memory 32 gb

molecule  {
0 1
  N        1.7773000    -0.9706020    -0.3863220
  C        1.0080060     0.0962300     0.0271750
  C       -0.4507830     0.0432590     0.0183630
  C        1.8467584     0.9614772     0.3777954
  C       -1.1961700     1.1987140    -0.2700270
  C       -1.1363230    -1.1523850     0.2941990
  C        3.1117900    -0.6733570    -0.2771830
  C        3.2093430     0.6071710     0.2411150
  C       -2.5895110     1.1608830    -0.2689850
  C       -2.5303830    -1.1922690     0.2696200
  C       -3.2626170    -0.0361670    -0.0095020
  H        1.3994420    -1.7974010    -0.8317830
  H        1.6076040     2.0422160     0.8629880
  H       -0.6712930     2.1216380    -0.5070250
  H       -0.5746270    -2.0444360     0.5668450
  H        3.8716190    -1.3816710    -0.5776140
  H        4.1315670     1.1252340     0.4699550
  H       -3.1528190     2.0640850    -0.4925600
  H       -3.0466780    -2.1247140     0.4868240
  H       -4.3493910    -0.0663800    -0.0199320
units angstrom
no_reorient  #important for SAPT in psi4, default
symmetry c1  #important for SAPT in psi4, default
}

set PROPERTIES_ORIGIN ["COM"]
properties('MP2/aug-cc-pvtz', properties = ['dipole'])
--------------------------------------------------------------------------

    Molecular point group: c1
  Charge       = 0
  Multiplicity = 1
  Basis Set: AUG-CC-PVTZ
    Blend: AUG-CC-PVTZ
  Basis Set: (AUG-CC-PVTZ AUX)
    Blend: AUG-CC-PVTZ-JKFIT

    Orbital Energies [Eh]
    ---------------------

    Doubly Occupied:

       1A    -15.597992     2A    -11.259889     3A    -11.253571
       4A    -11.242494     5A    -11.242142     6A    -11.240892
       7A    -11.240664     8A    -11.238335     9A    -11.237980
      10A    -11.210309    11A    -11.206639    12A     -1.303246
      13A     -1.156429    14A     -1.057924    15A     -1.043540
      16A     -1.016925    17A     -0.971873    18A     -0.837614
      19A     -0.832944    20A     -0.789760    21A     -0.750802
      22A     -0.738047    23A     -0.682585    24A     -0.635989
      25A     -0.629925    26A     -0.591050    27A     -0.591032
      28A     -0.580865    29A     -0.575323    30A     -0.566016
      31A     -0.508624    32A     -0.504464    33A     -0.496529
      34A     -0.488539    35A     -0.370838    36A     -0.348042
      37A     -0.341195    38A     -0.287021

  @DF-RHF Final Energy:  -438.47984432870112

   => Energetics <=

    Nuclear Repulsion Energy =            539.8740622050843285
    One-Electron Energy =               -1663.3717181813713069
    Two-Electron Energy =                 685.0178116475858587
    Total Energy =                       -438.4798443287011196
  Basis Set: (AUG-CC-PVTZ AUX)
    Blend: AUG-CC-PVTZ-RI
    Molecular point group: c1

    Geometry (in Angstrom), charge = 0, multiplicity = 1:

       Center              X                  Y                   Z               Mass
    ------------   -----------------  -----------------  -----------------  -----------------
         N            1.775774400244    -0.960183250713    -0.381978192285    14.003074004430
         C            1.006480400244     0.106648749287     0.031518807715    12.000000000000
         C           -0.452308599756     0.053677749287     0.022706807715    12.000000000000
         C            1.845232800244     0.971895949287     0.382139207715    12.000000000000
         C           -1.197695599756     1.209132749287    -0.265683192285    12.000000000000
         C           -1.137848599756    -1.141966250713     0.298542807715    12.000000000000
         C            3.110264400244    -0.662938250713    -0.272839192285    12.000000000000
         C            3.207817400244     0.617589749287     0.245458807715    12.000000000000
         C           -2.591036599756     1.171301749287    -0.264641192285    12.000000000000
         C           -2.531908599756    -1.181850250713     0.273963807715    12.000000000000
         C           -3.264142599756    -0.025748250713    -0.005158192285    12.000000000000
         H            1.397916400244    -1.786982250713    -0.827439192285     1.007825032230
         H            1.606078400244     2.052634749287     0.867331807715     1.007825032230
         H           -0.672818599756     2.132056749287    -0.502681192285     1.007825032230
         H           -0.576152599756    -2.034017250713     0.571188807715     1.007825032230
         H            3.870093400244    -1.371252250713    -0.573270192285     1.007825032230
         H            4.130041400244     1.135652749287     0.474298807715     1.007825032230
         H           -3.154344599756     2.074503749287    -0.488216192285     1.007825032230
         H           -3.048203599756    -2.114295250713     0.491167807715     1.007825032230
         H           -4.350916599756    -0.055961250713    -0.015588192285     1.007825032230

  Basis Set: AUG-CC-PVTZ
    Blend: AUG-CC-PVTZ
  Basis Set: (AUG-CC-PVTZ AUX)
    Blend: AUG-CC-PVTZ-JKFIT
	 Reference Energy          =    -438.4798443287011196 [Eh]
	 Singles Energy            =      -0.0000000000000000 [Eh]
	 Same-Spin Energy          =      -0.4941218649000341 [Eh]
	 Opposite-Spin Energy      =      -1.5238885792889545 [Eh]
	 Correlation Energy        =      -2.0180104441889886 [Eh]
	 Total Energy              =    -440.4978547728900935 [Eh]

	 ================> DF-SCS-MP2 Energies <==================
	-----------------------------------------------------------
	 SCS Same-Spin Scale       =       0.3333333333333333 [-]
	 SCS Opposite-Spin Scale   =       1.2000000000000000 [-]
	 SCS Same-Spin Energy      =      -0.1647072883000114 [Eh]
	 SCS Opposite-Spin Energy  =      -1.8286662951467454 [Eh]
	 SCS Correlation Energy    =      -1.9933735834467567 [Eh]
	 SCS Total Energy          =    -440.4732179121479021 [Eh]
	-----------------------------------------------------------

  Dipole Moment: [D]
     X:    -0.5222      Y:    -1.2808      Z:    -0.6404     Total:     1.5242

*** Psi4 exiting successfully. Buy a developer a beer!
