                               Psi4 1.3.2 release

  ==> Input File <==

--------------------------------------------------------------------------
#psi4
#
memory 32 gb

molecule  {
0 1
  N        1.7773000    -0.9706020    -0.3863220
  C        1.0080060     0.0962300     0.0271750
  C       -0.4507830     0.0432590     0.0183630
  C        1.8938950     1.0905280     0.4329840
  C       -1.1961700     1.1987140    -0.2700270
  C       -1.1363230    -1.1523850     0.2941990
  C        3.1371473    -0.7962775    -0.3468796
  C        3.2093430     0.6071710     0.2411150
  C       -2.5895110     1.1608830    -0.2689850
  C       -2.5303830    -1.1922690     0.2696200
  C       -3.2626170    -0.0361670    -0.0095020
  H        1.3994420    -1.7974010    -0.8317830
  H        1.6076040     2.0422160     0.8629880
  H       -0.6712930     2.1216380    -0.5070250
  H       -0.5746270    -2.0444360     0.5668450
  H        3.8716190    -1.3816710    -0.5776140
  H        4.1315670     1.1252340     0.4699550
  H       -3.1528190     2.0640850    -0.4925600
  H       -3.0466780    -2.1247140     0.4868240
  H       -4.3493910    -0.0663800    -0.0199320
units angstrom
no_reorient  #important for SAPT in psi4, default
symmetry c1  #important for SAPT in psi4, default
}

set PROPERTIES_ORIGIN ["COM"]
properties('MP2/aug-cc-pvtz', properties = ['dipole'])
--------------------------------------------------------------------------

    Molecular point group: c1
  Charge       = 0
  Multiplicity = 1
  Basis Set: AUG-CC-PVTZ
    Blend: AUG-CC-PVTZ
  Basis Set: (AUG-CC-PVTZ AUX)
    Blend: AUG-CC-PVTZ-JKFIT

    Orbital Energies [Eh]
    ---------------------

    Doubly Occupied:

       1A    -15.620074     2A    -11.264519     3A    -11.262224
       4A    -11.254998     5A    -11.242614     6A    -11.241496
       7A    -11.241036     8A    -11.238780     9A    -11.238201
      10A    -11.227935    11A    -11.217981    12A     -1.291798
      13A     -1.156946    14A     -1.053385    15A     -1.030259
      16A     -1.016764    17A     -0.959935    18A     -0.843186
      19A     -0.832293    20A     -0.789420    21A     -0.768818
      22A     -0.743212    23A     -0.689611    24A     -0.646567
      25A     -0.629772    26A     -0.598935    27A     -0.591730
      28A     -0.581741    29A     -0.568067    30A     -0.548340
      31A     -0.516258    32A     -0.505669    33A     -0.501419
      34A     -0.495284    35A     -0.365980    36A     -0.343785
      37A     -0.341935    38A     -0.264821

  @DF-RHF Final Energy:  -438.47440227087026

   => Energetics <=

    Nuclear Repulsion Energy =            534.8589919487633324
    One-Electron Energy =               -1653.2152120305315748
    Two-Electron Energy =                 679.8818178108979282
    Total Energy =                       -438.4744022708703142
  Basis Set: (AUG-CC-PVTZ AUX)
    Blend: AUG-CC-PVTZ-RI
    Molecular point group: c1

    Geometry (in Angstrom), charge = 0, multiplicity = 1:

       Center              X                  Y                   Z               Mass
    ------------   -----------------  -----------------  -----------------  -----------------
         N            1.769694121197    -0.960697417210    -0.380761363167    14.003074004430
         C            1.000400121197     0.106134582790     0.032735636833    12.000000000000
         C           -0.458388878803     0.053163582790     0.023923636833    12.000000000000
         C            1.886289121197     1.100432582790     0.438544636833    12.000000000000
         C           -1.203775878803     1.208618582790    -0.264466363167    12.000000000000
         C           -1.143928878803    -1.142480417210     0.299759636833    12.000000000000
         C            3.129541421197    -0.786372917210    -0.341318963167    12.000000000000
         C            3.201737121197     0.617075582790     0.246675636833    12.000000000000
         C           -2.597116878803     1.170787582790    -0.263424363167    12.000000000000
         C           -2.537988878803    -1.182364417210     0.275180636833    12.000000000000
         C           -3.270222878803    -0.026262417210    -0.003941363167    12.000000000000
         H            1.391836121197    -1.787496417210    -0.826222363167     1.007825032230
         H            1.599998121197     2.052120582790     0.868548636833     1.007825032230
         H           -0.678898878803     2.131542582790    -0.501464363167     1.007825032230
         H           -0.582232878803    -2.034531417210     0.572405636833     1.007825032230
         H            3.864013121197    -1.371766417210    -0.572053363167     1.007825032230
         H            4.123961121197     1.135138582790     0.475515636833     1.007825032230
         H           -3.160424878803     2.073989582790    -0.486999363167     1.007825032230
         H           -3.054283878803    -2.114809417210     0.492384636833     1.007825032230
         H           -4.356996878803    -0.056475417210    -0.014371363167     1.007825032230

  Basis Set: AUG-CC-PVTZ
    Blend: AUG-CC-PVTZ
  Basis Set: (AUG-CC-PVTZ AUX)
    Blend: AUG-CC-PVTZ-JKFIT
	 Reference Energy          =    -438.4744022708702573 [Eh]
	 Singles Energy            =      -0.0000000000000000 [Eh]
	 Same-Spin Energy          =      -0.4975164535710582 [Eh]
	 Opposite-Spin Energy      =      -1.5300779922418972 [Eh]
	 Correlation Energy        =      -2.0275944458129556 [Eh]
	 Total Energy              =    -440.5019967166832089 [Eh]

	 ================> DF-SCS-MP2 Energies <==================
	-----------------------------------------------------------
	 SCS Same-Spin Scale       =       0.3333333333333333 [-]
	 SCS Opposite-Spin Scale   =       1.2000000000000000 [-]
	 SCS Same-Spin Energy      =      -0.1658388178570194 [Eh]
	 SCS Opposite-Spin Energy  =      -1.8360935906902767 [Eh]
	 SCS Correlation Energy    =      -2.0019324085472960 [Eh]
	 SCS Total Energy          =    -440.4763346794175618 [Eh]
	-----------------------------------------------------------

  Dipole Moment: [D]
     X:    -0.6360      Y:    -1.3427      Z:    -0.6299     Total:     1.6137

*** Psi4 exiting successfully. Buy a developer a beer!
