                               Psi4 1.3.2 release

  ==> Input File <==

--------------------------------------------------------------------------
#psi4
#
memory 32 gb

molecule  {
0 1
  N        1.7773000    -0.9706020    -0.3863220
  C        1.0080060     0.0962300     0.0271750
  C       -0.4507830     0.0432590     0.0183630
  C        1.8938950     1.0905280     0.4329840
  C       -1.1961700     1.1987140    -0.2700270
  C       -1.1363230    -1.1523850     0.2941990
  C        3.1117900    -0.6733570    -0.2771830
  C        3.2423582     0.6914616     0.2805237
  C       -2.5895110     1.1608830    -0.2689850
  C       -2.5303830    -1.1922690     0.2696200
  C       -3.2626170    -0.0361670    -0.0095020
  H        1.3994420    -1.7974010    -0.8317830
  H        1.6076040     2.0422160     0.8629880
  H       -0.6712930     2.1216380    -0.5070250
  H       -0.5746270    -2.0444360     0.5668450
  H        3.8716190    -1.3816710    -0.5776140
  H        4.1315670     1.1252340     0.4699550
  H       -3.1528190     2.0640850    -0.4925600
  H       -3.0466780    -2.1247140     0.4868240
  H       -4.3493910    -0.0663800    -0.0199320
units angstrom
no_reorient  #important for SAPT in psi4, default
symmetry c1  #important for SAPT in psi4, default
}

set PROPERTIES_ORIGIN ["COM"]
properties('MP2/aug-cc-pvtz', properties = ['dipole'])
--------------------------------------------------------------------------

    Molecular point group: c1
  Charge       = 0
  Multiplicity = 1
  Basis Set: AUG-CC-PVTZ
    Blend: AUG-CC-PVTZ
  Basis Set: (AUG-CC-PVTZ AUX)
    Blend: AUG-CC-PVTZ-JKFIT

    Orbital Energies [Eh]
    ---------------------

    Doubly Occupied:

       1A    -15.616725     2A    -11.269566     3A    -11.260700
       4A    -11.253695     5A    -11.241767     6A    -11.240354
       7A    -11.240062     8A    -11.237153     9A    -11.236914
      10A    -11.219602    11A    -11.217753    12A     -1.292765
      13A     -1.155656    14A     -1.049969    15A     -1.037784
      16A     -1.016345    17A     -0.953830    18A     -0.835499
      19A     -0.832905    20A     -0.801251    21A     -0.767934
      22A     -0.734525    23A     -0.679577    24A     -0.633386
      25A     -0.630210    26A     -0.604005    27A     -0.589873
      28A     -0.581763    29A     -0.569297    30A     -0.563376
      31A     -0.514792    32A     -0.504078    33A     -0.502178
      34A     -0.494739    35A     -0.364106    36A     -0.348872
      37A     -0.341064    38A     -0.265820

  @DF-RHF Final Energy:  -438.49242395216834

   => Energetics <=

    Nuclear Repulsion Energy =            535.2776096406001898
    One-Electron Energy =               -1654.1402929545156439
    Two-Electron Energy =                 680.3702593617472303
    Total Energy =                       -438.4924239521683376
  Basis Set: (AUG-CC-PVTZ AUX)
    Blend: AUG-CC-PVTZ-RI
    Molecular point group: c1

    Geometry (in Angstrom), charge = 0, multiplicity = 1:

       Center              X                  Y                   Z               Mass
    ------------   -----------------  -----------------  -----------------  -----------------
         N            1.769051830343    -0.978076828578    -0.389912349243    14.003074004430
         C            0.999757830343     0.088755171422     0.023584650757    12.000000000000
         C           -0.459031169657     0.035784171422     0.014772650757    12.000000000000
         C            1.885646830343     1.083053171422     0.429393650757    12.000000000000
         C           -1.204418169657     1.191239171422    -0.273617349243    12.000000000000
         C           -1.144571169657    -1.159859828578     0.290608650757    12.000000000000
         C            3.103541830343    -0.680831828578    -0.280773349243    12.000000000000
         C            3.234110030343     0.683986771422     0.276933350757    12.000000000000
         C           -2.597759169657     1.153408171422    -0.272575349243    12.000000000000
         C           -2.538631169657    -1.199743828578     0.266029650757    12.000000000000
         C           -3.270865169657    -0.043641828578    -0.013092349243    12.000000000000
         H            1.391193830343    -1.804875828578    -0.835373349243     1.007825032230
         H            1.599355830343     2.034741171422     0.859397650757     1.007825032230
         H           -0.679541169657     2.114163171422    -0.510615349243     1.007825032230
         H           -0.582875169657    -2.051910828578     0.563254650757     1.007825032230
         H            3.863370830343    -1.389145828578    -0.581204349243     1.007825032230
         H            4.123318830343     1.117759171422     0.466364650757     1.007825032230
         H           -3.161067169657     2.056610171422    -0.496150349243     1.007825032230
         H           -3.054926169657    -2.132188828578     0.483233650757     1.007825032230
         H           -4.357639169657    -0.073854828578    -0.023522349243     1.007825032230

  Basis Set: AUG-CC-PVTZ
    Blend: AUG-CC-PVTZ
  Basis Set: (AUG-CC-PVTZ AUX)
    Blend: AUG-CC-PVTZ-JKFIT
	 Reference Energy          =    -438.4924239521683376 [Eh]
	 Singles Energy            =      -0.0000000000000000 [Eh]
	 Same-Spin Energy          =      -0.4964855440094648 [Eh]
	 Opposite-Spin Energy      =      -1.5279955816243147 [Eh]
	 Correlation Energy        =      -2.0244811256337796 [Eh]
	 Total Energy              =    -440.5169050778021074 [Eh]

	 ================> DF-SCS-MP2 Energies <==================
	-----------------------------------------------------------
	 SCS Same-Spin Scale       =       0.3333333333333333 [-]
	 SCS Opposite-Spin Scale   =       1.2000000000000000 [-]
	 SCS Same-Spin Energy      =      -0.1654951813364882 [Eh]
	 SCS Opposite-Spin Energy  =      -1.8335946979491775 [Eh]
	 SCS Correlation Energy    =      -1.9990898792856657 [Eh]
	 SCS Total Energy          =    -440.4915138314540286 [Eh]
	-----------------------------------------------------------

  Dipole Moment: [D]
     X:    -0.4770      Y:    -1.3372      Z:    -0.6618     Total:     1.5664

*** Psi4 exiting successfully. Buy a developer a beer!
