                               Psi4 1.3.2 release

  ==> Input File <==

--------------------------------------------------------------------------
#psi4
#
memory 32 gb

molecule  {
0 1
  N        1.7773000    -0.9706020    -0.3863220
  C        1.0086471     0.0714611     0.0331078
  C       -0.4507830     0.0432590     0.0183630
  C        1.8938950     1.0905280     0.4329840
  C       -1.1961700     1.1987140    -0.2700270
  C       -1.1363230    -1.1523850     0.2941990
  C        3.1117900    -0.6733570    -0.2771830
  C        3.2093430     0.6071710     0.2411150
  C       -2.5895110     1.1608830    -0.2689850
  C       -2.5303830    -1.1922690     0.2696200
  C       -3.2626170    -0.0361670    -0.0095020
  H        1.3994420    -1.7974010    -0.8317830
  H        1.6076040     2.0422160     0.8629880
  H       -0.6712930     2.1216380    -0.5070250
  H       -0.5746270    -2.0444360     0.5668450
  H        3.8716190    -1.3816710    -0.5776140
  H        4.1315670     1.1252340     0.4699550
  H       -3.1528190     2.0640850    -0.4925600
  H       -3.0466780    -2.1247140     0.4868240
  H       -4.3493910    -0.0663800    -0.0199320
units angstrom
no_reorient  #important for SAPT in psi4, default
symmetry c1  #important for SAPT in psi4, default
}

set PROPERTIES_ORIGIN ["COM"]
properties('MP2/aug-cc-pvtz', properties = ['dipole'])
--------------------------------------------------------------------------

    Molecular point group: c1
  Charge       = 0
  Multiplicity = 1
  Basis Set: AUG-CC-PVTZ
    Blend: AUG-CC-PVTZ
  Basis Set: (AUG-CC-PVTZ AUX)
    Blend: AUG-CC-PVTZ-JKFIT

    Orbital Energies [Eh]
    ---------------------

    Doubly Occupied:

       1A    -15.610356     2A    -11.262708     3A    -11.255216
       4A    -11.253379     5A    -11.241980     6A    -11.241002
       7A    -11.240357     8A    -11.238355     9A    -11.237900
      10A    -11.214303    11A    -11.213003    12A     -1.298996
      13A     -1.156324    14A     -1.047871    15A     -1.043429
      16A     -1.016924    17A     -0.959020    18A     -0.837730
      19A     -0.832421    20A     -0.789949    21A     -0.766208
      22A     -0.735625    23A     -0.679956    24A     -0.633710
      25A     -0.629778    26A     -0.594198    27A     -0.589166
      28A     -0.584983    29A     -0.570934    30A     -0.548544
      31A     -0.535960    32A     -0.505076    33A     -0.500689
      34A     -0.493538    35A     -0.362399    36A     -0.350617
      37A     -0.341483    38A     -0.271979

  @DF-RHF Final Energy:  -438.50813265606655

   => Energetics <=

    Nuclear Repulsion Energy =            536.9021687844362987
    One-Electron Energy =               -1657.4484691145303259
    Two-Electron Energy =                 682.0381676740274770
    Total Energy =                       -438.5081326560665502
  Basis Set: (AUG-CC-PVTZ AUX)
    Blend: AUG-CC-PVTZ-RI
    Molecular point group: c1

    Geometry (in Angstrom), charge = 0, multiplicity = 1:

       Center              X                  Y                   Z               Mass
    ------------   -----------------  -----------------  -----------------  -----------------
         N            1.771767142416    -0.968929683883    -0.387104625927    14.003074004430
         C            1.003114242416     0.073133416117     0.032325174073    12.000000000000
         C           -0.456315857584     0.044931316117     0.017580374073    12.000000000000
         C            1.888362142416     1.092200316117     0.432201374073    12.000000000000
         C           -1.201702857584     1.200386316117    -0.270809625927    12.000000000000
         C           -1.141855857584    -1.150712683883     0.293416374073    12.000000000000
         C            3.106257142416    -0.671684683883    -0.277965625927    12.000000000000
         C            3.203810142416     0.608843316117     0.240332374073    12.000000000000
         C           -2.595043857584     1.162555316117    -0.269767625927    12.000000000000
         C           -2.535915857584    -1.190596683883     0.268837374073    12.000000000000
         C           -3.268149857584    -0.034494683883    -0.010284625927    12.000000000000
         H            1.393909142416    -1.795728683883    -0.832565625927     1.007825032230
         H            1.602071142416     2.043888316117     0.862205374073     1.007825032230
         H           -0.676825857584     2.123310316117    -0.507807625927     1.007825032230
         H           -0.580159857584    -2.042763683883     0.566062374073     1.007825032230
         H            3.866086142416    -1.379998683883    -0.578396625927     1.007825032230
         H            4.126034142416     1.126906316117     0.469172374073     1.007825032230
         H           -3.158351857584     2.065757316117    -0.493342625927     1.007825032230
         H           -3.052210857584    -2.123041683883     0.486041374073     1.007825032230
         H           -4.354923857584    -0.064707683883    -0.020714625927     1.007825032230

  Basis Set: AUG-CC-PVTZ
    Blend: AUG-CC-PVTZ
  Basis Set: (AUG-CC-PVTZ AUX)
    Blend: AUG-CC-PVTZ-JKFIT
	 Reference Energy          =    -438.5081326560665502 [Eh]
	 Singles Energy            =      -0.0000000000000000 [Eh]
	 Same-Spin Energy          =      -0.4954785255796302 [Eh]
	 Opposite-Spin Energy      =      -1.5254524613559250 [Eh]
	 Correlation Energy        =      -2.0209309869355554 [Eh]
	 Total Energy              =    -440.5290636430021323 [Eh]

	 ================> DF-SCS-MP2 Energies <==================
	-----------------------------------------------------------
	 SCS Same-Spin Scale       =       0.3333333333333333 [-]
	 SCS Opposite-Spin Scale   =       1.2000000000000000 [-]
	 SCS Same-Spin Energy      =      -0.1651595085265434 [Eh]
	 SCS Opposite-Spin Energy  =      -1.8305429536271101 [Eh]
	 SCS Correlation Energy    =      -1.9957024621536534 [Eh]
	 SCS Total Energy          =    -440.5038351182201950 [Eh]
	-----------------------------------------------------------

  Dipole Moment: [D]
     X:    -0.4461      Y:    -1.3449      Z:    -0.6647     Total:     1.5651

*** Psi4 exiting successfully. Buy a developer a beer!
