                               Psi4 1.3.2 release

  ==> Input File <==

--------------------------------------------------------------------------
#psi4
#
memory 32 gb

molecule  {
0 1
  N        1.7773000    -0.9706020    -0.3863220
  C        1.1306657     0.1574291     0.0722992
  C       -0.4507830     0.0432590     0.0183630
  C        1.8938950     1.0905280     0.4329840
  C       -1.1961700     1.1987140    -0.2700270
  C       -1.1363230    -1.1523850     0.2941990
  C        3.1117900    -0.6733570    -0.2771830
  C        3.2093430     0.6071710     0.2411150
  C       -2.5895110     1.1608830    -0.2689850
  C       -2.5303830    -1.1922690     0.2696200
  C       -3.2626170    -0.0361670    -0.0095020
  H        1.3994420    -1.7974010    -0.8317830
  H        1.6076040     2.0422160     0.8629880
  H       -0.6712930     2.1216380    -0.5070250
  H       -0.5746270    -2.0444360     0.5668450
  H        3.8716190    -1.3816710    -0.5776140
  H        4.1315670     1.1252340     0.4699550
  H       -3.1528190     2.0640850    -0.4925600
  H       -3.0466780    -2.1247140     0.4868240
  H       -4.3493910    -0.0663800    -0.0199320
units angstrom
no_reorient  #important for SAPT in psi4, default
symmetry c1  #important for SAPT in psi4, default
}

set PROPERTIES_ORIGIN ["COM"]
properties('MP2/aug-cc-pvtz', properties = ['dipole'])
--------------------------------------------------------------------------

    Molecular point group: c1
  Charge       = 0
  Multiplicity = 1
  Basis Set: AUG-CC-PVTZ
    Blend: AUG-CC-PVTZ
  Basis Set: (AUG-CC-PVTZ AUX)
    Blend: AUG-CC-PVTZ-JKFIT

    Orbital Energies [Eh]
    ---------------------

    Doubly Occupied:

       1A    -15.599724     2A    -11.257301     3A    -11.255682
       4A    -11.255523     5A    -11.241317     6A    -11.240011
       7A    -11.239338     8A    -11.236915     9A    -11.235951
      10A    -11.210615    11A    -11.197778    12A     -1.299794
      13A     -1.151591    14A     -1.067869    15A     -1.030900
      16A     -1.015649    17A     -0.963363    18A     -0.829005
      19A     -0.825782    20A     -0.791993    21A     -0.773093
      22A     -0.726531    23A     -0.677943    24A     -0.629337
      25A     -0.626941    26A     -0.611272    27A     -0.589208
      28A     -0.578131    29A     -0.563172    30A     -0.555551
      31A     -0.536995    32A     -0.502516    33A     -0.494202
      34A     -0.481149    35A     -0.368294    36A     -0.348371
      37A     -0.339886    38A     -0.288949

  @DF-RHF Final Energy:  -438.48499457438623

   => Energetics <=

    Nuclear Repulsion Energy =            537.0037712885119845
    One-Electron Energy =               -1657.7022463142677680
    Two-Electron Energy =                 682.2134804513694917
    Total Energy =                       -438.4849945743861781
  Basis Set: (AUG-CC-PVTZ AUX)
    Blend: AUG-CC-PVTZ-RI
    Molecular point group: c1

    Geometry (in Angstrom), charge = 0, multiplicity = 1:

       Center              X                  Y                   Z               Mass
    ------------   -----------------  -----------------  -----------------  -----------------
         N            1.761533079454    -0.976140075780    -0.390391725231    14.003074004430
         C            1.114898779454     0.151891024220     0.068229474769    12.000000000000
         C           -0.466549920546     0.037720924220     0.014293274769    12.000000000000
         C            1.878128079454     1.084989924220     0.428914274769    12.000000000000
         C           -1.211936920546     1.193175924220    -0.274096725231    12.000000000000
         C           -1.152089920546    -1.157923075780     0.290129274769    12.000000000000
         C            3.096023079454    -0.678895075780    -0.281252725231    12.000000000000
         C            3.193576079454     0.601632924220     0.237045274769    12.000000000000
         C           -2.605277920546     1.155344924220    -0.273054725231    12.000000000000
         C           -2.546149920546    -1.197807075780     0.265550274769    12.000000000000
         C           -3.278383920546    -0.041705075780    -0.013571725231    12.000000000000
         H            1.383675079454    -1.802939075780    -0.835852725231     1.007825032230
         H            1.591837079454     2.036677924220     0.858918274769     1.007825032230
         H           -0.687059920546     2.116099924220    -0.511094725231     1.007825032230
         H           -0.590393920546    -2.049974075780     0.562775274769     1.007825032230
         H            3.855852079454    -1.387209075780    -0.581683725231     1.007825032230
         H            4.115800079454     1.119695924220     0.465885274769     1.007825032230
         H           -3.168585920546     2.058546924220    -0.496629725231     1.007825032230
         H           -3.062444920546    -2.130252075780     0.482754274769     1.007825032230
         H           -4.365157920546    -0.071918075780    -0.024001725231     1.007825032230

  Basis Set: AUG-CC-PVTZ
    Blend: AUG-CC-PVTZ
  Basis Set: (AUG-CC-PVTZ AUX)
    Blend: AUG-CC-PVTZ-JKFIT
	 Reference Energy          =    -438.4849945743862349 [Eh]
	 Singles Energy            =      -0.0000000000000000 [Eh]
	 Same-Spin Energy          =      -0.4925462301777284 [Eh]
	 Opposite-Spin Energy      =      -1.5220613167247845 [Eh]
	 Correlation Energy        =      -2.0146075469025129 [Eh]
	 Total Energy              =    -440.4996021212887740 [Eh]

	 ================> DF-SCS-MP2 Energies <==================
	-----------------------------------------------------------
	 SCS Same-Spin Scale       =       0.3333333333333333 [-]
	 SCS Opposite-Spin Scale   =       1.2000000000000000 [-]
	 SCS Same-Spin Energy      =      -0.1641820767259095 [Eh]
	 SCS Opposite-Spin Energy  =      -1.8264735800697414 [Eh]
	 SCS Correlation Energy    =      -1.9906556567956508 [Eh]
	 SCS Total Energy          =    -440.4756502311818736 [Eh]
	-----------------------------------------------------------

  Dipole Moment: [D]
     X:    -0.5489      Y:    -1.2004      Z:    -0.5965     Total:     1.4485

*** Psi4 exiting successfully. Buy a developer a beer!
