                               Psi4 1.3.2 release

  ==> Input File <==

--------------------------------------------------------------------------
#psi4
#
memory 32 gb

molecule  {
0 1
  N        1.7773000    -0.9706020    -0.3863220
  C        0.9308361     0.0488903    -0.0054573
  C       -0.4507830     0.0432590     0.0183630
  C        1.8938950     1.0905280     0.4329840
  C       -1.1961700     1.1987140    -0.2700270
  C       -1.1363230    -1.1523850     0.2941990
  C        3.1117900    -0.6733570    -0.2771830
  C        3.2093430     0.6071710     0.2411150
  C       -2.5895110     1.1608830    -0.2689850
  C       -2.5303830    -1.1922690     0.2696200
  C       -3.2626170    -0.0361670    -0.0095020
  H        1.3994420    -1.7974010    -0.8317830
  H        1.6076040     2.0422160     0.8629880
  H       -0.6712930     2.1216380    -0.5070250
  H       -0.5746270    -2.0444360     0.5668450
  H        3.8716190    -1.3816710    -0.5776140
  H        4.1315670     1.1252340     0.4699550
  H       -3.1528190     2.0640850    -0.4925600
  H       -3.0466780    -2.1247140     0.4868240
  H       -4.3493910    -0.0663800    -0.0199320
units angstrom
no_reorient  #important for SAPT in psi4, default
symmetry c1  #important for SAPT in psi4, default
}

set PROPERTIES_ORIGIN ["COM"]
properties('MP2/aug-cc-pvtz', properties = ['dipole'])
--------------------------------------------------------------------------

    Molecular point group: c1
  Charge       = 0
  Multiplicity = 1
  Basis Set: AUG-CC-PVTZ
    Blend: AUG-CC-PVTZ
  Basis Set: (AUG-CC-PVTZ AUX)
    Blend: AUG-CC-PVTZ-JKFIT

    Orbital Energies [Eh]
    ---------------------

    Doubly Occupied:

       1A    -15.615045     2A    -11.266065     3A    -11.258313
       4A    -11.248511     5A    -11.241881     6A    -11.241149
       7A    -11.239988     8A    -11.238502     9A    -11.237557
      10A    -11.222501    11A    -11.216592    12A     -1.292710
      13A     -1.159820    14A     -1.057974    15A     -1.038365
      16A     -1.016945    17A     -0.954575    18A     -0.847147
      19A     -0.834053    20A     -0.785900    21A     -0.762069
      22A     -0.739553    23A     -0.680411    24A     -0.638639
      25A     -0.631952    26A     -0.594199    27A     -0.590647
      28A     -0.585449    29A     -0.568354    30A     -0.540193
      31A     -0.536489    32A     -0.509729    33A     -0.501293
      34A     -0.489687    35A     -0.367188    36A     -0.349221
      37A     -0.341851    38A     -0.260952

  @DF-RHF Final Energy:  -438.49044261823485

   => Energetics <=

    Nuclear Repulsion Energy =            536.9340535003409514
    One-Electron Energy =               -1657.4460532141829390
    Two-Electron Energy =                 682.0215570956071360
    Total Energy =                       -438.4904426182348516
  Basis Set: (AUG-CC-PVTZ AUX)
    Blend: AUG-CC-PVTZ-RI
    Molecular point group: c1

    Geometry (in Angstrom), charge = 0, multiplicity = 1:

       Center              X                  Y                   Z               Mass
    ------------   -----------------  -----------------  -----------------  -----------------
         N            1.778293382458    -0.967036603744    -0.383870056266    14.003074004430
         C            0.931829482458     0.052455696256    -0.003005356266    12.000000000000
         C           -0.449789617542     0.046824396256     0.020814943734    12.000000000000
         C            1.894888382458     1.094093396256     0.435435943734    12.000000000000
         C           -1.195176617542     1.202279396256    -0.267575056266    12.000000000000
         C           -1.135329617542    -1.148819603744     0.296650943734    12.000000000000
         C            3.112783382458    -0.669791603744    -0.274731056266    12.000000000000
         C            3.210336382458     0.610736396256     0.243566943734    12.000000000000
         C           -2.588517617542     1.164448396256    -0.266533056266    12.000000000000
         C           -2.529389617542    -1.188703603744     0.272071943734    12.000000000000
         C           -3.261623617542    -0.032601603744    -0.007050056266    12.000000000000
         H            1.400435382458    -1.793835603744    -0.829331056266     1.007825032230
         H            1.608597382458     2.045781396256     0.865439943734     1.007825032230
         H           -0.670299617542     2.125203396256    -0.504573056266     1.007825032230
         H           -0.573633617542    -2.040870603744     0.569296943734     1.007825032230
         H            3.872612382458    -1.378105603744    -0.575162056266     1.007825032230
         H            4.132560382458     1.128799396256     0.472406943734     1.007825032230
         H           -3.151825617542     2.067650396256    -0.490108056266     1.007825032230
         H           -3.045684617542    -2.121148603744     0.489275943734     1.007825032230
         H           -4.348397617542    -0.062814603744    -0.017480056266     1.007825032230

  Basis Set: AUG-CC-PVTZ
    Blend: AUG-CC-PVTZ
  Basis Set: (AUG-CC-PVTZ AUX)
    Blend: AUG-CC-PVTZ-JKFIT
	 Reference Energy          =    -438.4904426182348516 [Eh]
	 Singles Energy            =      -0.0000000000000000 [Eh]
	 Same-Spin Energy          =      -0.4981454302312075 [Eh]
	 Opposite-Spin Energy      =      -1.5295752091657313 [Eh]
	 Correlation Energy        =      -2.0277206393969389 [Eh]
	 Total Energy              =    -440.5181632576317838 [Eh]

	 ================> DF-SCS-MP2 Energies <==================
	-----------------------------------------------------------
	 SCS Same-Spin Scale       =       0.3333333333333333 [-]
	 SCS Opposite-Spin Scale   =       1.2000000000000000 [-]
	 SCS Same-Spin Energy      =      -0.1660484767437358 [Eh]
	 SCS Opposite-Spin Energy  =      -1.8354902509988775 [Eh]
	 SCS Correlation Energy    =      -2.0015387277426133 [Eh]
	 SCS Total Energy          =    -440.4919813459774787 [Eh]
	-----------------------------------------------------------

  Dipole Moment: [D]
     X:    -0.2863      Y:    -1.3746      Z:    -0.6679     Total:     1.5549

*** Psi4 exiting successfully. Buy a developer a beer!
