                               Psi4 1.3.2 release

  ==> Input File <==

--------------------------------------------------------------------------
#psi4
#
memory 32 gb

molecule  {
0 1
  N        1.7773000    -0.9706020    -0.3863220
  C        1.0080060     0.0962300     0.0271750
  C       -0.4507830     0.0432590     0.0183630
  C        1.8938950     1.0905280     0.4329840
  C       -1.1112944     1.2467614    -0.2802229
  C       -1.1363230    -1.1523850     0.2941990
  C        3.1117900    -0.6733570    -0.2771830
  C        3.2093430     0.6071710     0.2411150
  C       -2.5895110     1.1608830    -0.2689850
  C       -2.5303830    -1.1922690     0.2696200
  C       -3.2626170    -0.0361670    -0.0095020
  H        1.3994420    -1.7974010    -0.8317830
  H        1.6076040     2.0422160     0.8629880
  H       -0.6712930     2.1216380    -0.5070250
  H       -0.5746270    -2.0444360     0.5668450
  H        3.8716190    -1.3816710    -0.5776140
  H        4.1315670     1.1252340     0.4699550
  H       -3.1528190     2.0640850    -0.4925600
  H       -3.0466780    -2.1247140     0.4868240
  H       -4.3493910    -0.0663800    -0.0199320
units angstrom
no_reorient  #important for SAPT in psi4, default
symmetry c1  #important for SAPT in psi4, default
}

set PROPERTIES_ORIGIN ["COM"]
properties('MP2/aug-cc-pvtz', properties = ['dipole'])
--------------------------------------------------------------------------

    Molecular point group: c1
  Charge       = 0
  Multiplicity = 1
  Basis Set: AUG-CC-PVTZ
    Blend: AUG-CC-PVTZ
  Basis Set: (AUG-CC-PVTZ AUX)
    Blend: AUG-CC-PVTZ-JKFIT

    Orbital Energies [Eh]
    ---------------------

    Doubly Occupied:

       1A    -15.606965     2A    -11.260138     3A    -11.255314
       4A    -11.254974     5A    -11.250310     6A    -11.244614
       7A    -11.241494     8A    -11.240656     9A    -11.238393
      10A    -11.212996    11A    -11.211725    12A     -1.293126
      13A     -1.150338    14A     -1.050791    15A     -1.041813
      16A     -1.009960    17A     -0.958175    18A     -0.841744
      19A     -0.832836    20A     -0.787259    21A     -0.764483
      22A     -0.733600    23A     -0.685787    24A     -0.641838
      25A     -0.626950    26A     -0.594893    27A     -0.588557
      28A     -0.582739    29A     -0.567064    30A     -0.548506
      31A     -0.536515    32A     -0.508675    33A     -0.498034
      34A     -0.489870    35A     -0.365362    36A     -0.349573
      37A     -0.333160    38A     -0.273471

  @DF-RHF Final Energy:  -438.49504860617594

   => Energetics <=

    Nuclear Repulsion Energy =            536.0654922809133041
    One-Electron Energy =               -1655.7756886123611366
    Two-Electron Energy =                 681.2151477252718905
    Total Energy =                       -438.4950486061759420
  Basis Set: (AUG-CC-PVTZ AUX)
    Blend: AUG-CC-PVTZ-RI
    Molecular point group: c1

    Geometry (in Angstrom), charge = 0, multiplicity = 1:

       Center              X                  Y                   Z               Mass
    ------------   -----------------  -----------------  -----------------  -----------------
         N            1.764702144321    -0.975037003578    -0.385751863878    14.003074004430
         C            0.995408144321     0.091794996422     0.027745136122    12.000000000000
         C           -0.463380855679     0.038823996422     0.018933136122    12.000000000000
         C            1.881297144321     1.086092996422     0.433554136122    12.000000000000
         C           -1.123892255679     1.242326396422    -0.279652763878    12.000000000000
         C           -1.148920855679    -1.156820003578     0.294769136122    12.000000000000
         C            3.099192144321    -0.677792003578    -0.276612863878    12.000000000000
         C            3.196745144321     0.602735996422     0.241685136122    12.000000000000
         C           -2.602108855679     1.156447996422    -0.268414863878    12.000000000000
         C           -2.542980855679    -1.196704003578     0.270190136122    12.000000000000
         C           -3.275214855679    -0.040602003578    -0.008931863878    12.000000000000
         H            1.386844144321    -1.801836003578    -0.831212863878     1.007825032230
         H            1.595006144321     2.037780996422     0.863558136122     1.007825032230
         H           -0.683890855679     2.117202996422    -0.506454863878     1.007825032230
         H           -0.587224855679    -2.048871003578     0.567415136122     1.007825032230
         H            3.859021144321    -1.386106003578    -0.577043863878     1.007825032230
         H            4.118969144321     1.120798996422     0.470525136122     1.007825032230
         H           -3.165416855679     2.059649996422    -0.491989863878     1.007825032230
         H           -3.059275855679    -2.129149003578     0.487394136122     1.007825032230
         H           -4.361988855679    -0.070815003578    -0.019361863878     1.007825032230

  Basis Set: AUG-CC-PVTZ
    Blend: AUG-CC-PVTZ
  Basis Set: (AUG-CC-PVTZ AUX)
    Blend: AUG-CC-PVTZ-JKFIT
	 Reference Energy          =    -438.4950486061759420 [Eh]
	 Singles Energy            =      -0.0000000000000000 [Eh]
	 Same-Spin Energy          =      -0.4953088884173104 [Eh]
	 Opposite-Spin Energy      =      -1.5264032225088306 [Eh]
	 Correlation Energy        =      -2.0217121109261411 [Eh]
	 Total Energy              =    -440.5167607171021018 [Eh]

	 ================> DF-SCS-MP2 Energies <==================
	-----------------------------------------------------------
	 SCS Same-Spin Scale       =       0.3333333333333333 [-]
	 SCS Opposite-Spin Scale   =       1.2000000000000000 [-]
	 SCS Same-Spin Energy      =      -0.1651029628057701 [Eh]
	 SCS Opposite-Spin Energy  =      -1.8316838670105966 [Eh]
	 SCS Correlation Energy    =      -1.9967868298163667 [Eh]
	 SCS Total Energy          =    -440.4918354359923001 [Eh]
	-----------------------------------------------------------

  Dipole Moment: [D]
     X:    -0.5241      Y:    -1.3263      Z:    -0.6516     Total:     1.5679

*** Psi4 exiting successfully. Buy a developer a beer!
