                               Psi4 1.3.2 release

  ==> Input File <==

--------------------------------------------------------------------------
#psi4
#
memory 32 gb

molecule  {
0 1
  N        1.7773000    -0.9706020    -0.3863220
  C        1.0080060     0.0962300     0.0271750
  C       -0.3303861     0.1249408    -0.0030507
  C        1.8938950     1.0905280     0.4329840
  C       -1.1961700     1.1987140    -0.2700270
  C       -1.1363230    -1.1523850     0.2941990
  C        3.1117900    -0.6733570    -0.2771830
  C        3.2093430     0.6071710     0.2411150
  C       -2.5895110     1.1608830    -0.2689850
  C       -2.5303830    -1.1922690     0.2696200
  C       -3.2626170    -0.0361670    -0.0095020
  H        1.3994420    -1.7974010    -0.8317830
  H        1.6076040     2.0422160     0.8629880
  H       -0.6712930     2.1216380    -0.5070250
  H       -0.5746270    -2.0444360     0.5668450
  H        3.8716190    -1.3816710    -0.5776140
  H        4.1315670     1.1252340     0.4699550
  H       -3.1528190     2.0640850    -0.4925600
  H       -3.0466780    -2.1247140     0.4868240
  H       -4.3493910    -0.0663800    -0.0199320
units angstrom
no_reorient  #important for SAPT in psi4, default
symmetry c1  #important for SAPT in psi4, default
}

set PROPERTIES_ORIGIN ["COM"]
properties('MP2/aug-cc-pvtz', properties = ['dipole'])
--------------------------------------------------------------------------

    Molecular point group: c1
  Charge       = 0
  Multiplicity = 1
  Basis Set: AUG-CC-PVTZ
    Blend: AUG-CC-PVTZ
  Basis Set: (AUG-CC-PVTZ AUX)
    Blend: AUG-CC-PVTZ-JKFIT

    Orbital Energies [Eh]
    ---------------------

    Doubly Occupied:

       1A    -15.612235     2A    -11.263048     3A    -11.256406
       4A    -11.254907     5A    -11.250152     6A    -11.239780
       7A    -11.239551     8A    -11.236937     9A    -11.236536
      10A    -11.218143    11A    -11.216835    12A     -1.300152
      13A     -1.145936    14A     -1.064526    15A     -1.046797
      16A     -1.009800    17A     -0.956956    18A     -0.851481
      19A     -0.824567    20A     -0.791910    21A     -0.767899
      22A     -0.738613    23A     -0.681604    24A     -0.635565
      25A     -0.624828    26A     -0.595942    27A     -0.592275
      28A     -0.580520    29A     -0.574865    30A     -0.551849
      31A     -0.540416    32A     -0.516341    33A     -0.494054
      34A     -0.468422    35A     -0.370040    36A     -0.353778
      37A     -0.337119    38A     -0.263907

  @DF-RHF Final Energy:  -438.47804802445575

   => Energetics <=

    Nuclear Repulsion Energy =            536.9091826425872114
    One-Electron Energy =               -1657.3650716676515913
    Two-Electron Energy =                 681.9778410006086915
    Total Energy =                       -438.4780480244556884
  Basis Set: (AUG-CC-PVTZ AUX)
    Blend: AUG-CC-PVTZ-RI
    Molecular point group: c1

    Geometry (in Angstrom), charge = 0, multiplicity = 1:

       Center              X                  Y                   Z               Mass
    ------------   -----------------  -----------------  -----------------  -----------------
         N            1.761722867222    -0.977858020761    -0.384810993621    14.003074004430
         C            0.992428867222     0.088973979239     0.028686006379    12.000000000000
         C           -0.345963232778     0.117684779239    -0.001539693621    12.000000000000
         C            1.878317867222     1.083271979239     0.434495006379    12.000000000000
         C           -1.211747132778     1.191457979239    -0.268515993621    12.000000000000
         C           -1.151900132778    -1.159641020761     0.295710006379    12.000000000000
         C            3.096212867222    -0.680613020761    -0.275671993621    12.000000000000
         C            3.193765867222     0.599914979239     0.242626006379    12.000000000000
         C           -2.605088132778     1.153626979239    -0.267473993621    12.000000000000
         C           -2.545960132778    -1.199525020761     0.271131006379    12.000000000000
         C           -3.278194132778    -0.043423020761    -0.007990993621    12.000000000000
         H            1.383864867222    -1.804657020761    -0.830271993621     1.007825032230
         H            1.592026867222     2.034959979239     0.864499006379     1.007825032230
         H           -0.686870132778     2.114381979239    -0.505513993621     1.007825032230
         H           -0.590204132778    -2.051692020761     0.568356006379     1.007825032230
         H            3.856041867222    -1.388927020761    -0.576102993621     1.007825032230
         H            4.115989867222     1.117977979239     0.471466006379     1.007825032230
         H           -3.168396132778     2.056828979239    -0.491048993621     1.007825032230
         H           -3.062255132778    -2.131970020761     0.488335006379     1.007825032230
         H           -4.364968132778    -0.073636020761    -0.018420993621     1.007825032230

  Basis Set: AUG-CC-PVTZ
    Blend: AUG-CC-PVTZ
  Basis Set: (AUG-CC-PVTZ AUX)
    Blend: AUG-CC-PVTZ-JKFIT
	 Reference Energy          =    -438.4780480244557452 [Eh]
	 Singles Energy            =      -0.0000000000000000 [Eh]
	 Same-Spin Energy          =      -0.4978429530968742 [Eh]
	 Opposite-Spin Energy      =      -1.5297722627406785 [Eh]
	 Correlation Energy        =      -2.0276152158375527 [Eh]
	 Total Energy              =    -440.5056632402933019 [Eh]

	 ================> DF-SCS-MP2 Energies <==================
	-----------------------------------------------------------
	 SCS Same-Spin Scale       =       0.3333333333333333 [-]
	 SCS Opposite-Spin Scale   =       1.2000000000000000 [-]
	 SCS Same-Spin Energy      =      -0.1659476510322914 [Eh]
	 SCS Opposite-Spin Energy  =      -1.8357267152888141 [Eh]
	 SCS Correlation Energy    =      -2.0016743663211054 [Eh]
	 SCS Total Energy          =    -440.4797223907768284 [Eh]
	-----------------------------------------------------------

  Dipole Moment: [D]
     X:     0.0266      Y:    -1.3134      Z:    -0.6454     Total:     1.4636

*** Psi4 exiting successfully. Buy a developer a beer!
