                               Psi4 1.3.2 release

  ==> Input File <==

--------------------------------------------------------------------------
#psi4
#
memory 32 gb

molecule  {
0 1
  N        1.7773000    -0.9706020    -0.3863220
  C        0.9353217     0.1542176     0.0554011
  C       -0.4507830     0.0432590     0.0183630
  C        1.8938950     1.0905280     0.4329840
  C       -1.1961700     1.1987140    -0.2700270
  C       -1.1363230    -1.1523850     0.2941990
  C        3.1117900    -0.6733570    -0.2771830
  C        3.2093430     0.6071710     0.2411150
  C       -2.5895110     1.1608830    -0.2689850
  C       -2.5303830    -1.1922690     0.2696200
  C       -3.2626170    -0.0361670    -0.0095020
  H        1.3994420    -1.7974010    -0.8317830
  H        1.6076040     2.0422160     0.8629880
  H       -0.6712930     2.1216380    -0.5070250
  H       -0.5746270    -2.0444360     0.5668450
  H        3.8716190    -1.3816710    -0.5776140
  H        4.1315670     1.1252340     0.4699550
  H       -3.1528190     2.0640850    -0.4925600
  H       -3.0466780    -2.1247140     0.4868240
  H       -4.3493910    -0.0663800    -0.0199320
units angstrom
no_reorient  #important for SAPT in psi4, default
symmetry c1  #important for SAPT in psi4, default
}

set PROPERTIES_ORIGIN ["COM"]
properties('MP2/aug-cc-pvtz', properties = ['dipole'])
--------------------------------------------------------------------------

    Molecular point group: c1
  Charge       = 0
  Multiplicity = 1
  Basis Set: AUG-CC-PVTZ
    Blend: AUG-CC-PVTZ
  Basis Set: (AUG-CC-PVTZ AUX)
    Blend: AUG-CC-PVTZ-JKFIT

    Orbital Energies [Eh]
    ---------------------

    Doubly Occupied:

       1A    -15.602212     2A    -11.264228     3A    -11.263416
       4A    -11.248850     5A    -11.242268     6A    -11.240906
       7A    -11.240324     8A    -11.237603     9A    -11.237142
      10A    -11.221268    11A    -11.212935    12A     -1.270326
      13A     -1.158982    14A     -1.058330    15A     -1.038853
      16A     -1.016725    17A     -0.956685    18A     -0.847289
      19A     -0.833305    20A     -0.782060    21A     -0.755773
      22A     -0.736492    23A     -0.680248    24A     -0.636303
      25A     -0.631408    26A     -0.592820    27A     -0.589444
      28A     -0.573540    29A     -0.562007    30A     -0.543623
      31A     -0.539824    32A     -0.507833    33A     -0.502321
      34A     -0.493108    35A     -0.371193    36A     -0.347387
      37A     -0.341485    38A     -0.269535

  @DF-RHF Final Energy:  -438.49395232094309

   => Energetics <=

    Nuclear Repulsion Energy =            536.5530906660278561
    One-Electron Energy =               -1656.7979812014521031
    Two-Electron Energy =                 681.7509382144811525
    Total Energy =                       -438.4939523209430945
  Basis Set: (AUG-CC-PVTZ AUX)
    Blend: AUG-CC-PVTZ-RI
    Molecular point group: c1

    Geometry (in Angstrom), charge = 0, multiplicity = 1:

       Center              X                  Y                   Z               Mass
    ------------   -----------------  -----------------  -----------------  -----------------
         N            1.777917161842    -0.975870717722    -0.388974431316    14.003074004430
         C            0.935938861842     0.148948882278     0.052748668684    12.000000000000
         C           -0.450165838158     0.037990282278     0.015710568684    12.000000000000
         C            1.894512161842     1.085259282278     0.430331568684    12.000000000000
         C           -1.195552838158     1.193445282278    -0.272679431316    12.000000000000
         C           -1.135705838158    -1.157653717722     0.291546568684    12.000000000000
         C            3.112407161842    -0.678625717722    -0.279835431316    12.000000000000
         C            3.209960161842     0.601902282278     0.238462568684    12.000000000000
         C           -2.588893838158     1.155614282278    -0.271637431316    12.000000000000
         C           -2.529765838158    -1.197537717722     0.266967568684    12.000000000000
         C           -3.261999838158    -0.041435717722    -0.012154431316    12.000000000000
         H            1.400059161842    -1.802669717722    -0.834435431316     1.007825032230
         H            1.608221161842     2.036947282278     0.860335568684     1.007825032230
         H           -0.670675838158     2.116369282278    -0.509677431316     1.007825032230
         H           -0.574009838158    -2.049704717722     0.564192568684     1.007825032230
         H            3.872236161842    -1.386939717722    -0.580266431316     1.007825032230
         H            4.132184161842     1.119965282278     0.467302568684     1.007825032230
         H           -3.152201838158     2.058816282278    -0.495212431316     1.007825032230
         H           -3.046060838158    -2.129982717722     0.484171568684     1.007825032230
         H           -4.348773838158    -0.071648717722    -0.022584431316     1.007825032230

  Basis Set: AUG-CC-PVTZ
    Blend: AUG-CC-PVTZ
  Basis Set: (AUG-CC-PVTZ AUX)
    Blend: AUG-CC-PVTZ-JKFIT
	 Reference Energy          =    -438.4939523209430945 [Eh]
	 Singles Energy            =      -0.0000000000000000 [Eh]
	 Same-Spin Energy          =      -0.4965839184849199 [Eh]
	 Opposite-Spin Energy      =      -1.5283049672000200 [Eh]
	 Correlation Energy        =      -2.0248888856849399 [Eh]
	 Total Energy              =    -440.5188412066280534 [Eh]

	 ================> DF-SCS-MP2 Energies <==================
	-----------------------------------------------------------
	 SCS Same-Spin Scale       =       0.3333333333333333 [-]
	 SCS Opposite-Spin Scale   =       1.2000000000000000 [-]
	 SCS Same-Spin Energy      =      -0.1655279728283066 [Eh]
	 SCS Opposite-Spin Energy  =      -1.8339659606400238 [Eh]
	 SCS Correlation Energy    =      -1.9994939334683304 [Eh]
	 SCS Total Energy          =    -440.4934462544114240 [Eh]
	-----------------------------------------------------------

  Dipole Moment: [D]
     X:    -0.4362      Y:    -1.2343      Z:    -0.6031     Total:     1.4414

*** Psi4 exiting successfully. Buy a developer a beer!
