                               Psi4 1.3.2 release

  ==> Input File <==

--------------------------------------------------------------------------
#psi4
#
memory 32 gb

molecule  {
0 1
  N        1.6956163    -1.0183439    -0.4039175
  C        1.0080060     0.0962300     0.0271750
  C       -0.4507830     0.0432590     0.0183630
  C        1.8938950     1.0905280     0.4329840
  C       -1.1961700     1.1987140    -0.2700270
  C       -1.1363230    -1.1523850     0.2941990
  C        3.1117900    -0.6733570    -0.2771830
  C        3.2093430     0.6071710     0.2411150
  C       -2.5895110     1.1608830    -0.2689850
  C       -2.5303830    -1.1922690     0.2696200
  C       -3.2626170    -0.0361670    -0.0095020
  H        1.3994420    -1.7974010    -0.8317830
  H        1.6076040     2.0422160     0.8629880
  H       -0.6712930     2.1216380    -0.5070250
  H       -0.5746270    -2.0444360     0.5668450
  H        3.8716190    -1.3816710    -0.5776140
  H        4.1315670     1.1252340     0.4699550
  H       -3.1528190     2.0640850    -0.4925600
  H       -3.0466780    -2.1247140     0.4868240
  H       -4.3493910    -0.0663800    -0.0199320
units angstrom
no_reorient  #important for SAPT in psi4, default
symmetry c1  #important for SAPT in psi4, default
}

set PROPERTIES_ORIGIN ["COM"]
properties('MP2/aug-cc-pvtz', properties = ['dipole'])
--------------------------------------------------------------------------

    Molecular point group: c1
  Charge       = 0
  Multiplicity = 1
  Basis Set: AUG-CC-PVTZ
    Blend: AUG-CC-PVTZ
  Basis Set: (AUG-CC-PVTZ AUX)
    Blend: AUG-CC-PVTZ-JKFIT

    Orbital Energies [Eh]
    ---------------------

    Doubly Occupied:

       1A    -15.599792     2A    -11.269849     3A    -11.262251
       4A    -11.251091     5A    -11.241670     6A    -11.240372
       7A    -11.240174     8A    -11.237967     9A    -11.237543
      10A    -11.222352    11A    -11.214630    12A     -1.278188
      13A     -1.154963    14A     -1.056855    15A     -1.043944
      16A     -1.016714    17A     -0.952636    18A     -0.840189
      19A     -0.831436    20A     -0.804763    21A     -0.759577
      22A     -0.732655    23A     -0.676603    24A     -0.632889
      25A     -0.626100    26A     -0.608884    27A     -0.589207
      28A     -0.571645    29A     -0.561233    30A     -0.548931
      31A     -0.538002    32A     -0.501719    33A     -0.499972
      34A     -0.494549    35A     -0.360572    36A     -0.357270
      37A     -0.340961    38A     -0.274112

  @DF-RHF Final Energy:  -438.49562465343473

   => Energetics <=

    Nuclear Repulsion Energy =            536.0754357491039173
    One-Electron Energy =               -1655.7975971333401048
    Two-Electron Energy =                 681.2265367308015129
    Total Energy =                       -438.4956246534346747
  Basis Set: (AUG-CC-PVTZ AUX)
    Blend: AUG-CC-PVTZ-RI
    Molecular point group: c1

    Geometry (in Angstrom), charge = 0, multiplicity = 1:

       Center              X                  Y                   Z               Mass
    ------------   -----------------  -----------------  -----------------  -----------------
         N            1.698131865791    -1.014076368413    -0.402480394878    14.003074004430
         C            1.010521565791     0.100497531587     0.028612105122    12.000000000000
         C           -0.448267434209     0.047526531587     0.019800105122    12.000000000000
         C            1.896410565791     1.094795531587     0.434421105122    12.000000000000
         C           -1.193654434209     1.202981531587    -0.268589894878    12.000000000000
         C           -1.133807434209    -1.148117468413     0.295636105122    12.000000000000
         C            3.114305565791    -0.669089468413    -0.275745894878    12.000000000000
         C            3.211858565791     0.611438531587     0.242552105122    12.000000000000
         C           -2.586995434209     1.165150531587    -0.267547894878    12.000000000000
         C           -2.527867434209    -1.188001468413     0.271057105122    12.000000000000
         C           -3.260101434209    -0.031899468413    -0.008064894878    12.000000000000
         H            1.401957565791    -1.793133468413    -0.830345894878     1.007825032230
         H            1.610119565791     2.046483531587     0.864425105122     1.007825032230
         H           -0.668777434209     2.125905531587    -0.505587894878     1.007825032230
         H           -0.572111434209    -2.040168468413     0.568282105122     1.007825032230
         H            3.874134565791    -1.377403468413    -0.576176894878     1.007825032230
         H            4.134082565791     1.129501531587     0.471392105122     1.007825032230
         H           -3.150303434209     2.068352531587    -0.491122894878     1.007825032230
         H           -3.044162434209    -2.120446468413     0.488261105122     1.007825032230
         H           -4.346875434209    -0.062112468413    -0.018494894878     1.007825032230

  Basis Set: AUG-CC-PVTZ
    Blend: AUG-CC-PVTZ
  Basis Set: (AUG-CC-PVTZ AUX)
    Blend: AUG-CC-PVTZ-JKFIT
	 Reference Energy          =    -438.4956246534347315 [Eh]
	 Singles Energy            =      -0.0000000000000000 [Eh]
	 Same-Spin Energy          =      -0.4943899439853556 [Eh]
	 Opposite-Spin Energy      =      -1.5258709688543206 [Eh]
	 Correlation Energy        =      -2.0202609128396762 [Eh]
	 Total Energy              =    -440.5158855662743917 [Eh]

	 ================> DF-SCS-MP2 Energies <==================
	-----------------------------------------------------------
	 SCS Same-Spin Scale       =       0.3333333333333333 [-]
	 SCS Opposite-Spin Scale   =       1.2000000000000000 [-]
	 SCS Same-Spin Energy      =      -0.1647966479951185 [Eh]
	 SCS Opposite-Spin Energy  =      -1.8310451626251847 [Eh]
	 SCS Correlation Energy    =      -1.9958418106203033 [Eh]
	 SCS Total Energy          =    -440.4914664640550086 [Eh]
	-----------------------------------------------------------

  Dipole Moment: [D]
     X:    -0.3082      Y:    -1.0978      Z:    -0.5650     Total:     1.2725

*** Psi4 exiting successfully. Buy a developer a beer!
