                               Psi4 1.3.2 release

  ==> Input File <==

--------------------------------------------------------------------------
#psi4
#
memory 32 gb

molecule  {
0 1
  N        1.7773000    -0.9706020    -0.3863220
  C        1.0080060     0.0962300     0.0271750
  C       -0.4507830     0.0432590     0.0183630
  C        1.8938950     1.0905280     0.4329840
  C       -1.1961700     1.1987140    -0.2700270
  C       -1.1363230    -1.1523850     0.2941990
  C        3.1117900    -0.6733570    -0.2771830
  C        3.1852216     0.6084118     0.2420260
  C       -2.5895110     1.1608830    -0.2689850
  C       -2.5303830    -1.1922690     0.2696200
  C       -3.2626170    -0.0361670    -0.0095020
  H        1.3994420    -1.7974010    -0.8317830
  H        1.6076040     2.0422160     0.8629880
  H       -0.6712930     2.1216380    -0.5070250
  H       -0.5746270    -2.0444360     0.5668450
  H        3.8716190    -1.3816710    -0.5776140
  H        4.1315670     1.1252340     0.4699550
  H       -3.1528190     2.0640850    -0.4925600
  H       -3.0466780    -2.1247140     0.4868240
  H       -4.3493910    -0.0663800    -0.0199320
units angstrom
no_reorient  #important for SAPT in psi4, default
symmetry c1  #important for SAPT in psi4, default
}

set PROPERTIES_ORIGIN ["COM"]
properties('MP2/aug-cc-pvtz', properties = ['dipole'])
--------------------------------------------------------------------------

    Molecular point group: c1
  Charge       = 0
  Multiplicity = 1
  Basis Set: AUG-CC-PVTZ
    Blend: AUG-CC-PVTZ
  Basis Set: (AUG-CC-PVTZ AUX)
    Blend: AUG-CC-PVTZ-JKFIT

    Orbital Energies [Eh]
    ---------------------

    Doubly Occupied:

       1A    -15.608867     2A    -11.261724     3A    -11.255434
       4A    -11.253073     5A    -11.241895     6A    -11.240637
       7A    -11.240302     8A    -11.237786     9A    -11.237516
      10A    -11.213169    11A    -11.211139    12A     -1.295363
      13A     -1.156046    14A     -1.050398    15A     -1.044930
      16A     -1.016777    17A     -0.958780    18A     -0.838310
      19A     -0.831972    20A     -0.788833    21A     -0.763585
      22A     -0.735424    23A     -0.679874    24A     -0.633222
      25A     -0.629688    26A     -0.592753    27A     -0.588119
      28A     -0.583258    29A     -0.569930    30A     -0.543886
      31A     -0.542672    32A     -0.504511    33A     -0.500660
      34A     -0.494162    35A     -0.363305    36A     -0.353042
      37A     -0.341261    38A     -0.272102

  @DF-RHF Final Energy:  -438.50763569712524

   => Energetics <=

    Nuclear Repulsion Energy =            537.2823331804129339
    One-Electron Energy =               -1658.2311279997127258
    Two-Electron Energy =                 682.4411591221745539
    Total Energy =                       -438.5076356971252380
  Basis Set: (AUG-CC-PVTZ AUX)
    Blend: AUG-CC-PVTZ-RI
    Molecular point group: c1

    Geometry (in Angstrom), charge = 0, multiplicity = 1:

       Center              X                  Y                   Z               Mass
    ------------   -----------------  -----------------  -----------------  -----------------
         N            1.773844046955    -0.971111194796    -0.386683432622    14.003074004430
         C            1.004550046955     0.095720805204     0.026813567378    12.000000000000
         C           -0.454238953045     0.042749805204     0.018001567378    12.000000000000
         C            1.890439046955     1.090018805204     0.432622567378    12.000000000000
         C           -1.199625953045     1.198204805204    -0.270388432622    12.000000000000
         C           -1.139778953045    -1.152894194796     0.293837567378    12.000000000000
         C            3.108334046955    -0.673866194796    -0.277544432622    12.000000000000
         C            3.181765646955     0.607902605204     0.241664567378    12.000000000000
         C           -2.592966953045     1.160373805204    -0.269346432622    12.000000000000
         C           -2.533838953045    -1.192778194796     0.269258567378    12.000000000000
         C           -3.266072953045    -0.036676194796    -0.009863432622    12.000000000000
         H            1.395986046955    -1.797910194796    -0.832144432622     1.007825032230
         H            1.604148046955     2.041706805204     0.862626567378     1.007825032230
         H           -0.674748953045     2.121128805204    -0.507386432622     1.007825032230
         H           -0.578082953045    -2.044945194796     0.566483567378     1.007825032230
         H            3.868163046955    -1.382180194796    -0.577975432622     1.007825032230
         H            4.128111046955     1.124724805204     0.469593567378     1.007825032230
         H           -3.156274953045     2.063575805204    -0.492921432622     1.007825032230
         H           -3.050133953045    -2.125223194796     0.486462567378     1.007825032230
         H           -4.352846953045    -0.066889194796    -0.020293432622     1.007825032230

  Basis Set: AUG-CC-PVTZ
    Blend: AUG-CC-PVTZ
  Basis Set: (AUG-CC-PVTZ AUX)
    Blend: AUG-CC-PVTZ-JKFIT
	 Reference Energy          =    -438.5076356971252380 [Eh]
	 Singles Energy            =      -0.0000000000000000 [Eh]
	 Same-Spin Energy          =      -0.4955954131997716 [Eh]
	 Opposite-Spin Energy      =      -1.5255788463785191 [Eh]
	 Correlation Energy        =      -2.0211742595782907 [Eh]
	 Total Energy              =    -440.5288099567035260 [Eh]

	 ================> DF-SCS-MP2 Energies <==================
	-----------------------------------------------------------
	 SCS Same-Spin Scale       =       0.3333333333333333 [-]
	 SCS Opposite-Spin Scale   =       1.2000000000000000 [-]
	 SCS Same-Spin Energy      =      -0.1651984710665905 [Eh]
	 SCS Opposite-Spin Energy  =      -1.8306946156542230 [Eh]
	 SCS Correlation Energy    =      -1.9958930867208136 [Eh]
	 SCS Total Energy          =    -440.5035287838460363 [Eh]
	-----------------------------------------------------------

  Dipole Moment: [D]
     X:    -0.4349      Y:    -1.3196      Z:    -0.6487     Total:     1.5334

*** Psi4 exiting successfully. Buy a developer a beer!
