                               Psi4 1.3.2 release

  ==> Input File <==

--------------------------------------------------------------------------
#psi4
#
memory 32 gb

molecule  {
0 1
  N        1.7773000    -0.9706020    -0.3863220
  C        1.0080060     0.0962300     0.0271750
  C       -0.4507830     0.0432590     0.0183630
  C        1.8938950     1.0905280     0.4329840
  C       -1.2168373     1.1858128    -0.2672564
  C       -1.1363230    -1.1523850     0.2941990
  C        3.1117900    -0.6733570    -0.2771830
  C        3.2093430     0.6071710     0.2411150
  C       -2.5895110     1.1608830    -0.2689850
  C       -2.5303830    -1.1922690     0.2696200
  C       -3.2626170    -0.0361670    -0.0095020
  H        1.3994420    -1.7974010    -0.8317830
  H        1.6076040     2.0422160     0.8629880
  H       -0.6712930     2.1216380    -0.5070250
  H       -0.5746270    -2.0444360     0.5668450
  H        3.8716190    -1.3816710    -0.5776140
  H        4.1315670     1.1252340     0.4699550
  H       -3.1528190     2.0640850    -0.4925600
  H       -3.0466780    -2.1247140     0.4868240
  H       -4.3493910    -0.0663800    -0.0199320
units angstrom
no_reorient  #important for SAPT in psi4, default
symmetry c1  #important for SAPT in psi4, default
}

set PROPERTIES_ORIGIN ["COM"]
properties('MP2/aug-cc-pvtz', properties = ['dipole'])
--------------------------------------------------------------------------

    Molecular point group: c1
  Charge       = 0
  Multiplicity = 1
  Basis Set: AUG-CC-PVTZ
    Blend: AUG-CC-PVTZ
  Basis Set: (AUG-CC-PVTZ AUX)
    Blend: AUG-CC-PVTZ-JKFIT

    Orbital Energies [Eh]
    ---------------------

    Doubly Occupied:

       1A    -15.608596     2A    -11.262626     3A    -11.256942
       4A    -11.253012     5A    -11.241516     6A    -11.240252
       7A    -11.238625     8A    -11.237642     9A    -11.236746
      10A    -11.214157    11A    -11.213069    12A     -1.294416
      13A     -1.158005    14A     -1.048703    15A     -1.043304
      16A     -1.018568    17A     -0.959484    18A     -0.839066
      19A     -0.830284    20A     -0.788971    21A     -0.765112
      22A     -0.735943    23A     -0.679091    24A     -0.633114
      25A     -0.629338    26A     -0.593183    27A     -0.589019
      28A     -0.582170    29A     -0.569934    30A     -0.549591
      31A     -0.537054    32A     -0.506508    33A     -0.502610
      34A     -0.489920    35A     -0.363145    36A     -0.350397
      37A     -0.343505    38A     -0.273346

  @DF-RHF Final Energy:  -438.50826327978751

   => Energetics <=

    Nuclear Repulsion Energy =            537.0495068249415453
    One-Electron Energy =               -1657.7616140539196294
    Two-Electron Energy =                 682.2038439491905137
    Total Energy =                       -438.5082632797875704
  Basis Set: (AUG-CC-PVTZ AUX)
    Blend: AUG-CC-PVTZ-RI
    Molecular point group: c1

    Geometry (in Angstrom), charge = 0, multiplicity = 1:

       Center              X                  Y                   Z               Mass
    ------------   -----------------  -----------------  -----------------  -----------------
         N            1.773554341312    -0.969925063186    -0.386839402806    14.003074004430
         C            1.004260341312     0.096906936814     0.026657597194    12.000000000000
         C           -0.454528658688     0.043935936814     0.017845597194    12.000000000000
         C            1.890149341312     1.091204936814     0.432466597194    12.000000000000
         C           -1.220582958688     1.186489736814    -0.267773802806    12.000000000000
         C           -1.140068658688    -1.151708063186     0.293681597194    12.000000000000
         C            3.108044341312    -0.672680063186    -0.277700402806    12.000000000000
         C            3.205597341312     0.607847936814     0.240597597194    12.000000000000
         C           -2.593256658688     1.161559936814    -0.269502402806    12.000000000000
         C           -2.534128658688    -1.191592063186     0.269102597194    12.000000000000
         C           -3.266362658688    -0.035490063186    -0.010019402806    12.000000000000
         H            1.395696341312    -1.796724063186    -0.832300402806     1.007825032230
         H            1.603858341312     2.042892936814     0.862470597194     1.007825032230
         H           -0.675038658688     2.122314936814    -0.507542402806     1.007825032230
         H           -0.578372658688    -2.043759063186     0.566327597194     1.007825032230
         H            3.867873341312    -1.380994063186    -0.578131402806     1.007825032230
         H            4.127821341312     1.125910936814     0.469437597194     1.007825032230
         H           -3.156564658688     2.064761936814    -0.493077402806     1.007825032230
         H           -3.050423658688    -2.124037063186     0.486306597194     1.007825032230
         H           -4.353136658688    -0.065703063186    -0.020449402806     1.007825032230

  Basis Set: AUG-CC-PVTZ
    Blend: AUG-CC-PVTZ
  Basis Set: (AUG-CC-PVTZ AUX)
    Blend: AUG-CC-PVTZ-JKFIT
	 Reference Energy          =    -438.5082632797875135 [Eh]
	 Singles Energy            =      -0.0000000000000000 [Eh]
	 Same-Spin Energy          =      -0.4952900372218125 [Eh]
	 Opposite-Spin Energy      =      -1.5252893261366431 [Eh]
	 Correlation Energy        =      -2.0205793633584554 [Eh]
	 Total Energy              =    -440.5288426431459925 [Eh]

	 ================> DF-SCS-MP2 Energies <==================
	-----------------------------------------------------------
	 SCS Same-Spin Scale       =       0.3333333333333333 [-]
	 SCS Opposite-Spin Scale   =       1.2000000000000000 [-]
	 SCS Same-Spin Energy      =      -0.1650966790739375 [Eh]
	 SCS Opposite-Spin Energy  =      -1.8303471913639717 [Eh]
	 SCS Correlation Energy    =      -1.9954438704379092 [Eh]
	 SCS Total Energy          =    -440.5037071502254094 [Eh]
	-----------------------------------------------------------

  Dipole Moment: [D]
     X:    -0.4347      Y:    -1.3228      Z:    -0.6450     Total:     1.5346

*** Psi4 exiting successfully. Buy a developer a beer!
