                               Psi4 1.3.2 release

  ==> Input File <==

--------------------------------------------------------------------------
#psi4
#
memory 32 gb

molecule  {
0 1
  N        1.7773000    -0.9706020    -0.3863220
  C        1.0080060     0.0962300     0.0271750
  C       -0.4507830     0.0432590     0.0183630
  C        1.8938950     1.0905280     0.4329840
  C       -1.1961700     1.1987140    -0.2700270
  C       -1.1363230    -1.1523850     0.2941990
  C        3.1600513    -0.6760979    -0.2772408
  C        3.2093430     0.6071710     0.2411150
  C       -2.5895110     1.1608830    -0.2689850
  C       -2.5303830    -1.1922690     0.2696200
  C       -3.2626170    -0.0361670    -0.0095020
  H        1.3994420    -1.7974010    -0.8317830
  H        1.6076040     2.0422160     0.8629880
  H       -0.6712930     2.1216380    -0.5070250
  H       -0.5746270    -2.0444360     0.5668450
  H        3.8716190    -1.3816710    -0.5776140
  H        4.1315670     1.1252340     0.4699550
  H       -3.1528190     2.0640850    -0.4925600
  H       -3.0466780    -2.1247140     0.4868240
  H       -4.3493910    -0.0663800    -0.0199320
units angstrom
no_reorient  #important for SAPT in psi4, default
symmetry c1  #important for SAPT in psi4, default
}

set PROPERTIES_ORIGIN ["COM"]
properties('MP2/aug-cc-pvtz', properties = ['dipole'])
--------------------------------------------------------------------------

    Molecular point group: c1
  Charge       = 0
  Multiplicity = 1
  Basis Set: AUG-CC-PVTZ
    Blend: AUG-CC-PVTZ
  Basis Set: (AUG-CC-PVTZ AUX)
    Blend: AUG-CC-PVTZ-JKFIT

    Orbital Energies [Eh]
    ---------------------

    Doubly Occupied:

       1A    -15.605252     2A    -11.265663     3A    -11.255978
       4A    -11.253891     5A    -11.242705     6A    -11.241511
       7A    -11.241321     8A    -11.239154     9A    -11.238806
      10A    -11.217083    11A    -11.212297    12A     -1.281067
      13A     -1.156573    14A     -1.047267    15A     -1.041637
      16A     -1.017409    17A     -0.960160    18A     -0.840304
      19A     -0.832551    20A     -0.785039    21A     -0.763245
      22A     -0.736352    23A     -0.680598    24A     -0.634599
      25A     -0.629433    26A     -0.592586    27A     -0.588005
      28A     -0.581729    29A     -0.563577    30A     -0.545388
      31A     -0.544027    32A     -0.504809    33A     -0.501414
      34A     -0.495048    35A     -0.362518    36A     -0.349832
      37A     -0.341970    38A     -0.275165

  @DF-RHF Final Energy:  -438.50514697690608

   => Energetics <=

    Nuclear Repulsion Energy =            535.8527753142515166
    One-Electron Energy =               -1655.3839168948393308
    Two-Electron Energy =                 681.0259946036816245
    Total Energy =                       -438.5051469769060759
  Basis Set: (AUG-CC-PVTZ AUX)
    Blend: AUG-CC-PVTZ-RI
    Molecular point group: c1

    Geometry (in Angstrom), charge = 0, multiplicity = 1:

       Center              X                  Y                   Z               Mass
    ------------   -----------------  -----------------  -----------------  -----------------
         N            1.767773094582    -0.970777237772    -0.386602176484    14.003074004430
         C            0.998479094582     0.096054762228     0.026894823516    12.000000000000
         C           -0.460309905418     0.043083762228     0.018082823516    12.000000000000
         C            1.884368094582     1.090352762228     0.432703823516    12.000000000000
         C           -1.205696905418     1.198538762228    -0.270307176484    12.000000000000
         C           -1.145849905418    -1.152560237772     0.293918823516    12.000000000000
         C            3.150524394582    -0.676273137772    -0.277520976484    12.000000000000
         C            3.199816094582     0.606995762228     0.240834823516    12.000000000000
         C           -2.599037905418     1.160707762228    -0.269265176484    12.000000000000
         C           -2.539909905418    -1.192444237772     0.269339823516    12.000000000000
         C           -3.272143905418    -0.036342237772    -0.009782176484    12.000000000000
         H            1.389915094582    -1.797576237772    -0.832063176484     1.007825032230
         H            1.598077094582     2.042040762228     0.862707823516     1.007825032230
         H           -0.680819905418     2.121462762228    -0.507305176484     1.007825032230
         H           -0.584153905418    -2.044611237772     0.566564823516     1.007825032230
         H            3.862092094582    -1.381846237772    -0.577894176484     1.007825032230
         H            4.122040094582     1.125058762228     0.469674823516     1.007825032230
         H           -3.162345905418     2.063909762228    -0.492840176484     1.007825032230
         H           -3.056204905418    -2.124889237772     0.486543823516     1.007825032230
         H           -4.358917905418    -0.066555237772    -0.020212176484     1.007825032230

  Basis Set: AUG-CC-PVTZ
    Blend: AUG-CC-PVTZ
  Basis Set: (AUG-CC-PVTZ AUX)
    Blend: AUG-CC-PVTZ-JKFIT
	 Reference Energy          =    -438.5051469769060759 [Eh]
	 Singles Energy            =      -0.0000000000000000 [Eh]
	 Same-Spin Energy          =      -0.4951639324469599 [Eh]
	 Opposite-Spin Energy      =      -1.5260346081058409 [Eh]
	 Correlation Energy        =      -2.0211985405528008 [Eh]
	 Total Energy              =    -440.5263455174588785 [Eh]

	 ================> DF-SCS-MP2 Energies <==================
	-----------------------------------------------------------
	 SCS Same-Spin Scale       =       0.3333333333333333 [-]
	 SCS Opposite-Spin Scale   =       1.2000000000000000 [-]
	 SCS Same-Spin Energy      =      -0.1650546441489866 [Eh]
	 SCS Opposite-Spin Energy  =      -1.8312415297270090 [Eh]
	 SCS Correlation Energy    =      -1.9962961738759957 [Eh]
	 SCS Total Energy          =    -440.5014431507820518 [Eh]
	-----------------------------------------------------------

  Dipole Moment: [D]
     X:    -0.4831      Y:    -1.2737      Z:    -0.6296     Total:     1.5007

*** Psi4 exiting successfully. Buy a developer a beer!
