                               Psi4 1.4a3.dev225

  ==> Input File <==

--------------------------------------------------------------------------
#psi4
#
memory 32 gb

molecule  {
0 1
  N        1.7773000    -0.9706020    -0.3863220
  C        1.0080060     0.0962300     0.0271750
  C       -0.4507830     0.0432590     0.0183630
  C        1.8938950     1.0905280     0.4329840
  C       -1.1961700     1.1987140    -0.2700270
  C       -1.1363230    -1.1523850     0.2941990
  C        3.1117900    -0.6733570    -0.2771830
  C        3.2093430     0.6071710     0.2411150
  C       -2.5895110     1.1608830    -0.2689850
  C       -2.5303830    -1.1922690     0.2696200
  C       -3.2626170    -0.0361670    -0.0095020
  H        1.3994420    -1.7974010    -0.8317830
  H        1.6076040     2.0422160     0.8629880
  H       -0.6712930     2.1216380    -0.5070250
  H       -0.5746270    -2.0444360     0.5668450
  H        3.8716190    -1.3816710    -0.5776140
  H        4.1741740     1.1491686     0.4805275
  H       -3.1528190     2.0640850    -0.4925600
  H       -3.0466780    -2.1247140     0.4868240
  H       -4.3493910    -0.0663800    -0.0199320
units angstrom
no_reorient  #important for SAPT in psi4, default
symmetry c1  #important for SAPT in psi4, default
}

set PROPERTIES_ORIGIN ["COM"]
properties('MP2/aug-cc-pvtz', properties = ['dipole'])
--------------------------------------------------------------------------

    Molecular point group: c1
  Charge       = 0
  Multiplicity = 1
  Basis Set: AUG-CC-PVTZ
    Blend: AUG-CC-PVTZ
  Basis Set: (AUG-CC-PVTZ AUX)
    Blend: AUG-CC-PVTZ-JKFIT

    Orbital Energies [Eh]
    ---------------------

    Doubly Occupied:

       1A    -15.608557     2A    -11.262438     3A    -11.257009
       4A    -11.253398     5A    -11.242133     6A    -11.240835
       7A    -11.240612     8A    -11.238064     9A    -11.237789
      10A    -11.219223    11A    -11.213701    12A     -1.294488
      13A     -1.156289    14A     -1.049075    15A     -1.042225
      16A     -1.016861    17A     -0.959077    18A     -0.838007
      19A     -0.832088    20A     -0.785837    21A     -0.762717
      22A     -0.735126    23A     -0.679822    24A     -0.633380
      25A     -0.629775    26A     -0.591966    27A     -0.587130
      28A     -0.583117    29A     -0.569581    30A     -0.544162
      31A     -0.537023    32A     -0.504720    33A     -0.500555
      34A     -0.494283    35A     -0.363621    36A     -0.350520
      37A     -0.341454    38A     -0.273612

  @DF-RHF Final Energy:  -438.50640298565293

   => Energetics <=

    Nuclear Repulsion Energy =            536.5817887140888161
    One-Electron Energy =               -1656.8358434201024920
    Two-Electron Energy =                 681.7476517203607500
    Total Energy =                       -438.5064029856529260
  Basis Set: (AUG-CC-PVTZ AUX)
    Blend: AUG-CC-PVTZ-RI
    Molecular point group: c1

    Geometry (in Angstrom), charge = 0, multiplicity = 1:

       Center              X                  Y                   Z               Mass
    ------------   -----------------  -----------------  -----------------  -----------------
         N            1.771520785115    -0.971175723091    -0.386681498163    14.003074004430
         C            1.002226785115     0.095656276909     0.026815501837    12.000000000000
         C           -0.456562214885     0.042685276909     0.018003501837    12.000000000000
         C            1.888115785115     1.089954276909     0.432624501837    12.000000000000
         C           -1.201949214885     1.198140276909    -0.270386498163    12.000000000000
         C           -1.142102214885    -1.152958723091     0.293839501837    12.000000000000
         C            3.106010785115    -0.673930723091    -0.277542498163    12.000000000000
         C            3.203563785115     0.606597276909     0.240755501837    12.000000000000
         C           -2.595290214885     1.160309276909    -0.269344498163    12.000000000000
         C           -2.536162214885    -1.192842723091     0.269260501837    12.000000000000
         C           -3.268396214885    -0.036740723091    -0.009861498163    12.000000000000
         H            1.393662785115    -1.797974723091    -0.832142498163     1.007825032230
         H            1.601824785115     2.041642276909     0.862628501837     1.007825032230
         H           -0.677072214885     2.121064276909    -0.507384498163     1.007825032230
         H           -0.580406214885    -2.045009723091     0.566485501837     1.007825032230
         H            3.865839785115    -1.382244723091    -0.577973498163     1.007825032230
         H            4.168394785115     1.148594876909     0.480168001837     1.007825032230
         H           -3.158598214885     2.063511276909    -0.492919498163     1.007825032230
         H           -3.052457214885    -2.125287723091     0.486464501837     1.007825032230
         H           -4.355170214885    -0.066953723091    -0.020291498163     1.007825032230

  Basis Set: AUG-CC-PVTZ
    Blend: AUG-CC-PVTZ
  Basis Set: (AUG-CC-PVTZ AUX)
    Blend: AUG-CC-PVTZ-JKFIT
	 Reference Energy          =    -438.5064029856529260 [Eh]
	 Singles Energy            =      -0.0000000000000000 [Eh]
	 Same-Spin Energy          =      -0.4953335870727479 [Eh]
	 Opposite-Spin Energy      =      -1.5257218459408131 [Eh]
	 Correlation Energy        =      -2.0210554330135611 [Eh]
	 Total Energy              =    -440.5274584186664697 [Eh]

	 ================> DF-SCS-MP2 Energies <==================
	-----------------------------------------------------------
	 SCS Same-Spin Scale       =       0.3333333333333333 [-]
	 SCS Opposite-Spin Scale   =       1.2000000000000000 [-]
	 SCS Same-Spin Energy      =      -0.1651111956909160 [Eh]
	 SCS Opposite-Spin Energy  =      -1.8308662151289756 [Eh]
	 SCS Correlation Energy    =      -1.9959774108198916 [Eh]
	 SCS Total Energy          =    -440.5023803964728017 [Eh]
	-----------------------------------------------------------

  Dipole Moment: [D]
     X:    -0.4681      Y:    -1.3220      Z:    -0.6487     Total:     1.5452

*** Psi4 exiting successfully. Buy a developer a beer!
