                               Psi4 1.3.2 release

  ==> Input File <==

--------------------------------------------------------------------------
#psi4
#
memory 32 gb

molecule  {
0 1
  N        1.7773000    -0.9706020    -0.3863220
  C        1.0080060     0.0962300     0.0271750
  C       -0.4507830     0.0432590     0.0183630
  C        1.8938950     1.0905280     0.4329840
  C       -1.2372712     1.1725636    -0.2643988
  C       -1.1363230    -1.1523850     0.2941990
  C        3.1117900    -0.6733570    -0.2771830
  C        3.2093430     0.6071710     0.2411150
  C       -2.5895110     1.1608830    -0.2689850
  C       -2.5303830    -1.1922690     0.2696200
  C       -3.2626170    -0.0361670    -0.0095020
  H        1.3994420    -1.7974010    -0.8317830
  H        1.6076040     2.0422160     0.8629880
  H       -0.6712930     2.1216380    -0.5070250
  H       -0.5746270    -2.0444360     0.5668450
  H        3.8716190    -1.3816710    -0.5776140
  H        4.1315670     1.1252340     0.4699550
  H       -3.1528190     2.0640850    -0.4925600
  H       -3.0466780    -2.1247140     0.4868240
  H       -4.3493910    -0.0663800    -0.0199320
units angstrom
no_reorient  #important for SAPT in psi4, default
symmetry c1  #important for SAPT in psi4, default
}

set PROPERTIES_ORIGIN ["COM"]
properties('MP2/aug-cc-pvtz', properties = ['dipole'])
--------------------------------------------------------------------------

    Molecular point group: c1
  Charge       = 0
  Multiplicity = 1
  Basis Set: AUG-CC-PVTZ
    Blend: AUG-CC-PVTZ
  Basis Set: (AUG-CC-PVTZ AUX)
    Blend: AUG-CC-PVTZ-JKFIT

    Orbital Energies [Eh]
    ---------------------

    Doubly Occupied:

       1A    -15.608912     2A    -11.263154     3A    -11.257255
       4A    -11.252890     5A    -11.241136     6A    -11.239961
       7A    -11.237933     8A    -11.237036     9A    -11.234814
      10A    -11.214388    11A    -11.213305    12A     -1.294674
      13A     -1.160037    14A     -1.048628    15A     -1.043777
      16A     -1.020304    17A     -0.959739    18A     -0.840357
      19A     -0.828403    20A     -0.789325    21A     -0.765278
      22A     -0.736644    23A     -0.678528    24A     -0.634091
      25A     -0.628270    26A     -0.592931    27A     -0.589332
      28A     -0.580986    29A     -0.570552    30A     -0.549654
      31A     -0.537098    32A     -0.508511    33A     -0.504312
      34A     -0.484911    35A     -0.362958    36A     -0.350584
      37A     -0.345660    38A     -0.273309

  @DF-RHF Final Energy:  -438.50598926362721

   => Energetics <=

    Nuclear Repulsion Energy =            537.2803064707762815
    One-Electron Energy =               -1658.2133122010366151
    Two-Electron Energy =                 682.4270164666331766
    Total Energy =                       -438.5059892636272707
  Basis Set: (AUG-CC-PVTZ AUX)
    Blend: AUG-CC-PVTZ-RI
    Molecular point group: c1

    Geometry (in Angstrom), charge = 0, multiplicity = 1:

       Center              X                  Y                   Z               Mass
    ------------   -----------------  -----------------  -----------------  -----------------
         N            1.775268193292    -0.968813813369    -0.387079078218    14.003074004430
         C            1.005974193292     0.098018186631     0.026417921782    12.000000000000
         C           -0.452814806708     0.045047186631     0.017605921782    12.000000000000
         C            1.891863193292     1.092316186631     0.432226921782    12.000000000000
         C           -1.239303006708     1.174351786631    -0.265155878218    12.000000000000
         C           -1.138354806708    -1.150596813369     0.293441921782    12.000000000000
         C            3.109758193292    -0.671568813369    -0.277940078218    12.000000000000
         C            3.207311193292     0.608959186631     0.240357921782    12.000000000000
         C           -2.591542806708     1.162671186631    -0.269742078218    12.000000000000
         C           -2.532414806708    -1.190480813369     0.268862921782    12.000000000000
         C           -3.264648806708    -0.034378813369    -0.010259078218    12.000000000000
         H            1.397410193292    -1.795612813369    -0.832540078218     1.007825032230
         H            1.605572193292     2.044004186631     0.862230921782     1.007825032230
         H           -0.673324806708     2.123426186631    -0.507782078218     1.007825032230
         H           -0.576658806708    -2.042647813369     0.566087921782     1.007825032230
         H            3.869587193292    -1.379882813369    -0.578371078218     1.007825032230
         H            4.129535193292     1.127022186631     0.469197921782     1.007825032230
         H           -3.154850806708     2.065873186631    -0.493317078218     1.007825032230
         H           -3.048709806708    -2.122925813369     0.486066921782     1.007825032230
         H           -4.351422806708    -0.064591813369    -0.020689078218     1.007825032230

  Basis Set: AUG-CC-PVTZ
    Blend: AUG-CC-PVTZ
  Basis Set: (AUG-CC-PVTZ AUX)
    Blend: AUG-CC-PVTZ-JKFIT
	 Reference Energy          =    -438.5059892636272139 [Eh]
	 Singles Energy            =      -0.0000000000000000 [Eh]
	 Same-Spin Energy          =      -0.4953450840668099 [Eh]
	 Opposite-Spin Energy      =      -1.5253289048040872 [Eh]
	 Correlation Energy        =      -2.0206739888708971 [Eh]
	 Total Energy              =    -440.5266632524981105 [Eh]

	 ================> DF-SCS-MP2 Energies <==================
	-----------------------------------------------------------
	 SCS Same-Spin Scale       =       0.3333333333333333 [-]
	 SCS Opposite-Spin Scale   =       1.2000000000000000 [-]
	 SCS Same-Spin Energy      =      -0.1651150280222700 [Eh]
	 SCS Opposite-Spin Energy  =      -1.8303946857649045 [Eh]
	 SCS Correlation Energy    =      -1.9955097137871745 [Eh]
	 SCS Total Energy          =    -440.5014989774143714 [Eh]
	-----------------------------------------------------------

  Dipole Moment: [D]
     X:    -0.4196      Y:    -1.3294      Z:    -0.6418     Total:     1.5347

*** Psi4 exiting successfully. Buy a developer a beer!
