                               Psi4 1.3.2 release

  ==> Input File <==

--------------------------------------------------------------------------
#psi4
#
memory 32 gb

molecule  {
0 1
  N        1.7773000    -0.9706020    -0.3863220
  C        1.0080060     0.0962300     0.0271750
  C       -0.4507830     0.0432590     0.0183630
  C        1.8938950     1.0905280     0.4329840
  C       -1.1961700     1.1987140    -0.2700270
  C       -1.1363230    -1.1523850     0.2941990
  C        3.1117900    -0.6733570    -0.2771830
  C        3.2093430     0.6071710     0.2411150
  C       -2.5895110     1.1608830    -0.2689850
  C       -2.5303830    -1.1922690     0.2696200
  C       -3.2626170    -0.0361670    -0.0095020
  H        1.3994420    -1.7974010    -0.8317830
  H        1.6076040     2.0422160     0.8629880
  H       -0.6712930     2.1216380    -0.5070250
  H       -0.5746270    -2.0444360     0.5668450
  H        3.8716190    -1.3816710    -0.5776140
  H        4.2167810     1.1731033     0.4910999
  H       -3.1528190     2.0640850    -0.4925600
  H       -3.0466780    -2.1247140     0.4868240
  H       -4.3493910    -0.0663800    -0.0199320
units angstrom
no_reorient  #important for SAPT in psi4, default
symmetry c1  #important for SAPT in psi4, default
}

set PROPERTIES_ORIGIN ["COM"]
properties('MP2/aug-cc-pvtz', properties = ['dipole'])
--------------------------------------------------------------------------

    Molecular point group: c1
  Charge       = 0
  Multiplicity = 1
  Basis Set: AUG-CC-PVTZ
    Blend: AUG-CC-PVTZ
  Basis Set: (AUG-CC-PVTZ AUX)
    Blend: AUG-CC-PVTZ-JKFIT

    Orbital Energies [Eh]
    ---------------------

    Doubly Occupied:

       1A    -15.608885     2A    -11.262811     3A    -11.257466
       4A    -11.253594     5A    -11.242272     6A    -11.240968
       7A    -11.240767     8A    -11.238213     9A    -11.237935
      10A    -11.224678    11A    -11.214270    12A     -1.294865
      13A     -1.156446    14A     -1.049278    15A     -1.041759
      16A     -1.016968    17A     -0.959028    18A     -0.838192
      19A     -0.832054    20A     -0.784039    21A     -0.760437
      22A     -0.734912    23A     -0.679790    24A     -0.633536
      25A     -0.629902    26A     -0.591541    27A     -0.585133
      28A     -0.583339    29A     -0.569886    30A     -0.540159
      31A     -0.534957    32A     -0.504879    33A     -0.500186
      34A     -0.494086    35A     -0.363826    36A     -0.350878
      37A     -0.341587    38A     -0.273882

  @DF-RHF Final Energy:  -438.50139074060138

   => Energetics <=

    Nuclear Repulsion Energy =            536.3477359140279077
    One-Electron Energy =               -1656.3634479570407620
    Two-Electron Energy =                 681.5143213024114175
    Total Energy =                       -438.5013907406014368
  Basis Set: (AUG-CC-PVTZ AUX)
    Blend: AUG-CC-PVTZ-RI
    Molecular point group: c1

    Geometry (in Angstrom), charge = 0, multiplicity = 1:

       Center              X                  Y                   Z               Mass
    ------------   -----------------  -----------------  -----------------  -----------------
         N            1.771220656850    -0.971344321678    -0.386755971279    14.003074004430
         C            1.001926656850     0.095487678322     0.026741028721    12.000000000000
         C           -0.456862343150     0.042516678322     0.017929028721    12.000000000000
         C            1.887815656850     1.089785678322     0.432550028721    12.000000000000
         C           -1.202249343150     1.197971678322    -0.270460971279    12.000000000000
         C           -1.142402343150    -1.153127321678     0.293765028721    12.000000000000
         C            3.105710656850    -0.674099321678    -0.277616971279    12.000000000000
         C            3.203263656850     0.606428678322     0.240681028721    12.000000000000
         C           -2.595590343150     1.160140678322    -0.269418971279    12.000000000000
         C           -2.536462343150    -1.193011321678     0.269186028721    12.000000000000
         C           -3.268696343150    -0.036909321678    -0.009935971279    12.000000000000
         H            1.393362656850    -1.798143321678    -0.832216971279     1.007825032230
         H            1.601524656850     2.041473678322     0.862554028721     1.007825032230
         H           -0.677372343150     2.120895678322    -0.507458971279     1.007825032230
         H           -0.580706343150    -2.045178321678     0.566411028721     1.007825032230
         H            3.865539656850    -1.382413321678    -0.578047971279     1.007825032230
         H            4.210701656850     1.172360978322     0.490665928721     1.007825032230
         H           -3.158898343150     2.063342678322    -0.492993971279     1.007825032230
         H           -3.052757343150    -2.125456321678     0.486390028721     1.007825032230
         H           -4.355470343150    -0.067122321678    -0.020365971279     1.007825032230

  Basis Set: AUG-CC-PVTZ
    Blend: AUG-CC-PVTZ
  Basis Set: (AUG-CC-PVTZ AUX)
    Blend: AUG-CC-PVTZ-JKFIT
	 Reference Energy          =    -438.5013907406013800 [Eh]
	 Singles Energy            =      -0.0000000000000000 [Eh]
	 Same-Spin Energy          =      -0.4954236327980807 [Eh]
	 Opposite-Spin Energy      =      -1.5262011071298907 [Eh]
	 Correlation Energy        =      -2.0216247399279714 [Eh]
	 Total Energy              =    -440.5230154805293523 [Eh]

	 ================> DF-SCS-MP2 Energies <==================
	-----------------------------------------------------------
	 SCS Same-Spin Scale       =       0.3333333333333333 [-]
	 SCS Opposite-Spin Scale   =       1.2000000000000000 [-]
	 SCS Same-Spin Energy      =      -0.1651412109326936 [Eh]
	 SCS Opposite-Spin Energy  =      -1.8314413285558686 [Eh]
	 SCS Correlation Energy    =      -1.9965825394885621 [Eh]
	 SCS Total Energy          =    -440.4979732800899228 [Eh]
	-----------------------------------------------------------

  Dipole Moment: [D]
     X:    -0.4886      Y:    -1.3265      Z:    -0.6506     Total:     1.5561

*** Psi4 exiting successfully. Buy a developer a beer!
