                               Psi4 1.4a3.dev225

  ==> Input File <==

--------------------------------------------------------------------------
#psi4
#
memory 32 gb

molecule  {
0 1
  N        1.7773000    -0.9706020    -0.3863220
  C        1.0080060     0.0962300     0.0271750
  C       -0.4507830     0.0432590     0.0183630
  C        1.8938950     1.0905280     0.4329840
  C       -1.1961700     1.1987140    -0.2700270
  C       -1.1363230    -1.1523850     0.2941990
  C        3.1117900    -0.6733570    -0.2771830
  C        3.2093430     0.6071710     0.2411150
  C       -2.5895110     1.1608830    -0.2689850
  C       -2.5303830    -1.1922690     0.2696200
  C       -3.2626170    -0.0361670    -0.0095020
  H        1.3994420    -1.7974010    -0.8317830
  H        1.6023163     2.0597934     0.8709300
  H       -0.6712930     2.1216380    -0.5070250
  H       -0.5746270    -2.0444360     0.5668450
  H        3.8716190    -1.3816710    -0.5776140
  H        4.1315670     1.1252340     0.4699550
  H       -3.1528190     2.0640850    -0.4925600
  H       -3.0466780    -2.1247140     0.4868240
  H       -4.3493910    -0.0663800    -0.0199320
units angstrom
no_reorient  #important for SAPT in psi4, default
symmetry c1  #important for SAPT in psi4, default
}

set PROPERTIES_ORIGIN ["COM"]
properties('MP2/aug-cc-pvtz', properties = ['dipole'])
--------------------------------------------------------------------------

    Molecular point group: c1
  Charge       = 0
  Multiplicity = 1
  Basis Set: AUG-CC-PVTZ
    Blend: AUG-CC-PVTZ
  Basis Set: (AUG-CC-PVTZ AUX)
    Blend: AUG-CC-PVTZ-JKFIT

    Orbital Energies [Eh]
    ---------------------

    Doubly Occupied:

       1A    -15.608402     2A    -11.262275     3A    -11.256764
       4A    -11.253223     5A    -11.242001     6A    -11.240698
       7A    -11.240472     8A    -11.237915     9A    -11.237644
      10A    -11.215722    11A    -11.213535    12A     -1.294296
      13A     -1.156142    14A     -1.048739    15A     -1.042813
      16A     -1.016760    17A     -0.959123    18A     -0.837637
      19A     -0.832186    20A     -0.788248    21A     -0.763187
      22A     -0.735278    23A     -0.679899    24A     -0.633224
      25A     -0.629505    26A     -0.592918    27A     -0.588688
      28A     -0.582744    29A     -0.569326    30A     -0.548506
      31A     -0.535691    32A     -0.504581    33A     -0.500821
      34A     -0.494326    35A     -0.363470    36A     -0.350353
      37A     -0.341317    38A     -0.273465

  @DF-RHF Final Energy:  -438.50823139760860

   => Energetics <=

    Nuclear Repulsion Energy =            536.7321065985954647
    One-Electron Energy =               -1657.1368876697395081
    Two-Electron Energy =                 681.8965496735354463
    Total Energy =                       -438.5082313976085970
  Basis Set: (AUG-CC-PVTZ AUX)
    Blend: AUG-CC-PVTZ-RI
    Molecular point group: c1

    Geometry (in Angstrom), charge = 0, multiplicity = 1:

       Center              X                  Y                   Z               Mass
    ------------   -----------------  -----------------  -----------------  -----------------
         N            1.771858160505    -0.971130942294    -0.386662968639    14.003074004430
         C            1.002564160505     0.095701057706     0.026834031361    12.000000000000
         C           -0.456224839495     0.042730057706     0.018022031361    12.000000000000
         C            1.888453160505     1.089999057706     0.432643031361    12.000000000000
         C           -1.201611839495     1.198185057706    -0.270367968639    12.000000000000
         C           -1.141764839495    -1.152913942294     0.293858031361    12.000000000000
         C            3.106348160505    -0.673885942294    -0.277523968639    12.000000000000
         C            3.203901160505     0.606642057706     0.240774031361    12.000000000000
         C           -2.594952839495     1.160354057706    -0.269325968639    12.000000000000
         C           -2.535824839495    -1.192797942294     0.269279031361    12.000000000000
         C           -3.268058839495    -0.036695942294    -0.009842968639    12.000000000000
         H            1.394000160505    -1.797929942294    -0.832123968639     1.007825032230
         H            1.596874460505     2.059264457706     0.870589031361     1.007825032230
         H           -0.676734839495     2.121109057706    -0.507365968639     1.007825032230
         H           -0.580068839495    -2.044964942294     0.566504031361     1.007825032230
         H            3.866177160505    -1.382199942294    -0.577954968639     1.007825032230
         H            4.126125160505     1.124705057706     0.469614031361     1.007825032230
         H           -3.158260839495     2.063556057706    -0.492900968639     1.007825032230
         H           -3.052119839495    -2.125242942294     0.486483031361     1.007825032230
         H           -4.354832839495    -0.066908942294    -0.020272968639     1.007825032230

  Basis Set: AUG-CC-PVTZ
    Blend: AUG-CC-PVTZ
  Basis Set: (AUG-CC-PVTZ AUX)
    Blend: AUG-CC-PVTZ-JKFIT
	 Reference Energy          =    -438.5082313976085970 [Eh]
	 Singles Energy            =      -0.0000000000000000 [Eh]
	 Same-Spin Energy          =      -0.4952926893588511 [Eh]
	 Opposite-Spin Energy      =      -1.5254926427664279 [Eh]
	 Correlation Energy        =      -2.0207853321252789 [Eh]
	 Total Energy              =    -440.5290167297338826 [Eh]

	 ================> DF-SCS-MP2 Energies <==================
	-----------------------------------------------------------
	 SCS Same-Spin Scale       =       0.3333333333333333 [-]
	 SCS Opposite-Spin Scale   =       1.2000000000000000 [-]
	 SCS Same-Spin Energy      =      -0.1650975631196170 [Eh]
	 SCS Opposite-Spin Energy  =      -1.8305911713197134 [Eh]
	 SCS Correlation Energy    =      -1.9956887344393304 [Eh]
	 SCS Total Energy          =    -440.5039201320479378 [Eh]
	-----------------------------------------------------------

  Dipole Moment: [D]
     X:    -0.4480      Y:    -1.3212      Z:    -0.6485     Total:     1.5384

*** Psi4 exiting successfully. Buy a developer a beer!
