                               Psi4 1.3.2 release

  ==> Input File <==

--------------------------------------------------------------------------
#psi4
#
memory 32 gb

molecule  {
0 1
  N        1.7971492    -0.9580463    -0.3810872
  C        1.0080060     0.0962300     0.0271750
  C       -0.4507830     0.0432590     0.0183630
  C        1.8938950     1.0905280     0.4329840
  C       -1.1961700     1.1987140    -0.2700270
  C       -1.1363230    -1.1523850     0.2941990
  C        3.1117900    -0.6733570    -0.2771830
  C        3.2093430     0.6071710     0.2411150
  C       -2.5895110     1.1608830    -0.2689850
  C       -2.5303830    -1.1922690     0.2696200
  C       -3.2626170    -0.0361670    -0.0095020
  H        1.3994420    -1.7974010    -0.8317830
  H        1.6076040     2.0422160     0.8629880
  H       -0.6712930     2.1216380    -0.5070250
  H       -0.5746270    -2.0444360     0.5668450
  H        3.8716190    -1.3816710    -0.5776140
  H        4.1315670     1.1252340     0.4699550
  H       -3.1528190     2.0640850    -0.4925600
  H       -3.0466780    -2.1247140     0.4868240
  H       -4.3493910    -0.0663800    -0.0199320
units angstrom
no_reorient  #important for SAPT in psi4, default
symmetry c1  #important for SAPT in psi4, default
}

set PROPERTIES_ORIGIN ["COM"]
properties('MP2/aug-cc-pvtz', properties = ['dipole'])
--------------------------------------------------------------------------

    Molecular point group: c1
  Charge       = 0
  Multiplicity = 1
  Basis Set: AUG-CC-PVTZ
    Blend: AUG-CC-PVTZ
  Basis Set: (AUG-CC-PVTZ AUX)
    Blend: AUG-CC-PVTZ-JKFIT

    Orbital Energies [Eh]
    ---------------------

    Doubly Occupied:

       1A    -15.610411     2A    -11.260316     3A    -11.255206
       4A    -11.253760     5A    -11.242059     6A    -11.240779
       7A    -11.240495     8A    -11.237905     9A    -11.237622
      10A    -11.213156    11A    -11.211105    12A     -1.299320
      13A     -1.156424    14A     -1.049650    15A     -1.040359
      16A     -1.016736    17A     -0.961282    18A     -0.837667
      19A     -0.832364    20A     -0.784435    21A     -0.766375
      22A     -0.736063    23A     -0.680865    24A     -0.634681
      25A     -0.629815    26A     -0.591540    27A     -0.589402
      28A     -0.582191    29A     -0.572088    30A     -0.548757
      31A     -0.536587    32A     -0.505178    33A     -0.500888
      34A     -0.494206    35A     -0.364492    36A     -0.348371
      37A     -0.341391    38A     -0.273112

  @DF-RHF Final Energy:  -438.50768863273851

   => Energetics <=

    Nuclear Repulsion Energy =            537.0578435088657443
    One-Electron Energy =               -1657.7769566098656924
    Two-Electron Energy =                 682.2114244682614981
    Total Energy =                       -438.5076886327384500
  Basis Set: (AUG-CC-PVTZ AUX)
    Blend: AUG-CC-PVTZ-RI
    Molecular point group: c1

    Geometry (in Angstrom), charge = 0, multiplicity = 1:

       Center              X                  Y                   Z               Mass
    ------------   -----------------  -----------------  -----------------  -----------------
         N            1.789727406884    -0.959680292869    -0.381884571437    14.003074004430
         C            1.000584206884     0.094596007131     0.026377628563    12.000000000000
         C           -0.458204793116     0.041625007131     0.017565628563    12.000000000000
         C            1.886473206884     1.088894007131     0.432186628563    12.000000000000
         C           -1.203591793116     1.197080007131    -0.270824371437    12.000000000000
         C           -1.143744793116    -1.154018992869     0.293401628563    12.000000000000
         C            3.104368206884    -0.674990992869    -0.277980371437    12.000000000000
         C            3.201921206884     0.605537007131     0.240317628563    12.000000000000
         C           -2.596932793116     1.159249007131    -0.269782371437    12.000000000000
         C           -2.537804793116    -1.193902992869     0.268822628563    12.000000000000
         C           -3.270038793116    -0.037800992869    -0.010299371437    12.000000000000
         H            1.392020206884    -1.799034992869    -0.832580371437     1.007825032230
         H            1.600182206884     2.040582007131     0.862190628563     1.007825032230
         H           -0.678714793116     2.120004007131    -0.507822371437     1.007825032230
         H           -0.582048793116    -2.046069992869     0.566047628563     1.007825032230
         H            3.864197206884    -1.383304992869    -0.578411371437     1.007825032230
         H            4.124145206884     1.123600007131     0.469157628563     1.007825032230
         H           -3.160240793116     2.062451007131    -0.493357371437     1.007825032230
         H           -3.054099793116    -2.126347992869     0.486026628563     1.007825032230
         H           -4.356812793116    -0.068013992869    -0.020729371437     1.007825032230

  Basis Set: AUG-CC-PVTZ
    Blend: AUG-CC-PVTZ
  Basis Set: (AUG-CC-PVTZ AUX)
    Blend: AUG-CC-PVTZ-JKFIT
	 Reference Energy          =    -438.5076886327385068 [Eh]
	 Singles Energy            =      -0.0000000000000000 [Eh]
	 Same-Spin Energy          =      -0.4955511001691855 [Eh]
	 Opposite-Spin Energy      =      -1.5254150824337140 [Eh]
	 Correlation Energy        =      -2.0209661826028995 [Eh]
	 Total Energy              =    -440.5286548153413833 [Eh]

	 ================> DF-SCS-MP2 Energies <==================
	-----------------------------------------------------------
	 SCS Same-Spin Scale       =       0.3333333333333333 [-]
	 SCS Opposite-Spin Scale   =       1.2000000000000000 [-]
	 SCS Same-Spin Energy      =      -0.1651837000563952 [Eh]
	 SCS Opposite-Spin Energy  =      -1.8304980989204567 [Eh]
	 SCS Correlation Energy    =      -1.9956817989768518 [Eh]
	 SCS Total Energy          =    -440.5033704317153820 [Eh]
	-----------------------------------------------------------

  Dipole Moment: [D]
     X:    -0.4804      Y:    -1.3741      Z:    -0.6684     Total:     1.6017

*** Psi4 exiting successfully. Buy a developer a beer!
