                               Psi4 1.3.2 release

  ==> Input File <==

--------------------------------------------------------------------------
#psi4
#
memory 32 gb

molecule  {
0 1
  N        1.7773000    -0.9706020    -0.3863220
  C        1.0080060     0.0962300     0.0271750
  C       -0.4507830     0.0432590     0.0183630
  C        1.8938950     1.0905280     0.4329840
  C       -1.1961700     1.1987140    -0.2700270
  C       -1.1363230    -1.1523850     0.2941990
  C        3.1117900    -0.6733570    -0.2771830
  C        3.2234313     0.7921004     0.3159658
  C       -2.5895110     1.1608830    -0.2689850
  C       -2.5303830    -1.1922690     0.2696200
  C       -3.2626170    -0.0361670    -0.0095020
  H        1.3994420    -1.7974010    -0.8317830
  H        1.6076040     2.0422160     0.8629880
  H       -0.6712930     2.1216380    -0.5070250
  H       -0.5746270    -2.0444360     0.5668450
  H        3.8716190    -1.3816710    -0.5776140
  H        4.1315670     1.1252340     0.4699550
  H       -3.1528190     2.0640850    -0.4925600
  H       -3.0466780    -2.1247140     0.4868240
  H       -4.3493910    -0.0663800    -0.0199320
units angstrom
no_reorient  #important for SAPT in psi4, default
symmetry c1  #important for SAPT in psi4, default
}

set PROPERTIES_ORIGIN ["COM"]
properties('MP2/aug-cc-pvtz', properties = ['dipole'])
--------------------------------------------------------------------------

    Molecular point group: c1
  Charge       = 0
  Multiplicity = 1
  Basis Set: AUG-CC-PVTZ
    Blend: AUG-CC-PVTZ
  Basis Set: (AUG-CC-PVTZ AUX)
    Blend: AUG-CC-PVTZ-JKFIT

    Orbital Energies [Eh]
    ---------------------

    Doubly Occupied:

       1A    -15.626814     2A    -11.277983     3A    -11.257699
       4A    -11.253524     5A    -11.240973     6A    -11.239506
       7A    -11.238805     8A    -11.235604     9A    -11.235381
      10A    -11.225354    11A    -11.219470    12A     -1.294067
      13A     -1.154600    14A     -1.055078    15A     -1.038098
      16A     -1.015625    17A     -0.948336    18A     -0.836037
      19A     -0.831703    20A     -0.810687    21A     -0.770689
      22A     -0.734320    23A     -0.679502    24A     -0.633495
      25A     -0.632566    26A     -0.613215    27A     -0.589543
      28A     -0.581675    29A     -0.575815    30A     -0.566269
      31A     -0.503509    32A     -0.502461    33A     -0.494628
      34A     -0.486630    35A     -0.369004    36A     -0.352392
      37A     -0.340304    38A     -0.255345

  @DF-RHF Final Energy:  -438.45979798432410

   => Energetics <=

    Nuclear Repulsion Energy =            534.6256181297776493
    One-Electron Energy =               -1652.7374198751726908
    Two-Electron Energy =                 679.6520037610710006
    Total Energy =                       -438.4597979843240410
  Basis Set: (AUG-CC-PVTZ AUX)
    Blend: AUG-CC-PVTZ-RI
    Molecular point group: c1

    Geometry (in Angstrom), charge = 0, multiplicity = 1:

       Center              X                  Y                   Z               Mass
    ------------   -----------------  -----------------  -----------------  -----------------
         N            1.770639285750    -0.986517704113    -0.392884983603    14.003074004430
         C            1.001345285750     0.080314295887     0.020612016397    12.000000000000
         C           -0.457443714250     0.027343295887     0.011800016397    12.000000000000
         C            1.887234285750     1.074612295887     0.426421016397    12.000000000000
         C           -1.202830714250     1.182798295887    -0.276589983603    12.000000000000
         C           -1.142983714250    -1.168300704113     0.287636016397    12.000000000000
         C            3.105129285750    -0.689272704113    -0.283745983603    12.000000000000
         C            3.216770585750     0.776184695887     0.309402816397    12.000000000000
         C           -2.596171714250     1.144967295887    -0.275547983603    12.000000000000
         C           -2.537043714250    -1.208184704113     0.263057016397    12.000000000000
         C           -3.269277714250    -0.052082704113    -0.016064983603    12.000000000000
         H            1.392781285750    -1.813316704113    -0.838345983603     1.007825032230
         H            1.600943285750     2.026300295887     0.856425016397     1.007825032230
         H           -0.677953714250     2.105722295887    -0.513587983603     1.007825032230
         H           -0.581287714250    -2.060351704113     0.560282016397     1.007825032230
         H            3.864958285750    -1.397586704113    -0.584176983603     1.007825032230
         H            4.124906285750     1.109318295887     0.463392016397     1.007825032230
         H           -3.159479714250     2.048169295887    -0.499122983603     1.007825032230
         H           -3.053338714250    -2.140629704113     0.480261016397     1.007825032230
         H           -4.356051714250    -0.082295704113    -0.026494983603     1.007825032230

  Basis Set: AUG-CC-PVTZ
    Blend: AUG-CC-PVTZ
  Basis Set: (AUG-CC-PVTZ AUX)
    Blend: AUG-CC-PVTZ-JKFIT
	 Reference Energy          =    -438.4597979843240978 [Eh]
	 Singles Energy            =      -0.0000000000000000 [Eh]
	 Same-Spin Energy          =      -0.4985974848023255 [Eh]
	 Opposite-Spin Energy      =      -1.5318885549421062 [Eh]
	 Correlation Energy        =      -2.0304860397444315 [Eh]
	 Total Energy              =    -440.4902840240685009 [Eh]

	 ================> DF-SCS-MP2 Energies <==================
	-----------------------------------------------------------
	 SCS Same-Spin Scale       =       0.3333333333333333 [-]
	 SCS Opposite-Spin Scale   =       1.2000000000000000 [-]
	 SCS Same-Spin Energy      =      -0.1661991616007751 [Eh]
	 SCS Opposite-Spin Energy  =      -1.8382662659305273 [Eh]
	 SCS Correlation Energy    =      -2.0044654275313025 [Eh]
	 SCS Total Energy          =    -440.4642634118554270 [Eh]
	-----------------------------------------------------------

  Dipole Moment: [D]
     X:    -0.4702      Y:    -1.3270      Z:    -0.6540     Total:     1.5523

*** Psi4 exiting successfully. Buy a developer a beer!
