                               Psi4 1.3.2 release

  ==> Input File <==

--------------------------------------------------------------------------
#psi4
#
memory 32 gb

molecule  {
0 1
  N        1.7773000    -0.9706020    -0.3863220
  C        1.0010020     0.1950689     0.0034352
  C       -0.4507830     0.0432590     0.0183630
  C        1.8938950     1.0905280     0.4329840
  C       -1.1961700     1.1987140    -0.2700270
  C       -1.1363230    -1.1523850     0.2941990
  C        3.1117900    -0.6733570    -0.2771830
  C        3.2093430     0.6071710     0.2411150
  C       -2.5895110     1.1608830    -0.2689850
  C       -2.5303830    -1.1922690     0.2696200
  C       -3.2626170    -0.0361670    -0.0095020
  H        1.3994420    -1.7974010    -0.8317830
  H        1.6076040     2.0422160     0.8629880
  H       -0.6712930     2.1216380    -0.5070250
  H       -0.5746270    -2.0444360     0.5668450
  H        3.8716190    -1.3816710    -0.5776140
  H        4.1315670     1.1252340     0.4699550
  H       -3.1528190     2.0640850    -0.4925600
  H       -3.0466780    -2.1247140     0.4868240
  H       -4.3493910    -0.0663800    -0.0199320
units angstrom
no_reorient  #important for SAPT in psi4, default
symmetry c1  #important for SAPT in psi4, default
}

set PROPERTIES_ORIGIN ["COM"]
properties('MP2/aug-cc-pvtz', properties = ['dipole'])
--------------------------------------------------------------------------

    Molecular point group: c1
  Charge       = 0
  Multiplicity = 1
  Basis Set: AUG-CC-PVTZ
    Blend: AUG-CC-PVTZ
  Basis Set: (AUG-CC-PVTZ AUX)
    Blend: AUG-CC-PVTZ-JKFIT

    Orbital Energies [Eh]
    ---------------------

    Doubly Occupied:

       1A    -15.599675     2A    -11.261909     3A    -11.260668
       4A    -11.253429     5A    -11.242480     6A    -11.241267
       7A    -11.239770     8A    -11.237415     9A    -11.236161
      10A    -11.213533    11A    -11.211203    12A     -1.276183
      13A     -1.155871    14A     -1.055309    15A     -1.040026
      16A     -1.016527    17A     -0.960049    18A     -0.839452
      19A     -0.831338    20A     -0.784774    21A     -0.759038
      22A     -0.733925    23A     -0.679545    24A     -0.633288
      25A     -0.629549    26A     -0.594435    27A     -0.588893
      28A     -0.571100    29A     -0.563614    30A     -0.549305
      31A     -0.540143    32A     -0.502869    33A     -0.502619
      34A     -0.493080    35A     -0.370185    36A     -0.347766
      37A     -0.341012    38A     -0.277767

  @DF-RHF Final Energy:  -438.50049154200713

   => Energetics <=

    Nuclear Repulsion Energy =            536.5008502784960456
    One-Electron Energy =               -1656.7323417559634890
    Two-Electron Energy =                 681.7309999354603178
    Total Energy =                       -438.5004915420071256
  Basis Set: (AUG-CC-PVTZ AUX)
    Blend: AUG-CC-PVTZ-RI
    Molecular point group: c1

    Geometry (in Angstrom), charge = 0, multiplicity = 1:

       Center              X                  Y                   Z               Mass
    ------------   -----------------  -----------------  -----------------  -----------------
         N            1.772408359696    -0.979297037777    -0.384615896695    14.003074004430
         C            0.996110359696     0.186373862223     0.005141303305    12.000000000000
         C           -0.455674640304     0.034563962223     0.020069103305    12.000000000000
         C            1.889003359696     1.081832962223     0.434690103305    12.000000000000
         C           -1.201061640304     1.190018962223    -0.268320896695    12.000000000000
         C           -1.141214640304    -1.161080037777     0.295905103305    12.000000000000
         C            3.106898359696    -0.682052037777    -0.275476896695    12.000000000000
         C            3.204451359696     0.598475962223     0.242821103305    12.000000000000
         C           -2.594402640304     1.152187962223    -0.267278896695    12.000000000000
         C           -2.535274640304    -1.200964037777     0.271326103305    12.000000000000
         C           -3.267508640304    -0.044862037777    -0.007795896695    12.000000000000
         H            1.394550359696    -1.806096037777    -0.830076896695     1.007825032230
         H            1.602712359696     2.033520962223     0.864694103305     1.007825032230
         H           -0.676184640304     2.112942962223    -0.505318896695     1.007825032230
         H           -0.579518640304    -2.053131037777     0.568551103305     1.007825032230
         H            3.866727359696    -1.390366037777    -0.575907896695     1.007825032230
         H            4.126675359696     1.116538962223     0.471661103305     1.007825032230
         H           -3.157710640304     2.055389962223    -0.490853896695     1.007825032230
         H           -3.051569640304    -2.133409037777     0.488530103305     1.007825032230
         H           -4.354282640304    -0.075075037777    -0.018225896695     1.007825032230

  Basis Set: AUG-CC-PVTZ
    Blend: AUG-CC-PVTZ
  Basis Set: (AUG-CC-PVTZ AUX)
    Blend: AUG-CC-PVTZ-JKFIT
	 Reference Energy          =    -438.5004915420071256 [Eh]
	 Singles Energy            =      -0.0000000000000000 [Eh]
	 Same-Spin Energy          =      -0.4946047827863123 [Eh]
	 Opposite-Spin Energy      =      -1.5254737849488882 [Eh]
	 Correlation Energy        =      -2.0200785677352004 [Eh]
	 Total Energy              =    -440.5205701097423230 [Eh]

	 ================> DF-SCS-MP2 Energies <==================
	-----------------------------------------------------------
	 SCS Same-Spin Scale       =       0.3333333333333333 [-]
	 SCS Opposite-Spin Scale   =       1.2000000000000000 [-]
	 SCS Same-Spin Energy      =      -0.1648682609287707 [Eh]
	 SCS Opposite-Spin Energy  =      -1.8305685419386657 [Eh]
	 SCS Correlation Energy    =      -1.9954368028674365 [Eh]
	 SCS Total Energy          =    -440.4959283448745850 [Eh]
	-----------------------------------------------------------

  Dipole Moment: [D]
     X:    -0.4851      Y:    -1.2068      Z:    -0.5765     Total:     1.4227

*** Psi4 exiting successfully. Buy a developer a beer!
