                               Psi4 1.3.2 release

  ==> Input File <==

--------------------------------------------------------------------------
#psi4
#
memory 32 gb

molecule  {
0 1
  N        1.7773000    -0.9706020    -0.3863220
  C        1.0080060     0.0962300     0.0271750
  C       -0.4507830     0.0432590     0.0183630
  C        1.8938950     1.0905280     0.4329840
  C       -1.1961700     1.1987140    -0.2700270
  C       -1.1363230    -1.1523850     0.2941990
  C        3.1117900    -0.6733570    -0.2771830
  C        3.2093430     0.6071710     0.2411150
  C       -2.5895110     1.1608830    -0.2689850
  C       -2.5303830    -1.1922690     0.2696200
  C       -3.2626170    -0.0361670    -0.0095020
  H        1.3621164    -1.8790740    -0.8757866
  H        1.6076040     2.0422160     0.8629880
  H       -0.6712930     2.1216380    -0.5070250
  H       -0.5746270    -2.0444360     0.5668450
  H        3.8716190    -1.3816710    -0.5776140
  H        4.1315670     1.1252340     0.4699550
  H       -3.1528190     2.0640850    -0.4925600
  H       -3.0466780    -2.1247140     0.4868240
  H       -4.3493910    -0.0663800    -0.0199320
units angstrom
no_reorient  #important for SAPT in psi4, default
symmetry c1  #important for SAPT in psi4, default
}

set PROPERTIES_ORIGIN ["COM"]
properties('MP2/aug-cc-pvtz', properties = ['dipole'])
--------------------------------------------------------------------------

    Molecular point group: c1
  Charge       = 0
  Multiplicity = 1
  Basis Set: AUG-CC-PVTZ
    Blend: AUG-CC-PVTZ
  Basis Set: (AUG-CC-PVTZ AUX)
    Blend: AUG-CC-PVTZ-JKFIT

    Orbital Energies [Eh]
    ---------------------

    Doubly Occupied:

       1A    -15.616535     2A    -11.261756     3A    -11.256273
       4A    -11.252937     5A    -11.241836     6A    -11.240517
       7A    -11.240230     8A    -11.237666     9A    -11.237400
      10A    -11.213451    11A    -11.212367    12A     -1.287875
      13A     -1.155793    14A     -1.047170    15A     -1.035878
      16A     -1.016159    17A     -0.958786    18A     -0.836767
      19A     -0.831923    20A     -0.771084    21A     -0.762632
      22A     -0.733593    23A     -0.679051    24A     -0.632948
      25A     -0.628778    26A     -0.590882    27A     -0.584495
      28A     -0.580758    29A     -0.567290    30A     -0.548761
      31A     -0.536101    32A     -0.504300    33A     -0.500529
      34A     -0.493995    35A     -0.362932    36A     -0.349001
      37A     -0.341149    38A     -0.272962

  @DF-RHF Final Energy:  -438.49790348385164

   => Energetics <=

    Nuclear Repulsion Energy =            536.2857671180726129
    One-Electron Energy =               -1656.3222168361571676
    Two-Electron Energy =                 681.5385462342327401
    Total Energy =                       -438.4979034838517009
  Basis Set: (AUG-CC-PVTZ AUX)
    Blend: AUG-CC-PVTZ-RI
    Molecular point group: c1

    Geometry (in Angstrom), charge = 0, multiplicity = 1:

       Center              X                  Y                   Z               Mass
    ------------   -----------------  -----------------  -----------------  -----------------
         N            1.772083838899    -0.970431811861    -0.386297058277    14.003074004430
         C            1.002789838899     0.096400188139     0.027199941723    12.000000000000
         C           -0.455999161101     0.043429188139     0.018387941723    12.000000000000
         C            1.888678838899     1.090698188139     0.433008941723    12.000000000000
         C           -1.201386161101     1.198884188139    -0.270002058277    12.000000000000
         C           -1.141539161101    -1.152214811861     0.294223941723    12.000000000000
         C            3.106573838899    -0.673186811861    -0.277158058277    12.000000000000
         C            3.204126838899     0.607341188139     0.241139941723    12.000000000000
         C           -2.594727161101     1.161053188139    -0.268960058277    12.000000000000
         C           -2.535599161101    -1.192098811861     0.269644941723    12.000000000000
         C           -3.267833161101    -0.035996811861    -0.009477058277    12.000000000000
         H            1.356900238899    -1.878903811861    -0.875761658277     1.007825032230
         H            1.602387838899     2.042386188139     0.863012941723     1.007825032230
         H           -0.676509161101     2.121808188139    -0.507000058277     1.007825032230
         H           -0.579843161101    -2.044265811861     0.566869941723     1.007825032230
         H            3.866402838899    -1.381500811861    -0.577589058277     1.007825032230
         H            4.126350838899     1.125404188139     0.469979941723     1.007825032230
         H           -3.158035161101     2.064255188139    -0.492535058277     1.007825032230
         H           -3.051894161101    -2.124543811861     0.486848941723     1.007825032230
         H           -4.354607161101    -0.066209811861    -0.019907058277     1.007825032230

  Basis Set: AUG-CC-PVTZ
    Blend: AUG-CC-PVTZ
  Basis Set: (AUG-CC-PVTZ AUX)
    Blend: AUG-CC-PVTZ-JKFIT
	 Reference Energy          =    -438.4979034838516441 [Eh]
	 Singles Energy            =      -0.0000000000000000 [Eh]
	 Same-Spin Energy          =      -0.4961732932530094 [Eh]
	 Opposite-Spin Energy      =      -1.5274286393092016 [Eh]
	 Correlation Energy        =      -2.0236019325622108 [Eh]
	 Total Energy              =    -440.5215054164138451 [Eh]

	 ================> DF-SCS-MP2 Energies <==================
	-----------------------------------------------------------
	 SCS Same-Spin Scale       =       0.3333333333333333 [-]
	 SCS Opposite-Spin Scale   =       1.2000000000000000 [-]
	 SCS Same-Spin Energy      =      -0.1653910977510031 [Eh]
	 SCS Opposite-Spin Energy  =      -1.8329143671710417 [Eh]
	 SCS Correlation Energy    =      -1.9983054649220449 [Eh]
	 SCS Total Energy          =    -440.4962089487736989 [Eh]
	-----------------------------------------------------------

  Dipole Moment: [D]
     X:    -0.4732      Y:    -1.4048      Z:    -0.6951     Total:     1.6373

*** Psi4 exiting successfully. Buy a developer a beer!
