                               Psi4 1.4a3.dev225

  ==> Input File <==

--------------------------------------------------------------------------
#psi4
#
memory 32 gb

molecule  {
0 1
  N        1.7773000    -0.9706020    -0.3863220
  C        1.0080060     0.0962300     0.0271750
  C       -0.4507830     0.0432590     0.0183630
  C        1.8938950     1.0905280     0.4329840
  C       -1.1961700     1.1987140    -0.2700270
  C       -1.1363230    -1.1523850     0.2941990
  C        3.1117900    -0.6733570    -0.2771830
  C        3.1628448     0.6242566     0.2478972
  C       -2.5895110     1.1608830    -0.2689850
  C       -2.5303830    -1.1922690     0.2696200
  C       -3.2626170    -0.0361670    -0.0095020
  H        1.3994420    -1.7974010    -0.8317830
  H        1.6076040     2.0422160     0.8629880
  H       -0.6712930     2.1216380    -0.5070250
  H       -0.5746270    -2.0444360     0.5668450
  H        3.8716190    -1.3816710    -0.5776140
  H        4.1315670     1.1252340     0.4699550
  H       -3.1528190     2.0640850    -0.4925600
  H       -3.0466780    -2.1247140     0.4868240
  H       -4.3493910    -0.0663800    -0.0199320
units angstrom
no_reorient  #important for SAPT in psi4, default
symmetry c1  #important for SAPT in psi4, default
}

set PROPERTIES_ORIGIN ["COM"]
properties('MP2/aug-cc-pvtz', properties = ['dipole'])
--------------------------------------------------------------------------

    Molecular point group: c1
  Charge       = 0
  Multiplicity = 1
  Basis Set: AUG-CC-PVTZ
    Blend: AUG-CC-PVTZ
  Basis Set: (AUG-CC-PVTZ AUX)
    Blend: AUG-CC-PVTZ-JKFIT

    Orbital Energies [Eh]
    ---------------------

    Doubly Occupied:

       1A    -15.611018     2A    -11.260994     3A    -11.256291
       4A    -11.252957     5A    -11.241704     6A    -11.240470
       7A    -11.239999     8A    -11.237465     9A    -11.237195
      10A    -11.213452    11A    -11.209433    12A     -1.296360
      13A     -1.155809    14A     -1.053971    15A     -1.045146
      16A     -1.016671    17A     -0.957068    18A     -0.838468
      19A     -0.831664    20A     -0.791057    21A     -0.762469
      22A     -0.735261    23A     -0.679718    24A     -0.633166
      25A     -0.629685    26A     -0.593008    27A     -0.588230
      28A     -0.583464    29A     -0.570368    30A     -0.549141
      31A     -0.536432    32A     -0.504314    33A     -0.500605
      34A     -0.493990    35A     -0.363597    36A     -0.355990
      37A     -0.341110    38A     -0.269225

  @DF-RHF Final Energy:  -438.50419055278991

   => Energetics <=

    Nuclear Repulsion Energy =            537.5479905782872265
    One-Electron Energy =               -1658.7504342634126715
    Two-Electron Energy =                 682.6982531323354806
    Total Energy =                       -438.5041905527899644
  Basis Set: (AUG-CC-PVTZ AUX)
    Blend: AUG-CC-PVTZ-RI
    Molecular point group: c1

    Geometry (in Angstrom), charge = 0, multiplicity = 1:

       Center              X                  Y                   Z               Mass
    ------------   -----------------  -----------------  -----------------  -----------------
         N            1.775720855737    -0.972440145307    -0.387175867631    14.003074004430
         C            1.006426855737     0.094391854693     0.026321132369    12.000000000000
         C           -0.452362144263     0.041420854693     0.017509132369    12.000000000000
         C            1.892315855737     1.088689854693     0.432130132369    12.000000000000
         C           -1.197749144263     1.196875854693    -0.270880867631    12.000000000000
         C           -1.137902144263    -1.154223145307     0.293345132369    12.000000000000
         C            3.110210855737    -0.675195145307    -0.278036867631    12.000000000000
         C            3.161265655737     0.622418454693     0.247043332369    12.000000000000
         C           -2.591090144263     1.159044854693    -0.269838867631    12.000000000000
         C           -2.531962144263    -1.194107145307     0.268766132369    12.000000000000
         C           -3.264196144263    -0.038005145307    -0.010355867631    12.000000000000
         H            1.397862855737    -1.799239145307    -0.832636867631     1.007825032230
         H            1.606024855737     2.040377854693     0.862134132369     1.007825032230
         H           -0.672872144263     2.119799854693    -0.507878867631     1.007825032230
         H           -0.576206144263    -2.046274145307     0.565991132369     1.007825032230
         H            3.870039855737    -1.383509145307    -0.578467867631     1.007825032230
         H            4.129987855737     1.123395854693     0.469101132369     1.007825032230
         H           -3.154398144263     2.062246854693    -0.493413867631     1.007825032230
         H           -3.048257144263    -2.126552145307     0.485970132369     1.007825032230
         H           -4.350970144263    -0.068218145307    -0.020785867631     1.007825032230

  Basis Set: AUG-CC-PVTZ
    Blend: AUG-CC-PVTZ
  Basis Set: (AUG-CC-PVTZ AUX)
    Blend: AUG-CC-PVTZ-JKFIT
	 Reference Energy          =    -438.5041905527899075 [Eh]
	 Singles Energy            =      -0.0000000000000000 [Eh]
	 Same-Spin Energy          =      -0.4961861980697959 [Eh]
	 Opposite-Spin Energy      =      -1.5262820376729134 [Eh]
	 Correlation Energy        =      -2.0224682357427093 [Eh]
	 Total Energy              =    -440.5266587885326430 [Eh]

	 ================> DF-SCS-MP2 Energies <==================
	-----------------------------------------------------------
	 SCS Same-Spin Scale       =       0.3333333333333333 [-]
	 SCS Opposite-Spin Scale   =       1.2000000000000000 [-]
	 SCS Same-Spin Energy      =      -0.1653953993565986 [Eh]
	 SCS Opposite-Spin Energy  =      -1.8315384452074959 [Eh]
	 SCS Correlation Energy    =      -1.9969338445640945 [Eh]
	 SCS Total Energy          =    -440.5011243973539763 [Eh]
	-----------------------------------------------------------

  Dipole Moment: [D]
     X:    -0.4156      Y:    -1.3216      Z:    -0.6497     Total:     1.5302

*** Psi4 exiting successfully. Buy a developer a beer!
