                               Psi4 1.4a3.dev225

  ==> Input File <==

--------------------------------------------------------------------------
#psi4
#
memory 32 gb

molecule  {
0 1
  N        1.7773000    -0.9706020    -0.3863220
  C        1.0080060     0.0962300     0.0271750
  C       -0.4507830     0.0432590     0.0183630
  C        1.8938950     1.0905280     0.4329840
  C       -1.1961700     1.1987140    -0.2700270
  C       -1.1363230    -1.1523850     0.2941990
  C        3.0923303    -0.6776915    -0.2787745
  C        3.2093430     0.6071710     0.2411150
  C       -2.5895110     1.1608830    -0.2689850
  C       -2.5303830    -1.1922690     0.2696200
  C       -3.2626170    -0.0361670    -0.0095020
  H        1.3994420    -1.7974010    -0.8317830
  H        1.6076040     2.0422160     0.8629880
  H       -0.6712930     2.1216380    -0.5070250
  H       -0.5746270    -2.0444360     0.5668450
  H        3.8716190    -1.3816710    -0.5776140
  H        4.1315670     1.1252340     0.4699550
  H       -3.1528190     2.0640850    -0.4925600
  H       -3.0466780    -2.1247140     0.4868240
  H       -4.3493910    -0.0663800    -0.0199320
units angstrom
no_reorient  #important for SAPT in psi4, default
symmetry c1  #important for SAPT in psi4, default
}

set PROPERTIES_ORIGIN ["COM"]
properties('MP2/aug-cc-pvtz', properties = ['dipole'])
--------------------------------------------------------------------------

    Molecular point group: c1
  Charge       = 0
  Multiplicity = 1
  Basis Set: AUG-CC-PVTZ
    Blend: AUG-CC-PVTZ
  Basis Set: (AUG-CC-PVTZ AUX)
    Blend: AUG-CC-PVTZ-JKFIT

    Orbital Energies [Eh]
    ---------------------

    Doubly Occupied:

       1A    -15.609972     2A    -11.260607     3A    -11.257298
       4A    -11.252996     5A    -11.241738     6A    -11.240423
       7A    -11.240072     8A    -11.237413     9A    -11.237163
      10A    -11.214094    11A    -11.212509    12A     -1.300229
      13A     -1.155976    14A     -1.050154    15A     -1.042462
      16A     -1.016489    17A     -0.958874    18A     -0.836903
      19A     -0.832110    20A     -0.790609    21A     -0.766277
      22A     -0.734927    23A     -0.679807    24A     -0.633456
      25A     -0.629673    26A     -0.595129    27A     -0.589821
      28A     -0.581974    29A     -0.572027    30A     -0.550424
      31A     -0.533527    32A     -0.504473    33A     -0.500501
      34A     -0.494075    35A     -0.364158    36A     -0.349865
      37A     -0.341078    38A     -0.272202

  @DF-RHF Final Energy:  -438.50853473772213

   => Energetics <=

    Nuclear Repulsion Energy =            537.1714714660272421
    One-Electron Energy =               -1657.9970406239692693
    Two-Electron Energy =                 682.3170344202198976
    Total Energy =                       -438.5085347377221296
  Basis Set: (AUG-CC-PVTZ AUX)
    Blend: AUG-CC-PVTZ-RI
    Molecular point group: c1

    Geometry (in Angstrom), charge = 0, multiplicity = 1:

       Center              X                  Y                   Z               Mass
    ------------   -----------------  -----------------  -----------------  -----------------
         N            1.773453056308    -0.970643577799    -0.386473540502    14.003074004430
         C            1.004159056308     0.096188422201     0.027023459498    12.000000000000
         C           -0.454629943692     0.043217422201     0.018211459498    12.000000000000
         C            1.890048056308     1.090486422201     0.432832459498    12.000000000000
         C           -1.200016943692     1.198672422201    -0.270178540502    12.000000000000
         C           -1.140169943692    -1.152426577799     0.294047459498    12.000000000000
         C            3.088483356308    -0.677733077799    -0.278926040502    12.000000000000
         C            3.205496056308     0.607129422201     0.240963459498    12.000000000000
         C           -2.593357943692     1.160841422201    -0.269136540502    12.000000000000
         C           -2.534229943692    -1.192310577799     0.269468459498    12.000000000000
         C           -3.266463943692    -0.036208577799    -0.009653540502    12.000000000000
         H            1.395595056308    -1.797442577799    -0.831934540502     1.007825032230
         H            1.603757056308     2.042174422201     0.862836459498     1.007825032230
         H           -0.675139943692     2.121596422201    -0.507176540502     1.007825032230
         H           -0.578473943692    -2.044477577799     0.566693459498     1.007825032230
         H            3.867772056308    -1.381712577799    -0.577765540502     1.007825032230
         H            4.127720056308     1.125192422201     0.469803459498     1.007825032230
         H           -3.156665943692     2.064043422201    -0.492711540502     1.007825032230
         H           -3.050524943692    -2.124755577799     0.486672459498     1.007825032230
         H           -4.353237943692    -0.066421577799    -0.020083540502     1.007825032230

  Basis Set: AUG-CC-PVTZ
    Blend: AUG-CC-PVTZ
  Basis Set: (AUG-CC-PVTZ AUX)
    Blend: AUG-CC-PVTZ-JKFIT
	 Reference Energy          =    -438.5085347377221296 [Eh]
	 Singles Energy            =      -0.0000000000000000 [Eh]
	 Same-Spin Energy          =      -0.4953822466396795 [Eh]
	 Opposite-Spin Energy      =      -1.5252086901679469 [Eh]
	 Correlation Energy        =      -2.0205909368076265 [Eh]
	 Total Energy              =    -440.5291256745297801 [Eh]

	 ================> DF-SCS-MP2 Energies <==================
	-----------------------------------------------------------
	 SCS Same-Spin Scale       =       0.3333333333333333 [-]
	 SCS Opposite-Spin Scale   =       1.2000000000000000 [-]
	 SCS Same-Spin Energy      =      -0.1651274155465598 [Eh]
	 SCS Opposite-Spin Energy  =      -1.8302504282015362 [Eh]
	 SCS Correlation Energy    =      -1.9953778437480960 [Eh]
	 SCS Total Energy          =    -440.5039125814702174 [Eh]
	-----------------------------------------------------------

  Dipole Moment: [D]
     X:    -0.4430      Y:    -1.3414      Z:    -0.6567     Total:     1.5579

*** Psi4 exiting successfully. Buy a developer a beer!
