                               Psi4 1.3.2 release

  ==> Input File <==

--------------------------------------------------------------------------
#psi4
#
memory 32 gb

molecule  {
0 1
  N        1.7773000    -0.9706020    -0.3863220
  C        1.0080060     0.0962300     0.0271750
  C       -0.4496483     0.0197645     0.0085738
  C        1.8938950     1.0905280     0.4329840
  C       -1.1961700     1.1987140    -0.2700270
  C       -1.1363230    -1.1523850     0.2941990
  C        3.1117900    -0.6733570    -0.2771830
  C        3.2093430     0.6071710     0.2411150
  C       -2.5895110     1.1608830    -0.2689850
  C       -2.5303830    -1.1922690     0.2696200
  C       -3.2626170    -0.0361670    -0.0095020
  H        1.3994420    -1.7974010    -0.8317830
  H        1.6076040     2.0422160     0.8629880
  H       -0.6712930     2.1216380    -0.5070250
  H       -0.5746270    -2.0444360     0.5668450
  H        3.8716190    -1.3816710    -0.5776140
  H        4.1315670     1.1252340     0.4699550
  H       -3.1528190     2.0640850    -0.4925600
  H       -3.0466780    -2.1247140     0.4868240
  H       -4.3493910    -0.0663800    -0.0199320
units angstrom
no_reorient  #important for SAPT in psi4, default
symmetry c1  #important for SAPT in psi4, default
}

set PROPERTIES_ORIGIN ["COM"]
properties('MP2/aug-cc-pvtz', properties = ['dipole'])
--------------------------------------------------------------------------

    Molecular point group: c1
  Charge       = 0
  Multiplicity = 1
  Basis Set: AUG-CC-PVTZ
    Blend: AUG-CC-PVTZ
  Basis Set: (AUG-CC-PVTZ AUX)
    Blend: AUG-CC-PVTZ-JKFIT

    Orbital Energies [Eh]
    ---------------------

    Doubly Occupied:

       1A    -15.607791     2A    -11.262253     3A    -11.256487
       4A    -11.253158     5A    -11.241878     6A    -11.240747
       7A    -11.239419     8A    -11.239038     9A    -11.237851
      10A    -11.214220    11A    -11.213124    12A     -1.294170
      13A     -1.156166    14A     -1.048388    15A     -1.043620
      16A     -1.016678    17A     -0.959245    18A     -0.838032
      19A     -0.832077    20A     -0.788389    21A     -0.765338
      22A     -0.735110    23A     -0.679967    24A     -0.632963
      25A     -0.630080    26A     -0.593481    27A     -0.589723
      28A     -0.581383    29A     -0.569278    30A     -0.549712
      31A     -0.537098    32A     -0.504292    33A     -0.501123
      34A     -0.494418    35A     -0.363612    36A     -0.350410
      37A     -0.341035    38A     -0.273468

  @DF-RHF Final Energy:  -438.50823583394873

   => Energetics <=

    Nuclear Repulsion Energy =            536.8467848085048217
    One-Electron Energy =               -1657.3595985021438537
    Two-Electron Energy =                 682.0045778596903574
    Total Energy =                       -438.5082358339487882
  Basis Set: (AUG-CC-PVTZ AUX)
    Blend: AUG-CC-PVTZ-RI
    Molecular point group: c1

    Geometry (in Angstrom), charge = 0, multiplicity = 1:

       Center              X                  Y                   Z               Mass
    ------------   -----------------  -----------------  -----------------  -----------------
         N            1.771725742716    -0.969036571602    -0.385785975017    14.003074004430
         C            1.002431742716     0.097795428398     0.027711024983    12.000000000000
         C           -0.455222557284     0.021329928398     0.009109824983    12.000000000000
         C            1.888320742716     1.092093428398     0.433520024983    12.000000000000
         C           -1.201744257284     1.200279428398    -0.269490975017    12.000000000000
         C           -1.141897257284    -1.150819571602     0.294735024983    12.000000000000
         C            3.106215742716    -0.671791571602    -0.276646975017    12.000000000000
         C            3.203768742716     0.608736428398     0.241651024983    12.000000000000
         C           -2.595085257284     1.162448428398    -0.268448975017    12.000000000000
         C           -2.535957257284    -1.190703571602     0.270156024983    12.000000000000
         C           -3.268191257284    -0.034601571602    -0.008965975017    12.000000000000
         H            1.393867742716    -1.795835571602    -0.831246975017     1.007825032230
         H            1.602029742716     2.043781428398     0.863524024983     1.007825032230
         H           -0.676867257284     2.123203428398    -0.506488975017     1.007825032230
         H           -0.580201257284    -2.042870571602     0.567381024983     1.007825032230
         H            3.866044742716    -1.380105571602    -0.577077975017     1.007825032230
         H            4.125992742716     1.126799428398     0.470491024983     1.007825032230
         H           -3.158393257284     2.065650428398    -0.492023975017     1.007825032230
         H           -3.052252257284    -2.123148571602     0.487360024983     1.007825032230
         H           -4.354965257284    -0.064814571602    -0.019395975017     1.007825032230

  Basis Set: AUG-CC-PVTZ
    Blend: AUG-CC-PVTZ
  Basis Set: (AUG-CC-PVTZ AUX)
    Blend: AUG-CC-PVTZ-JKFIT
	 Reference Energy          =    -438.5082358339487314 [Eh]
	 Singles Energy            =      -0.0000000000000000 [Eh]
	 Same-Spin Energy          =      -0.4952579692071701 [Eh]
	 Opposite-Spin Energy      =      -1.5253886152543044 [Eh]
	 Correlation Energy        =      -2.0206465844614745 [Eh]
	 Total Energy              =    -440.5288824184102054 [Eh]

	 ================> DF-SCS-MP2 Energies <==================
	-----------------------------------------------------------
	 SCS Same-Spin Scale       =       0.3333333333333333 [-]
	 SCS Opposite-Spin Scale   =       1.2000000000000000 [-]
	 SCS Same-Spin Energy      =      -0.1650859897357234 [Eh]
	 SCS Opposite-Spin Energy  =      -1.8304663383051651 [Eh]
	 SCS Correlation Energy    =      -1.9955523280408884 [Eh]
	 SCS Total Energy          =    -440.5037881619896325 [Eh]
	-----------------------------------------------------------

  Dipole Moment: [D]
     X:    -0.4500      Y:    -1.3140      Z:    -0.6438     Total:     1.5308

*** Psi4 exiting successfully. Buy a developer a beer!
