                               Psi4 1.3.2 release

  ==> Input File <==

--------------------------------------------------------------------------
#psi4
#
memory 32 gb

molecule  {
0 1
  N        1.7830263    -0.9921249    -0.3950962
  C        1.0080060     0.0962300     0.0271750
  C       -0.4507830     0.0432590     0.0183630
  C        1.8938950     1.0905280     0.4329840
  C       -1.1961700     1.1987140    -0.2700270
  C       -1.1363230    -1.1523850     0.2941990
  C        3.1117900    -0.6733570    -0.2771830
  C        3.2093430     0.6071710     0.2411150
  C       -2.5895110     1.1608830    -0.2689850
  C       -2.5303830    -1.1922690     0.2696200
  C       -3.2626170    -0.0361670    -0.0095020
  H        1.3994420    -1.7974010    -0.8317830
  H        1.6076040     2.0422160     0.8629880
  H       -0.6712930     2.1216380    -0.5070250
  H       -0.5746270    -2.0444360     0.5668450
  H        3.8716190    -1.3816710    -0.5776140
  H        4.1315670     1.1252340     0.4699550
  H       -3.1528190     2.0640850    -0.4925600
  H       -3.0466780    -2.1247140     0.4868240
  H       -4.3493910    -0.0663800    -0.0199320
units angstrom
no_reorient  #important for SAPT in psi4, default
symmetry c1  #important for SAPT in psi4, default
}

set PROPERTIES_ORIGIN ["COM"]
properties('MP2/aug-cc-pvtz', properties = ['dipole'])
--------------------------------------------------------------------------

    Molecular point group: c1
  Charge       = 0
  Multiplicity = 1
  Basis Set: AUG-CC-PVTZ
    Blend: AUG-CC-PVTZ
  Basis Set: (AUG-CC-PVTZ AUX)
    Blend: AUG-CC-PVTZ-JKFIT

    Orbital Energies [Eh]
    ---------------------

    Doubly Occupied:

       1A    -15.606504     2A    -11.263688     3A    -11.258551
       4A    -11.253014     5A    -11.241740     6A    -11.240506
       7A    -11.240116     8A    -11.237638     9A    -11.237368
      10A    -11.215708    11A    -11.213716    12A     -1.289325
      13A     -1.155907    14A     -1.050737    15A     -1.043318
      16A     -1.016629    17A     -0.957218    18A     -0.838282
      19A     -0.831920    20A     -0.792751    21A     -0.763034
      22A     -0.734639    23A     -0.679413    24A     -0.632159
      25A     -0.629852    26A     -0.596823    27A     -0.589174
      28A     -0.579538    29A     -0.567233    30A     -0.549991
      31A     -0.537683    32A     -0.503968    33A     -0.500588
      34A     -0.494188    35A     -0.364328    36A     -0.350967
      37A     -0.341122    38A     -0.272941

  @DF-RHF Final Energy:  -438.50815820818980

   => Energetics <=

    Nuclear Repulsion Energy =            536.3354934224117869
    One-Electron Energy =               -1656.3427476606575510
    Two-Electron Energy =                 681.4990960300560801
    Total Energy =                       -438.5081582081897977
  Basis Set: (AUG-CC-PVTZ AUX)
    Blend: AUG-CC-PVTZ-RI
    Molecular point group: c1

    Geometry (in Angstrom), charge = 0, multiplicity = 1:

       Center              X                  Y                   Z               Mass
    ------------   -----------------  -----------------  -----------------  -----------------
         N            1.776986761563    -0.990423508188    -0.394522464526    14.003074004430
         C            1.001966461563     0.097931391812     0.027748735474    12.000000000000
         C           -0.456822538437     0.044960391812     0.018936735474    12.000000000000
         C            1.887855461563     1.092229391812     0.433557735474    12.000000000000
         C           -1.202209538437     1.200415391812    -0.269453264526    12.000000000000
         C           -1.142362538437    -1.150683608188     0.294772735474    12.000000000000
         C            3.105750461563    -0.671655608188    -0.276609264526    12.000000000000
         C            3.203303461563     0.608872391812     0.241688735474    12.000000000000
         C           -2.595550538437     1.162584391812    -0.268411264526    12.000000000000
         C           -2.536422538437    -1.190567608188     0.270193735474    12.000000000000
         C           -3.268656538437    -0.034465608188    -0.008928264526    12.000000000000
         H            1.393402461563    -1.795699608188    -0.831209264526     1.007825032230
         H            1.601564461563     2.043917391812     0.863561735474     1.007825032230
         H           -0.677332538437     2.123339391812    -0.506451264526     1.007825032230
         H           -0.580666538437    -2.042734608188     0.567418735474     1.007825032230
         H            3.865579461563    -1.379969608188    -0.577040264526     1.007825032230
         H            4.125527461563     1.126935391812     0.470528735474     1.007825032230
         H           -3.158858538437     2.065786391812    -0.491986264526     1.007825032230
         H           -3.052717538437    -2.123012608188     0.487397735474     1.007825032230
         H           -4.355430538437    -0.064678608188    -0.019358264526     1.007825032230

  Basis Set: AUG-CC-PVTZ
    Blend: AUG-CC-PVTZ
  Basis Set: (AUG-CC-PVTZ AUX)
    Blend: AUG-CC-PVTZ-JKFIT
	 Reference Energy          =    -438.5081582081897977 [Eh]
	 Singles Energy            =      -0.0000000000000000 [Eh]
	 Same-Spin Energy          =      -0.4950217064331683 [Eh]
	 Opposite-Spin Energy      =      -1.5253352771832662 [Eh]
	 Correlation Energy        =      -2.0203569836164346 [Eh]
	 Total Energy              =    -440.5285151918062070 [Eh]

	 ================> DF-SCS-MP2 Energies <==================
	-----------------------------------------------------------
	 SCS Same-Spin Scale       =       0.3333333333333333 [-]
	 SCS Opposite-Spin Scale   =       1.2000000000000000 [-]
	 SCS Same-Spin Energy      =      -0.1650072354777228 [Eh]
	 SCS Opposite-Spin Energy  =      -1.8304023326199195 [Eh]
	 SCS Correlation Energy    =      -1.9954095680976422 [Eh]
	 SCS Total Energy          =    -440.5035677762874684 [Eh]
	-----------------------------------------------------------

  Dipole Moment: [D]
     X:    -0.4325      Y:    -1.2648      Z:    -0.6268     Total:     1.4764

*** Psi4 exiting successfully. Buy a developer a beer!
